
  ___ ___ ___ _ _ _  
 |   |   |_  | | | | 
 | | | | | . | | | | 
 |__ |  _|___|_____|  1.5.1
 |___|_|             

User:   clausen@node249.cluster
Date:   Thu Mar  3 20:03:22 2022
Arch:   x86_64
Pid:    163058
Python: 3.6.12
gpaw:   /software/kemi/gpaw/1.5.1/gpaw
_gpaw:  /software/kemi/gpaw/1.5.1/bin/gpaw-python
ase:    /software/kemi/ase/3.17.0/ase (version 3.17.0)
numpy:  /opt/rh/rh-python36/root/usr/lib64/python3.6/site-packages/numpy (version 1.13.1)
scipy:  /opt/rh/rh-python36/root/usr/lib64/python3.6/site-packages/scipy (version 0.19.1)
units:  Angstrom and eV
cores:  16

Input parameters:
  kpts: [4 4 1]
  mode: {ecut: 400.0,
         gammacentered: False,
         name: pw}
  xc: RPBE

System changes: positions, numbers, cell, pbc, initial_charges, initial_magmoms 

Initialize ...

Ag-setup:
  name: Silver
  id: c05e55bab2c3858b3f9398f6d75cb77c
  Z: 47
  valence: 17
  core: 30
  charge: 0.0
  file: /software/kemi/gpaw-setups/0.9.20000/Ag.RPBE.gz
  cutoffs: 1.25(comp), 2.35(filt), 2.19(core), lmax=2
  valence states:
                energy  radius
    5s(1.00)    -4.277   1.286
    4p(6.00)   -58.523   1.328
    5p(0.00)    -0.755   1.328
    4d(10.00)    -7.386   1.180
    *s          22.934   1.286
    *d          19.826   1.180

  Using partial waves for Ag as LCAO basis

Ir-setup:
  name: Iridium
  id: 73b603359d1d5397a85ae3c2440f9033
  Z: 77
  valence: 15
  core: 62
  charge: 0.0
  file: /software/kemi/gpaw-setups/0.9.20000/Ir.RPBE.gz
  cutoffs: 1.26(comp), 2.40(filt), 2.36(core), lmax=2
  valence states:
                energy  radius
    6s(2.00)    -6.219   1.296
    5p(6.00)   -54.684   1.328
    6p(0.00)    -1.215   1.328
    5d(7.00)    -7.118   1.286
    *s          20.992   1.296
    *d          20.093   1.286

  Using partial waves for Ir as LCAO basis

Pt-setup:
  name: Platinum
  id: f04f522592575c47ad794f6b4a415b4b
  Z: 78
  valence: 16
  core: 62
  charge: 0.0
  file: /software/kemi/gpaw-setups/0.9.20000/Pt.RPBE.gz
  cutoffs: 1.29(comp), 2.26(filt), 2.26(core), lmax=2
  valence states:
                energy  radius
    6s(1.00)    -5.516   1.307
    5p(6.00)   -55.971   1.371
    6p(0.00)    -0.856   1.371
    5d(9.00)    -6.087   1.307
    *s          21.695   1.307
    *d          21.125   1.307

  Using partial waves for Pt as LCAO basis

Ru-setup:
  name: Ruthenium
  id: 76477906e28f51dc1b29884d53556fe9
  Z: 44
  valence: 16
  core: 28
  charge: 0.0
  file: /software/kemi/gpaw-setups/0.9.20000/Ru.RPBE.gz
  cutoffs: 1.23(comp), 2.16(filt), 1.30(core), lmax=2
  valence states:
                energy  radius
    4s(2.00)   -76.255   1.281
    5s(1.00)    -4.126   1.281
    4p(6.00)   -46.371   1.286
    5p(0.00)    -0.913   1.286
    4d(7.00)    -5.146   1.254
    *d          22.066   1.254

  Using partial waves for Ru as LCAO basis

O-setup:
  name: Oxygen
  id: 08071ca1eed670e7821b24b7eb4d558c
  Z: 8
  valence: 6
  core: 2
  charge: 0.0
  file: /software/kemi/gpaw-setups/0.9.20000/O.RPBE.gz
  cutoffs: 0.67(comp), 1.17(filt), 0.83(core), lmax=2
  valence states:
                energy  radius
    2s(2.00)   -24.041   0.688
    2p(4.00)    -8.984   0.598
    *s           3.170   0.688
    *p          18.228   0.598
    *d           0.000   0.619

  Using partial waves for O as LCAO basis

Reference energy: -16429278.754816

Spin-paired calculation

Occupation numbers:
  Fermi-Dirac: width=0.1000 eV

Convergence criteria:
  Maximum total energy change: 0.0005 eV / electron
  Maximum integral of absolute density change: 0.0001 electrons
  Maximum integral of absolute eigenstate change: 4e-08 eV^2
  Maximum number of iterations: 333

Symmetries present (total): 1

  ( 1  0  0)
  ( 0  1  0)
  ( 0  0  1)

16 k-points: 4 x 4 x 1 Monkhorst-Pack grid
8 k-points in the irreducible part of the Brillouin zone
       k-points in crystal coordinates                weights
   0:     0.12500000   -0.37500000    0.00000000          2/16
   1:     0.12500000   -0.12500000    0.00000000          2/16
   2:     0.12500000    0.12500000    0.00000000          2/16
   3:     0.12500000    0.37500000    0.00000000          2/16
   4:     0.37500000   -0.37500000    0.00000000          2/16
   5:     0.37500000   -0.12500000    0.00000000          2/16
   6:     0.37500000    0.12500000    0.00000000          2/16
   7:     0.37500000    0.37500000    0.00000000          2/16

Wave functions: Plane wave expansion
  Cutoff energy: 400.000 eV
  Number of coefficients (min, max): 32722, 32776
  Pulay-stress correction: 0.000000 eV/Ang^3 (de/decut=0.000000)
  Using FFTW library
  ScaLapack parameters: grid=1x1, blocksize=None
  Wavefunction extrapolation:
    Improved wavefunction reuse through dual PAW basis 

Eigensolver
   Davidson(niter=2, smin=None, normalize=True) 

Densities:
  Coarse grid: 35*35*135 grid
  Fine grid: 70*70*270 grid
  Total Charge: 0.000000 

Density mixing:
  Method: separate
  Backend: pulay
  Linear mixing parameter: 0.05
  Mixing with 5 old densities
  Damping of long wave oscillations: 50 

Hamiltonian:
  XC and Coulomb potentials evaluated on a 70*70*270 grid
  Using the RPBE Exchange-Correlation functional
 

XC parameters: RPBE with 2 nearest neighbor stencil

Memory estimate:
  Process memory now: 146.39 MiB
  Calculator: 540.22 MiB
    Density: 48.12 MiB
      Arrays: 16.41 MiB
      Localized functions: 25.35 MiB
      Mixer: 6.36 MiB
    Hamiltonian: 11.50 MiB
      Arrays: 10.73 MiB
      XC: 0.00 MiB
      Poisson: 0.00 MiB
      vbar: 0.77 MiB
    Wavefunctions: 480.60 MiB
      Arrays psit_nG: 217.55 MiB
      Eigensolver: 248.94 MiB
      Projections: 2.73 MiB
      Projectors: 4.75 MiB
      PW-descriptor: 6.62 MiB

Total number of cores used: 16
Parallelization over k-points: 8
Domain decomposition: 1 x 1 x 2

Number of atoms: 46
Number of atomic orbitals: 547
Number of bands in calculation: 435
Bands to converge: occupied states only
Number of valence electrons: 718

... initialized

Initializing position-dependent things.

Density initialized from atomic densities
Creating initial wave functions:
  435 bands from LCAO basis set

                                             
                                             
                                             
                                             
                                             
                                             
                O              Ag            
                  Ir    Ir                   
            Ag                               
                  AIr     Pt    Ru           
       Ir    IIr    IPt    Pt                
                                             
         Ru    Ir    PIr    Ag     Ir        
                Ag     Ag     Ag             
                                             
           Ir    PPt    RPt    Ir            
                                             
            Ir    IAg    AAg    Pt           
       Ag     Ir     Ir                      
             Ir     Ir     Ir                
        Ag     Ag     Ir                     
                                             
                                             
                                             
                                             
                                             

Positions:
   0 Ag     0.000000    1.621936   10.000000    ( 0.0000,  0.0000,  0.0000)
   1 Ag     2.809275    1.621936   10.000000    ( 0.0000,  0.0000,  0.0000)
   2 Ir     5.618550    1.621936   10.000000    ( 0.0000,  0.0000,  0.0000)
   3 Ir     1.404638    4.054840   10.000000    ( 0.0000,  0.0000,  0.0000)
   4 Ir     4.213913    4.054840   10.000000    ( 0.0000,  0.0000,  0.0000)
   5 Ir     7.023188    4.054840   10.000000    ( 0.0000,  0.0000,  0.0000)
   6 Ir     2.809275    6.487743   10.000000    ( 0.0000,  0.0000,  0.0000)
   7 Ag     5.618550    6.487743   10.000000    ( 0.0000,  0.0000,  0.0000)
   8 Pt     8.427826    6.487743   10.000000    ( 0.0000,  0.0000,  0.0000)
   9 Ag     0.000000    0.000000   12.293764    ( 0.0000,  0.0000,  0.0000)
  10 Ir     2.809275    0.000000   12.293764    ( 0.0000,  0.0000,  0.0000)
  11 Ir     5.618550    0.000000   12.293764    ( 0.0000,  0.0000,  0.0000)
  12 Ir     1.404638    2.432904   12.293764    ( 0.0000,  0.0000,  0.0000)
  13 Ag     4.213913    2.432904   12.293764    ( 0.0000,  0.0000,  0.0000)
  14 Ag     7.023188    2.432904   12.293764    ( 0.0000,  0.0000,  0.0000)
  15 Pt     2.809275    4.865807   12.293764    ( 0.0000,  0.0000,  0.0000)
  16 Ru     5.618550    4.865807   12.293764    ( 0.0000,  0.0000,  0.0000)
  17 Ir     8.427826    4.865807   12.293764    ( 0.0000,  0.0000,  0.0000)
  18 Ir     1.441638    0.791118   14.593247    ( 0.0000,  0.0000,  0.0000)
  19 Pt     4.193480    0.729862   14.611205    ( 0.0000,  0.0000,  0.0000)
  20 Pt     7.034823    0.803600   14.634811    ( 0.0000,  0.0000,  0.0000)
  21 Ag     2.789574    3.267050   14.608106    ( 0.0000,  0.0000,  0.0000)
  22 Ag     5.614143    3.230616   14.629701    ( 0.0000,  0.0000,  0.0000)
  23 Ag     8.464759    3.239382   14.607930    ( 0.0000,  0.0000,  0.0000)
  24 Pt     4.237230    5.675263   14.599690    ( 0.0000,  0.0000,  0.0000)
  25 Ag     7.020289    5.624637   14.588938    ( 0.0000,  0.0000,  0.0000)
  26 Ir     9.810296    5.749034   14.534386    ( 0.0000,  0.0000,  0.0000)
  27 Ru     0.088724    1.655821   16.925664    ( 0.0000,  0.0000,  0.0000)
  28 Ir     2.745717    1.627778   16.875164    ( 0.0000,  0.0000,  0.0000)
  29 Ir     5.551846    1.597836   16.889230    ( 0.0000,  0.0000,  0.0000)
  30 Ir     1.358794    4.007324   17.013226    ( 0.0000,  0.0000,  0.0000)
  31 Ir     4.198339    3.977911   16.957702    ( 0.0000,  0.0000,  0.0000)
  32 Pt     7.125382    4.056246   16.998429    ( 0.0000,  0.0000,  0.0000)
  33 Ag     2.759687    6.474835   16.802442    ( 0.0000,  0.0000,  0.0000)
  34 Ir     5.663661    6.563267   16.864024    ( 0.0000,  0.0000,  0.0000)
  35 Ru     8.399575    6.483077   16.866623    ( 0.0000,  0.0000,  0.0000)
  36 Ir     0.015859   -0.055829   18.998154    ( 0.0000,  0.0000,  0.0000)
  37 Ir     2.776668   -0.025110   18.984491    ( 0.0000,  0.0000,  0.0000)
  38 Pt     5.623976   -0.052286   19.132338    ( 0.0000,  0.0000,  0.0000)
  39 Ag     1.411190    2.424549   19.550242    ( 0.0000,  0.0000,  0.0000)
  40 Ir     4.228423    2.403175   19.018562    ( 0.0000,  0.0000,  0.0000)
  41 Pt     6.964575    2.313754   19.128521    ( 0.0000,  0.0000,  0.0000)
  42 Ir     2.920544    4.885225   19.043791    ( 0.0000,  0.0000,  0.0000)
  43 Ir     5.524960    4.949858   19.026821    ( 0.0000,  0.0000,  0.0000)
  44 Ag     8.407084    4.876484   19.535850    ( 0.0000,  0.0000,  0.0000)
  45 O      2.853386    3.237649   20.850242    ( 0.0000,  0.0000,  0.0000)

Unit cell:
           periodic     x           y           z      points  spacing
  1. axis:    yes    8.445283    0.000000    0.000000    35     0.2090
  2. axis:    yes    4.222641    7.313829    0.000000    35     0.2090
  3. axis:    no     0.000000    0.000000   29.175054   135     0.2161

  Lengths:   8.445283   8.445283  29.175054
  Angles:   90.000000  90.000000  60.000000

Effective grid spacing dv^(1/3) = 0.2217

                     log10-error:    total        iterations:
           time      wfs    density  energy       fermi  poisson
iter:   1  20:05:34  +0.17   +inf  -295.079482    3             
iter:   2  20:06:34  -1.10  -1.37  -293.873383    37            
iter:   3  20:07:34  -1.36  -1.32  -330.037500    35            
iter:   4  20:08:34  -1.74  -1.25  -274.553817    3             
iter:   5  20:09:36  -2.27  -1.49  -268.859186    34            
iter:   6  20:10:39  -2.48  -1.55  -267.317109    3             
iter:   7  20:11:42  -2.29  -1.59  -264.698879    3             
iter:   8  20:12:43  -2.38  -1.74  -263.918112    3             
iter:   9  20:13:43  -2.64  -1.91  -265.170072    3             
iter:  10  20:14:43  -2.66  -1.91  -265.169046    3             
iter:  11  20:15:46  -3.11  -1.95  -263.966061    3             
iter:  12  20:16:49  -3.63  -2.21  -264.009270    3             
iter:  13  20:17:51  -3.58  -2.24  -264.015983    3             
iter:  14  20:18:51  -3.43  -2.30  -263.917373    2             
iter:  15  20:19:51  -3.39  -2.44  -263.845902    2             
iter:  16  20:20:50  -3.62  -2.66  -263.826806    3             
iter:  17  20:21:53  -3.96  -2.76  -263.808031    3             
iter:  18  20:22:56  -4.47  -2.87  -263.806986    3             
iter:  19  20:23:57  -4.61  -2.95  -263.810880    2             
iter:  20  20:24:57  -4.85  -2.85  -263.799808    2             
iter:  21  20:25:57  -4.73  -3.04  -263.802244    2             
iter:  22  20:26:57  -5.04  -3.03  -263.802263    3             
iter:  23  20:28:00  -5.09  -3.08  -263.801734    2             
iter:  24  20:29:03  -4.89  -3.19  -263.804559    2             
iter:  25  20:30:04  -5.27  -3.26  -263.803311    2             
iter:  26  20:31:03  -5.21  -3.08  -263.799375    2             
iter:  27  20:32:04  -5.96  -3.52  -263.798254    2             
iter:  28  20:33:04  -6.06  -3.57  -263.798504    2             
iter:  29  20:34:07  -6.52  -3.60  -263.798432    2             
iter:  30  20:35:11  -5.94  -3.64  -263.798667    2             
iter:  31  20:36:11  -6.17  -3.73  -263.797453    2             
iter:  32  20:37:11  -6.24  -3.49  -263.798423    2             
iter:  33  20:38:11  -6.97  -3.83  -263.797919    2             
iter:  34  20:39:13  -7.14  -3.98  -263.798136    2             
iter:  35  20:40:17  -7.11  -4.00  -263.798091    2             
iter:  36  20:41:19  -7.27  -4.03  -263.798017    2             
iter:  37  20:42:19  -6.84  -4.15  -263.797303    2             
iter:  38  20:43:19  -7.27  -3.99  -263.798098    2             
iter:  39  20:44:19  -7.48  -4.17  -263.797770    2             

Converged after 39 iterations.

Dipole moment: (22.432121, 18.882384, -0.319457) |e|*Ang

Energy contributions relative to reference atoms: (reference = -16429278.754816)

Kinetic:       -154.303613
Potential:      +97.354954
External:        +0.000000
XC:            -199.428272
Entropy (-ST):   -2.135412
Local:           -6.353134
--------------------------
Free energy:   -264.865477
Extrapolated:  -263.797770

Fermi level: 1.20100

Showing only first 2 kpts
 Kpt  Band  Eigenvalues  Occupancy
  0   357      1.20796    0.12065
  0   358      1.22626    0.10930
  0   359      1.26978    0.08363
  0   360      1.29328    0.07110

  1   357      1.10835    0.17909
  1   358      1.12589    0.16985
  1   359      1.14755    0.15763
  1   360      1.18371    0.13578



Forces in eV/Ang:
  0 Ag   -0.42273    0.16300   -1.04607
  1 Ag    0.25095    0.22905   -0.85913
  2 Ir    0.49942   -0.18141    0.01864
  3 Ir   -0.10675    1.24038    1.39184
  4 Ir    0.41413    0.40669    0.87130
  5 Ir   -0.32765   -0.01994    1.20595
  6 Ir   -1.72263   -0.50509    0.73244
  7 Ag   -0.12027   -0.35526   -0.95668
  8 Pt    1.06942   -0.39905    0.48493
  9 Ag    0.14307    0.00805    0.14915
 10 Ir   -0.02034   -0.40324    0.99788
 11 Ir   -0.65167   -0.77997   -0.54521
 12 Ir    0.39476    0.15487    0.16513
 13 Ag   -0.01991   -0.04220    0.14606
 14 Ag    0.05578    0.08579    0.12878
 15 Pt   -0.15513   -0.04594   -0.62796
 16 Ru    0.63364    0.46303   -1.38413
 17 Ir    0.14056    0.28810   -1.26465
 18 Ir    0.00074    0.06886    0.04493
 19 Pt    0.02752    0.03734    0.04472
 20 Pt    0.09476   -0.06459   -0.04845
 21 Ag    0.01449    0.00349    0.04643
 22 Ag    0.01400   -0.00178    0.04513
 23 Ag    0.00763    0.01190    0.00434
 24 Pt    0.00737   -0.00980    0.07068
 25 Ag    0.00002   -0.03641    0.00185
 26 Ir    0.02536   -0.02006   -0.02303
 27 Ru   -0.05195   -0.00468    0.18308
 28 Ir    0.13976    0.02021   -0.01765
 29 Ir   -0.15189    0.04871    0.30815
 30 Ir   -0.08584    0.04100   -0.13012
 31 Ir    0.04608    0.01649   -0.26623
 32 Pt    0.01182    0.00270    0.00857
 33 Ag    0.03624   -0.13492    0.11336
 34 Ir    0.04844   -0.06564    0.09157
 35 Ru   -0.04035   -0.04463    0.07747
 36 Ir   -0.08335   -0.07479   -0.13085
 37 Ir    0.01513   -0.30536   -0.14574
 38 Pt   -0.08404    0.00591   -0.04416
 39 Ag   -0.83915   -0.45293   -0.12869
 40 Ir   -0.55637    0.28133    1.00654
 41 Pt    0.04317   -0.07053   -0.05607
 42 Ir   -0.12737   -0.53794    1.44779
 43 Ir    0.32750    0.16989   -0.04282
 44 Ag   -0.13723    0.02312   -0.03242
 45 O     1.32035    0.86262   -2.03725

System changes: positions 

Initializing position-dependent things.

Density initialized from wave functions
                                             
                                             
                                             
                                             
                                             
                                             
                 O             Ag            
                  Ir    Ir                   
            Ag     Ir     Pt    Ru           
                  Ag                         
       Ir    IIr    IPt    Pt                
                                             
         Ru    Ir    PIr    Ag     Ir        
                Ag     Ag     Ag             
                                             
           Ir    PPt    RPt    Ir            
                                             
            Ir    IAg    AAg    Pt           
       Ag     Ir     Ir                      
             Ir     Ir     Ir                
        Ag     Ag     Ir                     
                                             
                                             
                                             
                                             
                                             

Positions:
   0 Ag     0.000000    1.621936   10.000000    ( 0.0000,  0.0000,  0.0000)
   1 Ag     2.809275    1.621936   10.000000    ( 0.0000,  0.0000,  0.0000)
   2 Ir     5.618550    1.621936   10.000000    ( 0.0000,  0.0000,  0.0000)
   3 Ir     1.404638    4.054840   10.000000    ( 0.0000,  0.0000,  0.0000)
   4 Ir     4.213913    4.054840   10.000000    ( 0.0000,  0.0000,  0.0000)
   5 Ir     7.023188    4.054840   10.000000    ( 0.0000,  0.0000,  0.0000)
   6 Ir     2.809275    6.487743   10.000000    ( 0.0000,  0.0000,  0.0000)
   7 Ag     5.618550    6.487743   10.000000    ( 0.0000,  0.0000,  0.0000)
   8 Pt     8.427826    6.487743   10.000000    ( 0.0000,  0.0000,  0.0000)
   9 Ag     0.000000    0.000000   12.293764    ( 0.0000,  0.0000,  0.0000)
  10 Ir     2.809275    0.000000   12.293764    ( 0.0000,  0.0000,  0.0000)
  11 Ir     5.618550    0.000000   12.293764    ( 0.0000,  0.0000,  0.0000)
  12 Ir     1.404638    2.432904   12.293764    ( 0.0000,  0.0000,  0.0000)
  13 Ag     4.213913    2.432904   12.293764    ( 0.0000,  0.0000,  0.0000)
  14 Ag     7.023188    2.432904   12.293764    ( 0.0000,  0.0000,  0.0000)
  15 Pt     2.809275    4.865807   12.293764    ( 0.0000,  0.0000,  0.0000)
  16 Ru     5.618550    4.865807   12.293764    ( 0.0000,  0.0000,  0.0000)
  17 Ir     8.427826    4.865807   12.293764    ( 0.0000,  0.0000,  0.0000)
  18 Ir     1.441696    0.796463   14.596735    ( 0.0000,  0.0000,  0.0000)
  19 Pt     4.195616    0.732761   14.614677    ( 0.0000,  0.0000,  0.0000)
  20 Pt     7.042179    0.798585   14.631049    ( 0.0000,  0.0000,  0.0000)
  21 Ag     2.790699    3.267321   14.611710    ( 0.0000,  0.0000,  0.0000)
  22 Ag     5.615230    3.230478   14.633204    ( 0.0000,  0.0000,  0.0000)
  23 Ag     8.465351    3.240306   14.608267    ( 0.0000,  0.0000,  0.0000)
  24 Pt     4.237802    5.674502   14.605177    ( 0.0000,  0.0000,  0.0000)
  25 Ag     7.020290    5.621811   14.589082    ( 0.0000,  0.0000,  0.0000)
  26 Ir     9.812265    5.747477   14.532598    ( 0.0000,  0.0000,  0.0000)
  27 Ru     0.084692    1.655457   16.939876    ( 0.0000,  0.0000,  0.0000)
  28 Ir     2.756567    1.629346   16.873793    ( 0.0000,  0.0000,  0.0000)
  29 Ir     5.540056    1.601616   16.913150    ( 0.0000,  0.0000,  0.0000)
  30 Ir     1.352130    4.010507   17.003126    ( 0.0000,  0.0000,  0.0000)
  31 Ir     4.201916    3.979191   16.937036    ( 0.0000,  0.0000,  0.0000)
  32 Pt     7.126299    4.056456   16.999094    ( 0.0000,  0.0000,  0.0000)
  33 Ag     2.762500    6.464361   16.811242    ( 0.0000,  0.0000,  0.0000)
  34 Ir     5.667421    6.558171   16.871132    ( 0.0000,  0.0000,  0.0000)
  35 Ru     8.396443    6.479613   16.872637    ( 0.0000,  0.0000,  0.0000)
  36 Ir     0.009389   -0.061634   18.987997    ( 0.0000,  0.0000,  0.0000)
  37 Ir     2.777843   -0.048814   18.973178    ( 0.0000,  0.0000,  0.0000)
  38 Pt     5.617452   -0.051827   19.128910    ( 0.0000,  0.0000,  0.0000)
  39 Ag     1.346048    2.389389   19.540253    ( 0.0000,  0.0000,  0.0000)
  40 Ir     4.185233    2.425014   19.096697    ( 0.0000,  0.0000,  0.0000)
  41 Pt     6.967927    2.308279   19.124169    ( 0.0000,  0.0000,  0.0000)
  42 Ir     2.910657    4.843465   19.156179    ( 0.0000,  0.0000,  0.0000)
  43 Ir     5.550383    4.963046   19.023496    ( 0.0000,  0.0000,  0.0000)
  44 Ag     8.396431    4.878279   19.533334    ( 0.0000,  0.0000,  0.0000)
  45 O      2.955881    3.304613   20.692095    ( 0.0000,  0.0000,  0.0000)

Unit cell:
           periodic     x           y           z      points  spacing
  1. axis:    yes    8.445283    0.000000    0.000000    35     0.2090
  2. axis:    yes    4.222641    7.313829    0.000000    35     0.2090
  3. axis:    no     0.000000    0.000000   29.175054   135     0.2161

  Lengths:   8.445283   8.445283  29.175054
  Angles:   90.000000  90.000000  60.000000

Effective grid spacing dv^(1/3) = 0.2217

                     log10-error:    total        iterations:
           time      wfs    density  energy       fermi  poisson
iter:   1  20:45:50  -1.87   +inf  -268.750316    4             
iter:   2  20:46:53  -1.72  -1.95  -295.458102    36            
iter:   3  20:47:54  -1.68  -1.44  -295.053694    2             
iter:   4  20:48:54  -2.49  -1.49  -265.570481    36            
iter:   5  20:49:53  -3.06  -2.19  -265.044100    3             
iter:   6  20:50:54  -3.66  -2.39  -264.821968    3             
iter:   7  20:51:57  -4.05  -2.54  -264.696415    3             
iter:   8  20:53:00  -4.14  -2.77  -264.666235    2             
iter:   9  20:54:01  -3.60  -2.81  -264.724388    2             
iter:  10  20:55:01  -4.09  -2.53  -264.700067    2             
iter:  11  20:56:00  -4.30  -2.64  -264.615166    3             
iter:  12  20:57:01  -4.93  -2.90  -264.604872    3             
iter:  13  20:58:05  -5.30  -3.07  -264.598641    3             
iter:  14  20:59:07  -5.33  -3.21  -264.599570    2             
iter:  15  21:00:08  -5.96  -3.38  -264.596949    2             
iter:  16  21:01:07  -5.26  -3.40  -264.605269    2             
iter:  17  21:02:07  -5.71  -3.22  -264.597033    2             
iter:  18  21:03:09  -5.54  -3.49  -264.598997    3             
iter:  19  21:04:12  -5.70  -3.48  -264.598335    2             
iter:  20  21:05:15  -6.25  -3.65  -264.598096    2             
iter:  21  21:06:14  -6.12  -3.70  -264.595978    2             
iter:  22  21:07:13  -6.53  -3.82  -264.597032    2             
iter:  23  21:08:13  -6.70  -3.95  -264.596092    2             
iter:  24  21:09:12  -6.75  -4.01  -264.596374    2             
iter:  25  21:10:09  -7.19  -4.17  -264.596340    2             
iter:  26  21:11:10  -7.27  -4.28  -264.596357    2             
iter:  27  21:12:12  -7.50  -4.44  -264.596150    2             

Converged after 27 iterations.

Dipole moment: (24.500285, 20.017732, -0.178755) |e|*Ang

Energy contributions relative to reference atoms: (reference = -16429278.754816)

Kinetic:       -156.634102
Potential:      +99.108823
External:        +0.000000
XC:            -199.648508
Entropy (-ST):   -2.151589
Local:           -6.346568
--------------------------
Free energy:   -265.671945
Extrapolated:  -264.596150

Fermi level: 1.26716

Showing only first 2 kpts
 Kpt  Band  Eigenvalues  Occupancy
  0   357      1.26559    0.12598
  0   358      1.29472    0.10788
  0   359      1.32989    0.08703
  0   360      1.35795    0.07186

  1   357      1.16476    0.18394
  1   358      1.19034    0.17078
  1   359      1.21234    0.15843
  1   360      1.25636    0.13174



Forces in eV/Ang:
  0 Ag   -0.41652    0.15536   -1.04907
  1 Ag    0.24549    0.22519   -0.86618
  2 Ir    0.49825   -0.17382    0.02968
  3 Ir   -0.11016    1.22769    1.38417
  4 Ir    0.41015    0.40686    0.87769
  5 Ir   -0.32728   -0.02050    1.20592
  6 Ir   -1.70950   -0.50036    0.73132
  7 Ag   -0.12414   -0.34455   -0.95401
  8 Pt    1.06395   -0.39034    0.48322
  9 Ag    0.15736   -0.00134    0.16134
 10 Ir   -0.01758   -0.40139    1.01131
 11 Ir   -0.65646   -0.77036   -0.54243
 12 Ir    0.40114    0.15261    0.18196
 13 Ag   -0.01119   -0.03411    0.16428
 14 Ag    0.04573    0.09053    0.14427
 15 Pt   -0.14058   -0.05513   -0.63358
 16 Ru    0.63213    0.46133   -1.37691
 17 Ir    0.12811    0.28522   -1.25156
 18 Ir    0.02024    0.03133    0.05711
 19 Pt    0.04339   -0.01229    0.04531
 20 Pt    0.04415   -0.02159    0.03525
 21 Ag   -0.00264   -0.00676   -0.01779
 22 Ag    0.04366   -0.06597    0.03383
 23 Ag   -0.00040   -0.00379    0.01546
 24 Pt    0.02044   -0.01728    0.06374
 25 Ag    0.00877    0.01070   -0.01002
 26 Ir    0.02504    0.02016    0.01689
 27 Ru   -0.05248   -0.08177    0.00333
 28 Ir    0.12440    0.08332    0.05889
 29 Ir   -0.23153    0.01010    0.28261
 30 Ir    0.05662    0.04557    0.02665
 31 Ir   -0.09547   -0.02202    0.44162
 32 Pt   -0.05123   -0.04668   -0.00478
 33 Ag   -0.02850   -0.23178    0.24335
 34 Ir   -0.05769   -0.01468   -0.11427
 35 Ru    0.07438   -0.03314   -0.01309
 36 Ir   -0.20611   -0.18453   -0.00527
 37 Ir    0.06748   -0.14216    0.05657
 38 Pt   -0.09605   -0.04802   -0.00899
 39 Ag   -0.66783   -0.37936   -0.10411
 40 Ir   -0.17808    0.25555    0.18067
 41 Pt   -0.19633   -0.02647    0.02546
 42 Ir    0.19125   -0.28035    0.59340
 43 Ir    0.07767    0.09376   -0.06661
 44 Ag   -0.04108   -0.02409    0.00273
 45 O     0.91844    0.66219   -1.44864

System changes: positions 

Initializing position-dependent things.

Density initialized from wave functions
                                             
                                             
                                             
                                             
                                             
                                             
                 O             Ag            
                  Ir    Ir                   
            Ag    AIr     Pt    Ru           
                                             
       Ir    IIr    IPt     Pt               
         Ru                                  
               Ir    PIr    Ag     Ir        
                Ag     Ag     Ag             
                                             
           Ir    PPt    RPt    Ir            
                                             
            Ir    IAg    AAg    Pt           
       Ag    IIr    IIr    Ir                
                                             
        Ag     Ag     Ir                     
                                             
                                             
                                             
                                             
                                             

Positions:
   0 Ag     0.000000    1.621936   10.000000    ( 0.0000,  0.0000,  0.0000)
   1 Ag     2.809275    1.621936   10.000000    ( 0.0000,  0.0000,  0.0000)
   2 Ir     5.618550    1.621936   10.000000    ( 0.0000,  0.0000,  0.0000)
   3 Ir     1.404638    4.054840   10.000000    ( 0.0000,  0.0000,  0.0000)
   4 Ir     4.213913    4.054840   10.000000    ( 0.0000,  0.0000,  0.0000)
   5 Ir     7.023188    4.054840   10.000000    ( 0.0000,  0.0000,  0.0000)
   6 Ir     2.809275    6.487743   10.000000    ( 0.0000,  0.0000,  0.0000)
   7 Ag     5.618550    6.487743   10.000000    ( 0.0000,  0.0000,  0.0000)
   8 Pt     8.427826    6.487743   10.000000    ( 0.0000,  0.0000,  0.0000)
   9 Ag     0.000000    0.000000   12.293764    ( 0.0000,  0.0000,  0.0000)
  10 Ir     2.809275    0.000000   12.293764    ( 0.0000,  0.0000,  0.0000)
  11 Ir     5.618550    0.000000   12.293764    ( 0.0000,  0.0000,  0.0000)
  12 Ir     1.404638    2.432904   12.293764    ( 0.0000,  0.0000,  0.0000)
  13 Ag     4.213913    2.432904   12.293764    ( 0.0000,  0.0000,  0.0000)
  14 Ag     7.023188    2.432904   12.293764    ( 0.0000,  0.0000,  0.0000)
  15 Pt     2.809275    4.865807   12.293764    ( 0.0000,  0.0000,  0.0000)
  16 Ru     5.618550    4.865807   12.293764    ( 0.0000,  0.0000,  0.0000)
  17 Ir     8.427826    4.865807   12.293764    ( 0.0000,  0.0000,  0.0000)
  18 Ir     1.441753    0.801809   14.600222    ( 0.0000,  0.0000,  0.0000)
  19 Pt     4.197753    0.735659   14.618148    ( 0.0000,  0.0000,  0.0000)
  20 Pt     7.049536    0.793571   14.627288    ( 0.0000,  0.0000,  0.0000)
  21 Ag     2.791824    3.267591   14.615315    ( 0.0000,  0.0000,  0.0000)
  22 Ag     5.616317    3.230339   14.636708    ( 0.0000,  0.0000,  0.0000)
  23 Ag     8.465943    3.241230   14.608604    ( 0.0000,  0.0000,  0.0000)
  24 Pt     4.238374    5.673742   14.610664    ( 0.0000,  0.0000,  0.0000)
  25 Ag     7.020291    5.618985   14.589225    ( 0.0000,  0.0000,  0.0000)
  26 Ir     9.814234    5.745920   14.530811    ( 0.0000,  0.0000,  0.0000)
  27 Ru     0.080659    1.655094   16.954088    ( 0.0000,  0.0000,  0.0000)
  28 Ir     2.767416    1.630915   16.872423    ( 0.0000,  0.0000,  0.0000)
  29 Ir     5.528265    1.605397   16.937071    ( 0.0000,  0.0000,  0.0000)
  30 Ir     1.345467    4.013689   16.993025    ( 0.0000,  0.0000,  0.0000)
  31 Ir     4.205493    3.980471   16.916369    ( 0.0000,  0.0000,  0.0000)
  32 Pt     7.127217    4.056666   16.999760    ( 0.0000,  0.0000,  0.0000)
  33 Ag     2.765313    6.453887   16.820043    ( 0.0000,  0.0000,  0.0000)
  34 Ir     5.671181    6.553075   16.878240    ( 0.0000,  0.0000,  0.0000)
  35 Ru     8.393310    6.476148   16.878650    ( 0.0000,  0.0000,  0.0000)
  36 Ir     0.002918   -0.067440   18.977840    ( 0.0000,  0.0000,  0.0000)
  37 Ir     2.779017   -0.072519   18.961864    ( 0.0000,  0.0000,  0.0000)
  38 Pt     5.610928   -0.051369   19.125483    ( 0.0000,  0.0000,  0.0000)
  39 Ag     1.280906    2.354229   19.530263    ( 0.0000,  0.0000,  0.0000)
  40 Ir     4.142043    2.446853   19.174833    ( 0.0000,  0.0000,  0.0000)
  41 Pt     6.971278    2.302804   19.119816    ( 0.0000,  0.0000,  0.0000)
  42 Ir     2.900770    4.801706   19.268568    ( 0.0000,  0.0000,  0.0000)
  43 Ir     5.575806    4.976234   19.020172    ( 0.0000,  0.0000,  0.0000)
  44 Ag     8.385778    4.880074   19.530817    ( 0.0000,  0.0000,  0.0000)
  45 O      3.058377    3.371576   20.533948    ( 0.0000,  0.0000,  0.0000)

Unit cell:
           periodic     x           y           z      points  spacing
  1. axis:    yes    8.445283    0.000000    0.000000    35     0.2090
  2. axis:    yes    4.222641    7.313829    0.000000    35     0.2090
  3. axis:    no     0.000000    0.000000   29.175054   135     0.2161

  Lengths:   8.445283   8.445283  29.175054
  Angles:   90.000000  90.000000  60.000000

Effective grid spacing dv^(1/3) = 0.2217

                     log10-error:    total        iterations:
           time      wfs    density  energy       fermi  poisson
iter:   1  21:13:43  -1.83   +inf  -274.013892    4             
iter:   2  21:14:45  -1.07  -1.72  -412.992873    37            
iter:   3  21:15:47  -1.40  -1.15  -274.454535    38            
iter:   4  21:16:49  -2.39  -1.71  -266.307731    37            
iter:   5  21:17:51  -3.11  -2.08  -265.081645    3             
iter:   6  21:18:54  -3.63  -2.40  -264.849680    3             
iter:   7  21:19:56  -4.02  -2.62  -264.806758    3             
iter:   8  21:20:58  -3.75  -2.68  -265.071134    3             
iter:   9  21:22:00  -3.86  -2.32  -264.766217    3             
iter:  10  21:23:02  -4.03  -2.75  -264.722172    3             
iter:  11  21:24:04  -4.20  -2.93  -264.703642    3             
iter:  12  21:25:06  -4.65  -3.05  -264.695797    2             
iter:  13  21:26:08  -5.11  -3.18  -264.693618    2             
iter:  14  21:27:10  -5.41  -3.29  -264.695925    2             
iter:  15  21:28:12  -5.55  -3.09  -264.697997    2             
iter:  16  21:29:14  -5.16  -3.22  -264.693058    3             
iter:  17  21:30:16  -5.72  -3.43  -264.691848    3             
iter:  18  21:31:18  -5.28  -3.42  -264.692477    3             
iter:  19  21:32:20  -5.64  -3.66  -264.692486    2             
iter:  20  21:33:22  -6.05  -3.68  -264.691929    2             
iter:  21  21:34:24  -5.92  -3.64  -264.698407    2             
iter:  22  21:35:26  -6.10  -3.29  -264.692137    2             
iter:  23  21:36:28  -5.98  -3.90  -264.691629    2             
iter:  24  21:37:30  -6.99  -4.00  -264.691922    2             
iter:  25  21:38:32  -6.61  -4.09  -264.691650    2             
iter:  26  21:39:35  -6.89  -4.28  -264.691667    2             
iter:  27  21:40:37  -7.09  -4.36  -264.691994    2             
iter:  28  21:41:39  -7.54  -4.23  -264.691496    2             

Converged after 28 iterations.

Dipole moment: (26.420147, 21.125517, -0.036484) |e|*Ang

Energy contributions relative to reference atoms: (reference = -16429278.754816)

Kinetic:       -143.043290
Potential:      +87.505332
External:        +0.000000
XC:            -201.685819
Entropy (-ST):   -2.162696
Local:           -6.386371
--------------------------
Free energy:   -265.772844
Extrapolated:  -264.691496

Fermi level: 1.34003

Showing only first 2 kpts
 Kpt  Band  Eigenvalues  Occupancy
  0   357      1.33255    0.12968
  0   358      1.37256    0.10485
  0   359      1.38529    0.09719
  0   360      1.42198    0.07647

  1   357      1.23729    0.18410
  1   358      1.26275    0.17103
  1   359      1.29088    0.15512
  1   360      1.32480    0.13450



Forces in eV/Ang:
  0 Ag   -0.41555    0.15418   -1.04892
  1 Ag    0.24224    0.22408   -0.86691
  2 Ir    0.50123   -0.16529    0.03254
  3 Ir   -0.11080    1.21807    1.38778
  4 Ir    0.40593    0.40697    0.87802
  5 Ir   -0.32637   -0.02818    1.20285
  6 Ir   -1.70013   -0.49707    0.72374
  7 Ag   -0.12861   -0.33954   -0.94728
  8 Pt    1.06441   -0.38169    0.48535
  9 Ag    0.16767   -0.01056    0.17385
 10 Ir   -0.00757   -0.40126    1.02212
 11 Ir   -0.66750   -0.77002   -0.53890
 12 Ir    0.40840    0.14891    0.19032
 13 Ag   -0.00862   -0.03409    0.17813
 14 Ag    0.03792    0.09197    0.15121
 15 Pt   -0.13347   -0.05864   -0.63785
 16 Ru    0.63199    0.46538   -1.37936
 17 Ir    0.12542    0.29265   -1.24282
 18 Ir    0.03711   -0.01106    0.07052
 19 Pt    0.05053   -0.07571    0.03839
 20 Pt   -0.02677    0.02049    0.11820
 21 Ag   -0.02816   -0.01696   -0.11233
 22 Ag    0.08136   -0.14142    0.01444
 23 Ag   -0.00346   -0.02871    0.02911
 24 Pt    0.04028   -0.00977    0.03761
 25 Ag    0.01538    0.07288   -0.01330
 26 Ir    0.01862    0.05987    0.04205
 27 Ru   -0.02858   -0.16223   -0.20096
 28 Ir    0.10078    0.14682    0.14689
 29 Ir   -0.26060    0.02119    0.10961
 30 Ir    0.23107    0.05053    0.16195
 31 Ir   -0.11884   -0.06088    0.84324
 32 Pt   -0.14908   -0.13002   -0.01739
 33 Ag   -0.10446   -0.24702    0.24971
 34 Ir   -0.21373    0.02390   -0.36093
 35 Ru    0.21201   -0.00937   -0.12669
 36 Ir   -0.32378   -0.33241    0.15967
 37 Ir    0.15578    0.10131    0.32807
 38 Pt   -0.08702   -0.08269    0.03714
 39 Ag   -0.39978   -0.27587   -0.08468
 40 Ir    1.04529   -0.73555   -1.36099
 41 Pt   -0.53467    0.03355    0.09290
 42 Ir    0.10878    1.65570   -1.38764
 43 Ir   -0.14966    0.01851   -0.14958
 44 Ag    0.08592   -0.06761    0.03918
 45 O     0.28698   -0.08575    1.26954

System changes: positions 

Initializing position-dependent things.

Density initialized from wave functions
                                             
                                             
                                             
                                             
                                             
                                             
                 O             Ag            
                  Ir    Ir                   
            Ag     Ir     Pt    Ru           
                  Ag                         
       Ir    IIr    IPt    Pt                
                                             
         Ru    Ir    PIr    Ag     Ir        
                Ag     Ag     Ag             
                                             
           Ir    PPt    RPt    Ir            
                                             
            Ir    IAg    AAg    Pt           
       Ag     Ir     Ir                      
             Ir     Ir     Ir                
        Ag     Ag     Ir                     
                                             
                                             
                                             
                                             
                                             

Positions:
   0 Ag     0.000000    1.621936   10.000000    ( 0.0000,  0.0000,  0.0000)
   1 Ag     2.809275    1.621936   10.000000    ( 0.0000,  0.0000,  0.0000)
   2 Ir     5.618550    1.621936   10.000000    ( 0.0000,  0.0000,  0.0000)
   3 Ir     1.404638    4.054840   10.000000    ( 0.0000,  0.0000,  0.0000)
   4 Ir     4.213913    4.054840   10.000000    ( 0.0000,  0.0000,  0.0000)
   5 Ir     7.023188    4.054840   10.000000    ( 0.0000,  0.0000,  0.0000)
   6 Ir     2.809275    6.487743   10.000000    ( 0.0000,  0.0000,  0.0000)
   7 Ag     5.618550    6.487743   10.000000    ( 0.0000,  0.0000,  0.0000)
   8 Pt     8.427826    6.487743   10.000000    ( 0.0000,  0.0000,  0.0000)
   9 Ag     0.000000    0.000000   12.293764    ( 0.0000,  0.0000,  0.0000)
  10 Ir     2.809275    0.000000   12.293764    ( 0.0000,  0.0000,  0.0000)
  11 Ir     5.618550    0.000000   12.293764    ( 0.0000,  0.0000,  0.0000)
  12 Ir     1.404638    2.432904   12.293764    ( 0.0000,  0.0000,  0.0000)
  13 Ag     4.213913    2.432904   12.293764    ( 0.0000,  0.0000,  0.0000)
  14 Ag     7.023188    2.432904   12.293764    ( 0.0000,  0.0000,  0.0000)
  15 Pt     2.809275    4.865807   12.293764    ( 0.0000,  0.0000,  0.0000)
  16 Ru     5.618550    4.865807   12.293764    ( 0.0000,  0.0000,  0.0000)
  17 Ir     8.427826    4.865807   12.293764    ( 0.0000,  0.0000,  0.0000)
  18 Ir     1.441724    0.799093   14.598450    ( 0.0000,  0.0000,  0.0000)
  19 Pt     4.196667    0.734186   14.616384    ( 0.0000,  0.0000,  0.0000)
  20 Pt     7.045798    0.796119   14.629199    ( 0.0000,  0.0000,  0.0000)
  21 Ag     2.791253    3.267454   14.613483    ( 0.0000,  0.0000,  0.0000)
  22 Ag     5.615765    3.230409   14.634928    ( 0.0000,  0.0000,  0.0000)
  23 Ag     8.465643    3.240760   14.608433    ( 0.0000,  0.0000,  0.0000)
  24 Pt     4.238083    5.674128   14.607876    ( 0.0000,  0.0000,  0.0000)
  25 Ag     7.020291    5.620421   14.589152    ( 0.0000,  0.0000,  0.0000)
  26 Ir     9.813233    5.746711   14.531719    ( 0.0000,  0.0000,  0.0000)
  27 Ru     0.082708    1.655278   16.946867    ( 0.0000,  0.0000,  0.0000)
  28 Ir     2.761903    1.630118   16.873119    ( 0.0000,  0.0000,  0.0000)
  29 Ir     5.534256    1.603476   16.924917    ( 0.0000,  0.0000,  0.0000)
  30 Ir     1.348853    4.012072   16.998157    ( 0.0000,  0.0000,  0.0000)
  31 Ir     4.203676    3.979821   16.926870    ( 0.0000,  0.0000,  0.0000)
  32 Pt     7.126750    4.056559   16.999422    ( 0.0000,  0.0000,  0.0000)
  33 Ag     2.763884    6.459209   16.815571    ( 0.0000,  0.0000,  0.0000)
  34 Ir     5.669271    6.555664   16.874629    ( 0.0000,  0.0000,  0.0000)
  35 Ru     8.394902    6.477909   16.875595    ( 0.0000,  0.0000,  0.0000)
  36 Ir     0.006206   -0.064490   18.983001    ( 0.0000,  0.0000,  0.0000)
  37 Ir     2.778420   -0.060475   18.967613    ( 0.0000,  0.0000,  0.0000)
  38 Pt     5.614242   -0.051602   19.127224    ( 0.0000,  0.0000,  0.0000)
  39 Ag     1.314004    2.372093   19.535339    ( 0.0000,  0.0000,  0.0000)
  40 Ir     4.163988    2.435757   19.135133    ( 0.0000,  0.0000,  0.0000)
  41 Pt     6.969575    2.305586   19.122028    ( 0.0000,  0.0000,  0.0000)
  42 Ir     2.905793    4.822924   19.211464    ( 0.0000,  0.0000,  0.0000)
  43 Ir     5.562889    4.969533   19.021861    ( 0.0000,  0.0000,  0.0000)
  44 Ag     8.391191    4.879162   19.532096    ( 0.0000,  0.0000,  0.0000)
  45 O      3.006300    3.337553   20.614301    ( 0.0000,  0.0000,  0.0000)

Unit cell:
           periodic     x           y           z      points  spacing
  1. axis:    yes    8.445283    0.000000    0.000000    35     0.2090
  2. axis:    yes    4.222641    7.313829    0.000000    35     0.2090
  3. axis:    no     0.000000    0.000000   29.175054   135     0.2161

  Lengths:   8.445283   8.445283  29.175054
  Angles:   90.000000  90.000000  60.000000

Effective grid spacing dv^(1/3) = 0.2217

                     log10-error:    total        iterations:
           time      wfs    density  energy       fermi  poisson
iter:   1  21:43:09  -2.04   +inf  -267.676912    3             
iter:   2  21:44:11  -2.09  -2.07  -287.887517    3             
iter:   3  21:45:14  -2.02  -1.51  -276.090746    3             
iter:   4  21:46:15  -2.74  -1.60  -265.471292    3             
iter:   5  21:47:18  -3.31  -2.30  -264.896077    3             
iter:   6  21:48:20  -4.18  -2.74  -264.840367    2             
iter:   7  21:49:22  -4.47  -2.88  -264.818902    2             
iter:   8  21:50:24  -4.40  -2.95  -264.800747    2             
iter:   9  21:51:27  -3.98  -3.02  -265.112084    2             
iter:  10  21:52:28  -4.10  -2.34  -264.820111    3             
iter:  11  21:53:31  -4.40  -2.81  -264.810231    3             
iter:  12  21:54:33  -4.87  -2.87  -264.781659    3             
iter:  13  21:55:34  -5.49  -3.17  -264.776152    2             
iter:  14  21:56:37  -5.98  -3.30  -264.773497    2             
iter:  15  21:57:39  -5.60  -3.44  -264.770409    2             
iter:  16  21:58:41  -6.16  -3.53  -264.773556    2             
iter:  17  21:59:43  -6.13  -3.45  -264.770347    2             
iter:  18  22:00:45  -6.00  -3.63  -264.770498    2             
iter:  19  22:01:47  -6.21  -3.71  -264.771123    2             
iter:  20  22:02:49  -6.58  -3.85  -264.771334    2             
iter:  21  22:03:52  -6.74  -3.85  -264.770400    2             
iter:  22  22:04:54  -6.92  -4.07  -264.771146    2             
iter:  23  22:05:56  -6.80  -3.90  -264.770106    2             
iter:  24  22:06:58  -7.13  -3.99  -264.770249    2             
iter:  25  22:08:00  -7.48  -4.23  -264.770339    2             

Converged after 25 iterations.

Dipole moment: (25.465323, 20.565728, -0.111347) |e|*Ang

Energy contributions relative to reference atoms: (reference = -16429278.754816)

Kinetic:       -153.498959
Potential:      +96.471966
External:        +0.000000
XC:            -200.308302
Entropy (-ST):   -2.158384
Local:           -6.355853
--------------------------
Free energy:   -265.849531
Extrapolated:  -264.770339

Fermi level: 1.30214

Showing only first 2 kpts
 Kpt  Band  Eigenvalues  Occupancy
  0   357      1.29668    0.12841
  0   358      1.33274    0.10602
  0   359      1.35855    0.09065
  0   360      1.38827    0.07427

  1   357      1.19732    0.18511
  1   358      1.22576    0.17054
  1   359      1.24802    0.15802
  1   360      1.29181    0.13145



Forces in eV/Ang:
  0 Ag   -0.41762    0.15561   -1.04950
  1 Ag    0.24502    0.22509   -0.86621
  2 Ir    0.50122   -0.17060    0.02803
  3 Ir   -0.10969    1.23130    1.39651
  4 Ir    0.40773    0.40788    0.88039
  5 Ir   -0.32707   -0.02624    1.20556
  6 Ir   -1.71258   -0.50262    0.72986
  7 Ag   -0.12661   -0.34276   -0.95199
  8 Pt    1.06998   -0.38822    0.48787
  9 Ag    0.16372   -0.00748    0.16975
 10 Ir   -0.01387   -0.40089    1.02438
 11 Ir   -0.66326   -0.77412   -0.53816
 12 Ir    0.40811    0.15190    0.19206
 13 Ag   -0.01254   -0.03431    0.17373
 14 Ag    0.04333    0.09052    0.15042
 15 Pt   -0.13836   -0.05673   -0.63196
 16 Ru    0.63104    0.46616   -1.37459
 17 Ir    0.13005    0.29106   -1.24931
 18 Ir    0.02896    0.01178    0.07479
 19 Pt    0.05627   -0.04664    0.04641
 20 Pt    0.00124    0.00508    0.08780
 21 Ag   -0.01883   -0.01522   -0.07026
 22 Ag    0.06357   -0.11043    0.03112
 23 Ag   -0.00138   -0.02178    0.02924
 24 Pt    0.02871   -0.00895    0.04688
 25 Ag    0.01115    0.04586   -0.00992
 26 Ir    0.02366    0.04981    0.02995
 27 Ru   -0.03570   -0.11691   -0.11237
 28 Ir    0.12231    0.12534    0.11430
 29 Ir   -0.26937    0.03005    0.23006
 30 Ir    0.16758    0.06124    0.11291
 31 Ir   -0.13788   -0.05523    0.72589
 32 Pt   -0.10082   -0.10122   -0.01506
 33 Ag   -0.06589   -0.26166    0.27237
 34 Ir   -0.13902    0.01742   -0.25155
 35 Ru    0.15221   -0.01692   -0.07487
 36 Ir   -0.27271   -0.27954    0.11285
 37 Ir    0.11816   -0.00368    0.22328
 38 Pt   -0.09617   -0.07355    0.03299
 39 Ag   -0.56208   -0.34961   -0.07221
 40 Ir    0.33297   -0.12690   -0.49276
 41 Pt   -0.38061    0.00996    0.07776
 42 Ir    0.20664    0.42648   -0.20816
 43 Ir   -0.03640    0.06323   -0.13062
 44 Ag    0.02452   -0.03839    0.02818
 45 O     0.66151    0.46479   -0.74615

System changes: positions 

Initializing position-dependent things.

Density initialized from wave functions
                                             
                                             
                                             
                                             
                                             
                                             
                 OIr           Ag            
                        Ir                   
            Ag    AIr     Pt    Ru           
                                             
       Ir    IIr    IPt    Pt                
         Ru    Ir     Ir                     
                     Pt     Ag     Ir        
                Ag     Ag     Ag             
                                             
           Ir    PPt    RPt    Ir            
                                             
            Ir     Ag    AAg    Pt           
       Ag    IIr    IIr    Ir                
                                             
        Ag     Ag     Ir                     
                                             
                                             
                                             
                                             
                                             

Positions:
   0 Ag     0.000000    1.621936   10.000000    ( 0.0000,  0.0000,  0.0000)
   1 Ag     2.809275    1.621936   10.000000    ( 0.0000,  0.0000,  0.0000)
   2 Ir     5.618550    1.621936   10.000000    ( 0.0000,  0.0000,  0.0000)
   3 Ir     1.404638    4.054840   10.000000    ( 0.0000,  0.0000,  0.0000)
   4 Ir     4.213913    4.054840   10.000000    ( 0.0000,  0.0000,  0.0000)
   5 Ir     7.023188    4.054840   10.000000    ( 0.0000,  0.0000,  0.0000)
   6 Ir     2.809275    6.487743   10.000000    ( 0.0000,  0.0000,  0.0000)
   7 Ag     5.618550    6.487743   10.000000    ( 0.0000,  0.0000,  0.0000)
   8 Pt     8.427826    6.487743   10.000000    ( 0.0000,  0.0000,  0.0000)
   9 Ag     0.000000    0.000000   12.293764    ( 0.0000,  0.0000,  0.0000)
  10 Ir     2.809275    0.000000   12.293764    ( 0.0000,  0.0000,  0.0000)
  11 Ir     5.618550    0.000000   12.293764    ( 0.0000,  0.0000,  0.0000)
  12 Ir     1.404638    2.432904   12.293764    ( 0.0000,  0.0000,  0.0000)
  13 Ag     4.213913    2.432904   12.293764    ( 0.0000,  0.0000,  0.0000)
  14 Ag     7.023188    2.432904   12.293764    ( 0.0000,  0.0000,  0.0000)
  15 Pt     2.809275    4.865807   12.293764    ( 0.0000,  0.0000,  0.0000)
  16 Ru     5.618550    4.865807   12.293764    ( 0.0000,  0.0000,  0.0000)
  17 Ir     8.427826    4.865807   12.293764    ( 0.0000,  0.0000,  0.0000)
  18 Ir     1.444562    0.802746   14.607348    ( 0.0000,  0.0000,  0.0000)
  19 Pt     4.203132    0.731020   14.622520    ( 0.0000,  0.0000,  0.0000)
  20 Pt     7.049373    0.794258   14.635956    ( 0.0000,  0.0000,  0.0000)
  21 Ag     2.789953    3.266103   14.608355    ( 0.0000,  0.0000,  0.0000)
  22 Ag     5.622447    3.219624   14.639594    ( 0.0000,  0.0000,  0.0000)
  23 Ag     8.465786    3.239080   14.611429    ( 0.0000,  0.0000,  0.0000)
  24 Pt     4.241139    5.672902   14.615004    ( 0.0000,  0.0000,  0.0000)
  25 Ag     7.021374    5.623545   14.588256    ( 0.0000,  0.0000,  0.0000)
  26 Ir     9.816455    5.750815   14.533787    ( 0.0000,  0.0000,  0.0000)
  27 Ru     0.077349    1.643758   16.942632    ( 0.0000,  0.0000,  0.0000)
  28 Ir     2.778871    1.643022   16.883571    ( 0.0000,  0.0000,  0.0000)
  29 Ir     5.502571    1.608169   16.958482    ( 0.0000,  0.0000,  0.0000)
  30 Ir     1.361992    4.019511   17.004375    ( 0.0000,  0.0000,  0.0000)
  31 Ir     4.191971    3.975061   16.987630    ( 0.0000,  0.0000,  0.0000)
  32 Pt     7.117394    4.046831   16.998272    ( 0.0000,  0.0000,  0.0000)
  33 Ag     2.758809    6.428891   16.846144    ( 0.0000,  0.0000,  0.0000)
  34 Ir     5.657541    6.554963   16.853548    ( 0.0000,  0.0000,  0.0000)
  35 Ru     8.408207    6.474639   16.871150    ( 0.0000,  0.0000,  0.0000)
  36 Ir    -0.023305   -0.094353   18.989186    ( 0.0000,  0.0000,  0.0000)
  37 Ir     2.790442   -0.071962   18.983975    ( 0.0000,  0.0000,  0.0000)
  38 Pt     5.601843   -0.058527   19.128817    ( 0.0000,  0.0000,  0.0000)
  39 Ag     1.228854    2.321646   19.523638    ( 0.0000,  0.0000,  0.0000)
  40 Ir     4.176031    2.433693   19.123987    ( 0.0000,  0.0000,  0.0000)
  41 Pt     6.934201    2.303982   19.127532    ( 0.0000,  0.0000,  0.0000)
  42 Ir     2.921210    4.844715   19.244030    ( 0.0000,  0.0000,  0.0000)
  43 Ir     5.571293    4.981863   19.007620    ( 0.0000,  0.0000,  0.0000)
  44 Ag     8.388570    4.876278   19.533650    ( 0.0000,  0.0000,  0.0000)
  45 O      3.118642    3.414114   20.467612    ( 0.0000,  0.0000,  0.0000)

Unit cell:
           periodic     x           y           z      points  spacing
  1. axis:    yes    8.445283    0.000000    0.000000    35     0.2090
  2. axis:    yes    4.222641    7.313829    0.000000    35     0.2090
  3. axis:    no     0.000000    0.000000   29.175054   135     0.2161

  Lengths:   8.445283   8.445283  29.175054
  Angles:   90.000000  90.000000  60.000000

Effective grid spacing dv^(1/3) = 0.2217

                     log10-error:    total        iterations:
           time      wfs    density  energy       fermi  poisson
iter:   1  22:09:29  -1.79   +inf  -289.817758    3             
iter:   2  22:10:31  -0.16  -1.50  -632.973488    36            
iter:   3  22:11:33  -0.98  -0.93  -276.690279    39            
iter:   4  22:12:34  -1.96  -1.67  -265.414014    29            
iter:   5  22:13:36  -3.05  -2.39  -265.783559    2             
iter:   6  22:14:38  -3.34  -2.16  -265.443431    3             
iter:   7  22:15:40  -3.82  -2.27  -264.980311    3             
iter:   8  22:16:42  -3.98  -2.65  -264.930168    3             
iter:   9  22:17:43  -4.28  -2.70  -264.902923    3             
iter:  10  22:18:45  -4.35  -2.82  -264.888451    3             
iter:  11  22:19:47  -4.19  -2.85  -264.938412    3             
iter:  12  22:20:49  -4.49  -2.69  -264.903105    3             
iter:  13  22:21:51  -4.57  -2.74  -264.863035    3             
iter:  14  22:22:52  -5.07  -3.15  -264.861089    2             
iter:  15  22:23:54  -5.39  -3.20  -264.860217    3             
iter:  16  22:24:56  -5.20  -3.24  -264.858560    3             
iter:  17  22:25:58  -5.47  -3.27  -264.865165    2             
iter:  18  22:26:59  -5.56  -3.22  -264.859499    2             
iter:  19  22:28:02  -5.71  -3.19  -264.857798    2             
iter:  20  22:29:04  -5.58  -3.55  -264.858548    2             
iter:  21  22:30:05  -5.95  -3.61  -264.858364    2             
iter:  22  22:31:07  -6.15  -3.69  -264.857996    2             
iter:  23  22:32:09  -6.20  -3.77  -264.860416    2             
iter:  24  22:33:11  -5.92  -3.51  -264.857675    2             
iter:  25  22:34:13  -6.26  -3.49  -264.857756    2             
iter:  26  22:35:14  -6.69  -3.96  -264.858032    2             
iter:  27  22:36:16  -6.80  -3.89  -264.857820    2             
iter:  28  22:37:18  -7.13  -3.99  -264.857666    2             
iter:  29  22:38:19  -7.14  -4.07  -264.857934    2             
iter:  30  22:39:22  -6.92  -3.98  -264.857125    2             
iter:  31  22:40:23  -7.40  -4.10  -264.857512    2             
iter:  32  22:41:25  -7.75  -4.29  -264.857616    2             

Converged after 32 iterations.

Dipole moment: (29.494374, 22.279750, -0.023858) |e|*Ang

Energy contributions relative to reference atoms: (reference = -16429278.754816)

Kinetic:       -137.422454
Potential:      +82.621844
External:        +0.000000
XC:            -202.571610
Entropy (-ST):   -2.145887
Local:           -6.412452
--------------------------
Free energy:   -265.930559
Extrapolated:  -264.857616

Fermi level: 1.34902

Showing only first 2 kpts
 Kpt  Band  Eigenvalues  Occupancy
  0   357      1.34345    0.12848
  0   358      1.37797    0.10703
  0   359      1.40258    0.09230
  0   360      1.42397    0.08023

  1   357      1.24779    0.18337
  1   358      1.27363    0.17001
  1   359      1.30097    0.15446
  1   360      1.34227    0.12922



Forces in eV/Ang:
  0 Ag   -0.41447    0.15309   -1.04489
  1 Ag    0.24311    0.22181   -0.86386
  2 Ir    0.49733   -0.17081    0.03449
  3 Ir   -0.11231    1.22895    1.39360
  4 Ir    0.40815    0.40770    0.88068
  5 Ir   -0.32677   -0.02639    1.21134
  6 Ir   -1.70632   -0.50089    0.73735
  7 Ag   -0.12795   -0.33892   -0.94529
  8 Pt    1.06253   -0.38376    0.48320
  9 Ag    0.16721   -0.00336    0.20387
 10 Ir   -0.01172   -0.38340    1.02969
 11 Ir   -0.65761   -0.77055   -0.52343
 12 Ir    0.40428    0.15530    0.16617
 13 Ag   -0.00399   -0.04076    0.19467
 14 Ag    0.04811    0.07953    0.16264
 15 Pt   -0.12321   -0.04800   -0.60507
 16 Ru    0.62636    0.46215   -1.35032
 17 Ir    0.14118    0.28716   -1.22757
 18 Ir    0.02628   -0.00962    0.06062
 19 Pt   -0.00552    0.00369    0.02042
 20 Pt   -0.00042   -0.07454    0.16086
 21 Ag    0.07703    0.04367    0.07036
 22 Ag   -0.06042   -0.01525    0.14730
 23 Ag    0.02510    0.01661    0.05585
 24 Pt   -0.03065   -0.03162    0.02847
 25 Ag    0.01289   -0.01387   -0.00372
 26 Ir    0.05157    0.01515    0.05011
 27 Ru   -0.04507   -0.10402   -0.10453
 28 Ir   -0.16306   -0.05020    0.07601
 29 Ir    0.10741   -0.17067   -0.27912
 30 Ir   -0.05828   -0.10443    0.11283
 31 Ir   -0.01521    0.03429   -0.33591
 32 Pt    0.04618   -0.04872   -0.00768
 33 Ag   -0.07412    0.04938   -0.14685
 34 Ir    0.02270    0.14036    0.16042
 35 Ru   -0.05863   -0.03694   -0.04441
 36 Ir   -0.08133   -0.05838    0.04369
 37 Ir   -0.10896   -0.03331   -0.12692
 38 Pt   -0.05383   -0.11792    0.14052
 39 Ag   -0.00727   -0.06607   -0.00089
 40 Ir    0.56769   -0.75177   -0.56006
 41 Pt   -0.23112    0.06470    0.10072
 42 Ir   -0.28595    1.50601   -1.18877
 43 Ir    0.27340    0.07617    0.08191
 44 Ag    0.03627   -0.11373    0.01102
 45 O    -0.17446   -0.59082    1.90568

System changes: positions 

Initializing position-dependent things.

Density initialized from wave functions
                                             
                                             
                                             
                                             
                                             
                                             
                 O             Ag            
                  Ir    Ir                   
            Ag    AIr     Pt    Ru           
                                             
       Ir    IIr    IPt    Pt                
         Ru           Ir                     
               Ir    Pt     Ag     Ir        
                Ag     Ag     Ag             
                                             
           Ir    PPt    RPt    Ir            
                                             
            Ir    IAg    AAg    Pt           
       Ag    IIr    IIr    Ir                
                                             
        Ag     Ag     Ir                     
                                             
                                             
                                             
                                             
                                             

Positions:
   0 Ag     0.000000    1.621936   10.000000    ( 0.0000,  0.0000,  0.0000)
   1 Ag     2.809275    1.621936   10.000000    ( 0.0000,  0.0000,  0.0000)
   2 Ir     5.618550    1.621936   10.000000    ( 0.0000,  0.0000,  0.0000)
   3 Ir     1.404638    4.054840   10.000000    ( 0.0000,  0.0000,  0.0000)
   4 Ir     4.213913    4.054840   10.000000    ( 0.0000,  0.0000,  0.0000)
   5 Ir     7.023188    4.054840   10.000000    ( 0.0000,  0.0000,  0.0000)
   6 Ir     2.809275    6.487743   10.000000    ( 0.0000,  0.0000,  0.0000)
   7 Ag     5.618550    6.487743   10.000000    ( 0.0000,  0.0000,  0.0000)
   8 Pt     8.427826    6.487743   10.000000    ( 0.0000,  0.0000,  0.0000)
   9 Ag     0.000000    0.000000   12.293764    ( 0.0000,  0.0000,  0.0000)
  10 Ir     2.809275    0.000000   12.293764    ( 0.0000,  0.0000,  0.0000)
  11 Ir     5.618550    0.000000   12.293764    ( 0.0000,  0.0000,  0.0000)
  12 Ir     1.404638    2.432904   12.293764    ( 0.0000,  0.0000,  0.0000)
  13 Ag     4.213913    2.432904   12.293764    ( 0.0000,  0.0000,  0.0000)
  14 Ag     7.023188    2.432904   12.293764    ( 0.0000,  0.0000,  0.0000)
  15 Pt     2.809275    4.865807   12.293764    ( 0.0000,  0.0000,  0.0000)
  16 Ru     5.618550    4.865807   12.293764    ( 0.0000,  0.0000,  0.0000)
  17 Ir     8.427826    4.865807   12.293764    ( 0.0000,  0.0000,  0.0000)
  18 Ir     1.443287    0.801105   14.603350    ( 0.0000,  0.0000,  0.0000)
  19 Pt     4.200228    0.732443   14.619763    ( 0.0000,  0.0000,  0.0000)
  20 Pt     7.047767    0.795094   14.632920    ( 0.0000,  0.0000,  0.0000)
  21 Ag     2.790537    3.266710   14.610659    ( 0.0000,  0.0000,  0.0000)
  22 Ag     5.619445    3.224470   14.637497    ( 0.0000,  0.0000,  0.0000)
  23 Ag     8.465722    3.239835   14.610083    ( 0.0000,  0.0000,  0.0000)
  24 Pt     4.239766    5.673453   14.611802    ( 0.0000,  0.0000,  0.0000)
  25 Ag     7.020887    5.622141   14.588659    ( 0.0000,  0.0000,  0.0000)
  26 Ir     9.815007    5.748971   14.532858    ( 0.0000,  0.0000,  0.0000)
  27 Ru     0.079757    1.648934   16.944535    ( 0.0000,  0.0000,  0.0000)
  28 Ir     2.771248    1.637225   16.878876    ( 0.0000,  0.0000,  0.0000)
  29 Ir     5.516806    1.606061   16.943402    ( 0.0000,  0.0000,  0.0000)
  30 Ir     1.356089    4.016169   17.001581    ( 0.0000,  0.0000,  0.0000)
  31 Ir     4.197230    3.977199   16.960332    ( 0.0000,  0.0000,  0.0000)
  32 Pt     7.121597    4.051202   16.998788    ( 0.0000,  0.0000,  0.0000)
  33 Ag     2.761089    6.442512   16.832408    ( 0.0000,  0.0000,  0.0000)
  34 Ir     5.662811    6.555278   16.863019    ( 0.0000,  0.0000,  0.0000)
  35 Ru     8.402229    6.476108   16.873147    ( 0.0000,  0.0000,  0.0000)
  36 Ir    -0.010047   -0.080936   18.986407    ( 0.0000,  0.0000,  0.0000)
  37 Ir     2.785041   -0.066801   18.976624    ( 0.0000,  0.0000,  0.0000)
  38 Pt     5.607414   -0.055416   19.128102    ( 0.0000,  0.0000,  0.0000)
  39 Ag     1.267110    2.344311   19.528895    ( 0.0000,  0.0000,  0.0000)
  40 Ir     4.170620    2.434620   19.128995    ( 0.0000,  0.0000,  0.0000)
  41 Pt     6.950094    2.304703   19.125059    ( 0.0000,  0.0000,  0.0000)
  42 Ir     2.914284    4.834925   19.229399    ( 0.0000,  0.0000,  0.0000)
  43 Ir     5.567517    4.976323   19.014018    ( 0.0000,  0.0000,  0.0000)
  44 Ag     8.389747    4.877574   19.532952    ( 0.0000,  0.0000,  0.0000)
  45 O      3.068170    3.379717   20.533515    ( 0.0000,  0.0000,  0.0000)

Unit cell:
           periodic     x           y           z      points  spacing
  1. axis:    yes    8.445283    0.000000    0.000000    35     0.2090
  2. axis:    yes    4.222641    7.313829    0.000000    35     0.2090
  3. axis:    no     0.000000    0.000000   29.175054   135     0.2161

  Lengths:   8.445283   8.445283  29.175054
  Angles:   90.000000  90.000000  60.000000

Effective grid spacing dv^(1/3) = 0.2217

                     log10-error:    total        iterations:
           time      wfs    density  energy       fermi  poisson
iter:   1  22:42:54  -2.09   +inf  -276.435073    3             
iter:   2  22:43:56  -0.81  -1.63  -497.146405    37            
iter:   3  22:44:58  -1.35  -1.07  -270.923301    38            
iter:   4  22:45:59  -2.31  -1.79  -265.143256    4             
iter:   5  22:47:01  -3.38  -2.49  -265.052389    3             
iter:   6  22:48:03  -4.04  -2.61  -264.962363    3             
iter:   7  22:49:05  -4.53  -2.87  -264.949477    3             
iter:   8  22:50:07  -4.42  -2.94  -264.934538    3             
iter:   9  22:51:09  -4.59  -3.11  -264.935047    3             
iter:  10  22:52:10  -4.74  -3.14  -264.980170    2             
iter:  11  22:53:12  -4.67  -2.69  -264.929292    3             
iter:  12  22:54:14  -5.05  -3.28  -264.928341    2             
iter:  13  22:55:15  -5.56  -3.32  -264.926760    3             
iter:  14  22:56:17  -6.02  -3.38  -264.924131    2             
iter:  15  22:57:18  -6.19  -3.57  -264.924113    2             
iter:  16  22:58:20  -5.54  -3.59  -264.922245    2             
iter:  17  22:59:22  -6.35  -3.67  -264.924298    2             
iter:  18  23:00:24  -6.37  -3.63  -264.922726    2             
iter:  19  23:01:26  -6.63  -4.02  -264.922771    2             
iter:  20  23:02:28  -6.69  -4.05  -264.922505    2             
iter:  21  23:03:29  -7.27  -4.13  -264.922760    2             
iter:  22  23:04:31  -7.23  -4.30  -264.922577    2             
iter:  23  23:05:33  -7.29  -4.22  -264.923150    2             
iter:  24  23:06:36  -7.36  -4.13  -264.922642    2             
iter:  25  23:07:38  -7.88  -4.40  -264.922622    2             

Converged after 25 iterations.

Dipole moment: (27.718405, 21.517203, -0.064271) |e|*Ang

Energy contributions relative to reference atoms: (reference = -16429278.754816)

Kinetic:       -145.848045
Potential:      +89.809398
External:        +0.000000
XC:            -201.421915
Entropy (-ST):   -2.152395
Local:           -6.385862
--------------------------
Free energy:   -265.998819
Extrapolated:  -264.922622

Fermi level: 1.32735

Showing only first 2 kpts
 Kpt  Band  Eigenvalues  Occupancy
  0   357      1.32297    0.12773
  0   358      1.35577    0.10735
  0   359      1.38268    0.09127
  0   360      1.40648    0.07797

  1   357      1.22515    0.18384
  1   358      1.25049    0.17080
  1   359      1.27630    0.15623
  1   360      1.31873    0.13039



Forces in eV/Ang:
  0 Ag   -0.41843    0.15656   -1.04270
  1 Ag    0.24681    0.22435   -0.85997
  2 Ir    0.49789   -0.17017    0.03501
  3 Ir   -0.11098    1.23734    1.39752
  4 Ir    0.40917    0.40807    0.88320
  5 Ir   -0.32863   -0.02452    1.21346
  6 Ir   -1.71650   -0.50630    0.73727
  7 Ag   -0.12573   -0.34541   -0.94265
  8 Pt    1.07182   -0.38897    0.48877
  9 Ag    0.16527   -0.00711    0.19237
 10 Ir   -0.01071   -0.39472    1.02840
 11 Ir   -0.66020   -0.77768   -0.53476
 12 Ir    0.40489    0.15594    0.17655
 13 Ag   -0.00792   -0.03744    0.18202
 14 Ag    0.04640    0.08615    0.15285
 15 Pt   -0.13439   -0.05001   -0.62562
 16 Ru    0.62839    0.46542   -1.36590
 17 Ir    0.13854    0.29096   -1.24459
 18 Ir    0.02949    0.00041    0.06049
 19 Pt    0.02011   -0.01809    0.02705
 20 Pt   -0.00021   -0.04317    0.12860
 21 Ag    0.03764    0.01947    0.00578
 22 Ag   -0.01294   -0.05312    0.10237
 23 Ag    0.01639    0.00106    0.04331
 24 Pt   -0.00664   -0.02735    0.03867
 25 Ag    0.01304    0.01396   -0.00970
 26 Ir    0.04153    0.03015    0.03634
 27 Ru   -0.03890   -0.10908   -0.10293
 28 Ir   -0.04594    0.01089    0.08094
 29 Ir   -0.04958   -0.09120   -0.06661
 30 Ir    0.02507   -0.03032    0.09753
 31 Ir   -0.06685   -0.00435    0.11408
 32 Pt   -0.00493   -0.06752   -0.02068
 33 Ag   -0.07016   -0.08078    0.02538
 34 Ir   -0.03186    0.09793   -0.01625
 35 Ru    0.02409   -0.03163   -0.06317
 36 Ir   -0.15589   -0.14624    0.06275
 37 Ir   -0.02765   -0.03048    0.00467
 38 Pt   -0.07750   -0.10463    0.08857
 39 Ag   -0.21961   -0.17293   -0.01881
 40 Ir    0.40043   -0.39203   -0.48230
 41 Pt   -0.28278    0.03909    0.08452
 42 Ir   -0.03232    0.83722   -0.62221
 43 Ir    0.14897    0.08250   -0.01527
 44 Ag    0.03196   -0.08068    0.00799
 45 O     0.36501    0.06402    0.44440

System changes: positions 

Initializing position-dependent things.

Density initialized from wave functions
                                             
                                             
                                             
                                             
                                             
                                             
                 O             Ag            
                  Ir    Ir                   
            Ag    AIr     Pt    Ru           
                                             
       Ir    IIr    IPt    Pt                
         Ru           Ir                     
               Ir    Pt     Ag     Ir        
                Ag     Ag     Ag             
                                             
           Ir    PPt    RPt    Ir            
                                             
            Ir     Ag    AAg    Pt           
       Ag    IIr    IIr    Ir                
                                             
        Ag     Ag     Ir                     
                                             
                                             
                                             
                                             
                                             

Positions:
   0 Ag     0.000000    1.621936   10.000000    ( 0.0000,  0.0000,  0.0000)
   1 Ag     2.809275    1.621936   10.000000    ( 0.0000,  0.0000,  0.0000)
   2 Ir     5.618550    1.621936   10.000000    ( 0.0000,  0.0000,  0.0000)
   3 Ir     1.404638    4.054840   10.000000    ( 0.0000,  0.0000,  0.0000)
   4 Ir     4.213913    4.054840   10.000000    ( 0.0000,  0.0000,  0.0000)
   5 Ir     7.023188    4.054840   10.000000    ( 0.0000,  0.0000,  0.0000)
   6 Ir     2.809275    6.487743   10.000000    ( 0.0000,  0.0000,  0.0000)
   7 Ag     5.618550    6.487743   10.000000    ( 0.0000,  0.0000,  0.0000)
   8 Pt     8.427826    6.487743   10.000000    ( 0.0000,  0.0000,  0.0000)
   9 Ag     0.000000    0.000000   12.293764    ( 0.0000,  0.0000,  0.0000)
  10 Ir     2.809275    0.000000   12.293764    ( 0.0000,  0.0000,  0.0000)
  11 Ir     5.618550    0.000000   12.293764    ( 0.0000,  0.0000,  0.0000)
  12 Ir     1.404638    2.432904   12.293764    ( 0.0000,  0.0000,  0.0000)
  13 Ag     4.213913    2.432904   12.293764    ( 0.0000,  0.0000,  0.0000)
  14 Ag     7.023188    2.432904   12.293764    ( 0.0000,  0.0000,  0.0000)
  15 Pt     2.809275    4.865807   12.293764    ( 0.0000,  0.0000,  0.0000)
  16 Ru     5.618550    4.865807   12.293764    ( 0.0000,  0.0000,  0.0000)
  17 Ir     8.427826    4.865807   12.293764    ( 0.0000,  0.0000,  0.0000)
  18 Ir     1.447161    0.802982   14.612573    ( 0.0000,  0.0000,  0.0000)
  19 Pt     4.204085    0.730520   14.624679    ( 0.0000,  0.0000,  0.0000)
  20 Pt     7.050028    0.788644   14.647977    ( 0.0000,  0.0000,  0.0000)
  21 Ag     2.794936    3.268804   14.611343    ( 0.0000,  0.0000,  0.0000)
  22 Ag     5.619276    3.216574   14.650881    ( 0.0000,  0.0000,  0.0000)
  23 Ag     8.467775    3.239902   14.615642    ( 0.0000,  0.0000,  0.0000)
  24 Pt     4.239623    5.669922   14.618687    ( 0.0000,  0.0000,  0.0000)
  25 Ag     7.022567    5.623597   14.587429    ( 0.0000,  0.0000,  0.0000)
  26 Ir     9.820777    5.752749   14.536970    ( 0.0000,  0.0000,  0.0000)
  27 Ru     0.073467    1.634406   16.935277    ( 0.0000,  0.0000,  0.0000)
  28 Ir     2.771190    1.640918   16.889579    ( 0.0000,  0.0000,  0.0000)
  29 Ir     5.503255    1.597163   16.946662    ( 0.0000,  0.0000,  0.0000)
  30 Ir     1.359541    4.014603   17.011490    ( 0.0000,  0.0000,  0.0000)
  31 Ir     4.188465    3.976231   16.978444    ( 0.0000,  0.0000,  0.0000)
  32 Pt     7.119740    4.041894   16.996371    ( 0.0000,  0.0000,  0.0000)
  33 Ag     2.752828    6.425884   16.842291    ( 0.0000,  0.0000,  0.0000)
  34 Ir     5.658125    6.565287   16.859414    ( 0.0000,  0.0000,  0.0000)
  35 Ru     8.406416    6.471126   16.866540    ( 0.0000,  0.0000,  0.0000)
  36 Ir    -0.034287   -0.103963   18.992281    ( 0.0000,  0.0000,  0.0000)
  37 Ir     2.784050   -0.077678   18.977155    ( 0.0000,  0.0000,  0.0000)
  38 Pt     5.594959   -0.068500   19.137786    ( 0.0000,  0.0000,  0.0000)
  39 Ag     1.212935    2.308069   19.522522    ( 0.0000,  0.0000,  0.0000)
  40 Ir     4.208737    2.394106   19.089700    ( 0.0000,  0.0000,  0.0000)
  41 Pt     6.912548    2.307685   19.134689    ( 0.0000,  0.0000,  0.0000)
  42 Ir     2.910725    4.925371   19.188932    ( 0.0000,  0.0000,  0.0000)
  43 Ir     5.591981    4.990896   19.009196    ( 0.0000,  0.0000,  0.0000)
  44 Ag     8.390538    4.868213   19.533538    ( 0.0000,  0.0000,  0.0000)
  45 O      3.152188    3.414973   20.524495    ( 0.0000,  0.0000,  0.0000)

Unit cell:
           periodic     x           y           z      points  spacing
  1. axis:    yes    8.445283    0.000000    0.000000    35     0.2090
  2. axis:    yes    4.222641    7.313829    0.000000    35     0.2090
  3. axis:    no     0.000000    0.000000   29.175054   135     0.2161

  Lengths:   8.445283   8.445283  29.175054
  Angles:   90.000000  90.000000  60.000000

Effective grid spacing dv^(1/3) = 0.2217

                     log10-error:    total        iterations:
           time      wfs    density  energy       fermi  poisson
iter:   1  23:09:08  -1.90   +inf  -273.918157    3             
iter:   2  23:10:10  -0.97  -1.69  -469.044902    37            
iter:   3  23:11:12  -1.59  -1.08  -274.842245    37            
iter:   4  23:12:14  -2.31  -1.68  -265.571192    32            
iter:   5  23:13:16  -3.21  -2.28  -265.186523    3             
iter:   6  23:14:18  -3.99  -2.51  -265.061390    3             
iter:   7  23:15:21  -4.04  -2.77  -265.023706    3             
iter:   8  23:16:22  -4.20  -2.90  -265.023289    3             
iter:   9  23:17:24  -4.42  -2.86  -265.002192    3             
iter:  10  23:18:27  -4.43  -3.03  -265.023662    3             
iter:  11  23:19:28  -4.58  -2.79  -265.018062    3             
iter:  12  23:20:30  -4.97  -2.88  -264.987614    2             
iter:  13  23:21:31  -5.44  -3.37  -264.986163    2             
iter:  14  23:22:31  -5.83  -3.38  -264.986546    2             
iter:  15  23:23:32  -5.40  -3.46  -264.985606    3             
iter:  16  23:24:34  -5.41  -3.43  -264.986122    2             
iter:  17  23:25:36  -5.64  -3.33  -264.991506    2             
iter:  18  23:26:37  -5.86  -3.30  -264.985281    2             
iter:  19  23:27:39  -6.28  -3.73  -264.985083    2             
iter:  20  23:28:41  -5.97  -3.86  -264.986190    2             
iter:  21  23:29:43  -6.70  -3.77  -264.985122    2             
iter:  22  23:30:44  -6.75  -4.07  -264.984939    2             
iter:  23  23:31:46  -6.61  -4.10  -264.985694    2             
iter:  24  23:32:48  -7.19  -3.91  -264.984955    2             
iter:  25  23:33:50  -7.17  -4.31  -264.984893    2             
iter:  26  23:34:52  -7.54  -4.41  -264.985013    2             

Converged after 26 iterations.

Dipole moment: (33.441456, 23.341185, -0.097778) |e|*Ang

Energy contributions relative to reference atoms: (reference = -16429278.754816)

Kinetic:       -144.612431
Potential:      +88.587946
External:        +0.000000
XC:            -201.529873
Entropy (-ST):   -2.134073
Local:           -6.363618
--------------------------
Free energy:   -266.052049
Extrapolated:  -264.985013

Fermi level: 1.31057

Showing only first 2 kpts
 Kpt  Band  Eigenvalues  Occupancy
  0   357      1.30108    0.13093
  0   358      1.33499    0.10981
  0   359      1.36773    0.09022
  0   360      1.38567    0.08015

  1   357      1.20860    0.18373
  1   358      1.23467    0.17028
  1   359      1.25757    0.15737
  1   360      1.30408    0.12906



Forces in eV/Ang:
  0 Ag   -0.41805    0.15609   -1.04634
  1 Ag    0.24585    0.22386   -0.86274
  2 Ir    0.49702   -0.17682    0.03382
  3 Ir   -0.11428    1.23820    1.39873
  4 Ir    0.41335    0.41155    0.87972
  5 Ir   -0.33091   -0.02263    1.21667
  6 Ir   -1.71738   -0.50648    0.73873
  7 Ag   -0.12780   -0.34557   -0.94760
  8 Pt    1.06721   -0.38920    0.47969
  9 Ag    0.16438   -0.00306    0.23403
 10 Ir   -0.01601   -0.37785    1.05027
 11 Ir   -0.64795   -0.77222   -0.51085
 12 Ir    0.40650    0.16172    0.18040
 13 Ag    0.00299   -0.03740    0.20521
 14 Ag    0.04505    0.07367    0.21026
 15 Pt   -0.12188   -0.04446   -0.60882
 16 Ru    0.62980    0.45014   -1.32619
 17 Ir    0.14886    0.27968   -1.23266
 18 Ir    0.00946   -0.00237    0.00353
 19 Pt   -0.03421   -0.00356   -0.02626
 20 Pt    0.02935   -0.02099    0.02609
 21 Ag    0.00499   -0.00133    0.03319
 22 Ag    0.00515    0.00256    0.02666
 23 Ag    0.01704   -0.00399   -0.00084
 24 Pt    0.01550    0.00826   -0.01305
 25 Ag   -0.01202   -0.02350   -0.00044
 26 Ir   -0.00417   -0.00952   -0.02674
 27 Ru   -0.06341    0.00225   -0.07593
 28 Ir   -0.09403    0.01364    0.04330
 29 Ir    0.16976   -0.14167   -0.27696
 30 Ir   -0.04534   -0.09821    0.11739
 31 Ir    0.00303   -0.00985   -0.04461
 32 Pt    0.03468   -0.02801    0.01253
 33 Ag   -0.06652    0.13183   -0.22390
 34 Ir   -0.03145   -0.00206    0.03534
 35 Ru   -0.09345   -0.04686   -0.03152
 36 Ir    0.04184    0.16545    0.00409
 37 Ir    0.00402    0.07214    0.01792
 38 Pt   -0.00612   -0.03490    0.07025
 39 Ag    0.30615    0.11749    0.10529
 40 Ir   -0.45008    0.14231    0.42547
 41 Pt   -0.05931    0.05376    0.05688
 42 Ir    0.05967   -0.58186    0.26464
 43 Ir   -0.03093   -0.11654    0.01480
 44 Ag    0.04522   -0.11605    0.02255
 45 O    -0.05052    0.12144   -0.65723

System changes: positions 

Initializing position-dependent things.

Density initialized from wave functions
                                             
                                             
                                             
                                             
                                             
                                             
                 O             Ag            
                  Ir    Ir                   
            Ag    AIr     Pt    Ru           
                                             
       Ir    IIr    IPt    Pt                
         Ru           Ir                     
               Ir    Pt     Ag     Ir        
                Ag     Ag     Ag             
                                             
           Ir    PPt    RPt    Ir            
                                             
            Ir     Ag    AAg    Pt           
       Ag    IIr    IIr    Ir                
                                             
        Ag     Ag     Ir                     
                                             
                                             
                                             
                                             
                                             

Positions:
   0 Ag     0.000000    1.621936   10.000000    ( 0.0000,  0.0000,  0.0000)
   1 Ag     2.809275    1.621936   10.000000    ( 0.0000,  0.0000,  0.0000)
   2 Ir     5.618550    1.621936   10.000000    ( 0.0000,  0.0000,  0.0000)
   3 Ir     1.404638    4.054840   10.000000    ( 0.0000,  0.0000,  0.0000)
   4 Ir     4.213913    4.054840   10.000000    ( 0.0000,  0.0000,  0.0000)
   5 Ir     7.023188    4.054840   10.000000    ( 0.0000,  0.0000,  0.0000)
   6 Ir     2.809275    6.487743   10.000000    ( 0.0000,  0.0000,  0.0000)
   7 Ag     5.618550    6.487743   10.000000    ( 0.0000,  0.0000,  0.0000)
   8 Pt     8.427826    6.487743   10.000000    ( 0.0000,  0.0000,  0.0000)
   9 Ag     0.000000    0.000000   12.293764    ( 0.0000,  0.0000,  0.0000)
  10 Ir     2.809275    0.000000   12.293764    ( 0.0000,  0.0000,  0.0000)
  11 Ir     5.618550    0.000000   12.293764    ( 0.0000,  0.0000,  0.0000)
  12 Ir     1.404638    2.432904   12.293764    ( 0.0000,  0.0000,  0.0000)
  13 Ag     4.213913    2.432904   12.293764    ( 0.0000,  0.0000,  0.0000)
  14 Ag     7.023188    2.432904   12.293764    ( 0.0000,  0.0000,  0.0000)
  15 Pt     2.809275    4.865807   12.293764    ( 0.0000,  0.0000,  0.0000)
  16 Ru     5.618550    4.865807   12.293764    ( 0.0000,  0.0000,  0.0000)
  17 Ir     8.427826    4.865807   12.293764    ( 0.0000,  0.0000,  0.0000)
  18 Ir     1.445749    0.802298   14.609211    ( 0.0000,  0.0000,  0.0000)
  19 Pt     4.202679    0.731221   14.622887    ( 0.0000,  0.0000,  0.0000)
  20 Pt     7.049204    0.790996   14.642488    ( 0.0000,  0.0000,  0.0000)
  21 Ag     2.793332    3.268041   14.611094    ( 0.0000,  0.0000,  0.0000)
  22 Ag     5.619337    3.219452   14.646002    ( 0.0000,  0.0000,  0.0000)
  23 Ag     8.467026    3.239878   14.613616    ( 0.0000,  0.0000,  0.0000)
  24 Pt     4.239675    5.671209   14.616177    ( 0.0000,  0.0000,  0.0000)
  25 Ag     7.021955    5.623066   14.587877    ( 0.0000,  0.0000,  0.0000)
  26 Ir     9.818674    5.751372   14.535471    ( 0.0000,  0.0000,  0.0000)
  27 Ru     0.075760    1.639703   16.938652    ( 0.0000,  0.0000,  0.0000)
  28 Ir     2.771211    1.639571   16.885677    ( 0.0000,  0.0000,  0.0000)
  29 Ir     5.508195    1.600407   16.945474    ( 0.0000,  0.0000,  0.0000)
  30 Ir     1.358282    4.015174   17.007878    ( 0.0000,  0.0000,  0.0000)
  31 Ir     4.191661    3.976584   16.971841    ( 0.0000,  0.0000,  0.0000)
  32 Pt     7.120417    4.045287   16.997253    ( 0.0000,  0.0000,  0.0000)
  33 Ag     2.755840    6.431946   16.838688    ( 0.0000,  0.0000,  0.0000)
  34 Ir     5.659833    6.561638   16.860728    ( 0.0000,  0.0000,  0.0000)
  35 Ru     8.404890    6.472942   16.868949    ( 0.0000,  0.0000,  0.0000)
  36 Ir    -0.025450   -0.095568   18.990140    ( 0.0000,  0.0000,  0.0000)
  37 Ir     2.784411   -0.073713   18.976961    ( 0.0000,  0.0000,  0.0000)
  38 Pt     5.599499   -0.063730   19.134255    ( 0.0000,  0.0000,  0.0000)
  39 Ag     1.232685    2.321281   19.524845    ( 0.0000,  0.0000,  0.0000)
  40 Ir     4.194841    2.408876   19.104025    ( 0.0000,  0.0000,  0.0000)
  41 Pt     6.926236    2.306598   19.131178    ( 0.0000,  0.0000,  0.0000)
  42 Ir     2.912022    4.892398   19.203685    ( 0.0000,  0.0000,  0.0000)
  43 Ir     5.583062    4.985583   19.010954    ( 0.0000,  0.0000,  0.0000)
  44 Ag     8.390250    4.871626   19.533324    ( 0.0000,  0.0000,  0.0000)
  45 O      3.121558    3.402120   20.527783    ( 0.0000,  0.0000,  0.0000)

Unit cell:
[...]
  20 Pt     7.051446    0.787727   14.651405    ( 0.0000,  0.0000,  0.0000)
  21 Ag     2.795505    3.268743   14.613227    ( 0.0000,  0.0000,  0.0000)
  22 Ag     5.619302    3.216707   14.653429    ( 0.0000,  0.0000,  0.0000)
  23 Ag     8.468971    3.239761   14.615849    ( 0.0000,  0.0000,  0.0000)
  24 Pt     4.240824    5.670168   14.617391    ( 0.0000,  0.0000,  0.0000)
  25 Ag     7.021850    5.622139   14.587692    ( 0.0000,  0.0000,  0.0000)
  26 Ir     9.820526    5.752375   14.535684    ( 0.0000,  0.0000,  0.0000)
  27 Ru     0.070000    1.634238   16.929082    ( 0.0000,  0.0000,  0.0000)
  28 Ir     2.763629    1.642932   16.895088    ( 0.0000,  0.0000,  0.0000)
  29 Ir     5.513888    1.587918   16.926507    ( 0.0000,  0.0000,  0.0000)
  30 Ir     1.357588    4.005648   17.022180    ( 0.0000,  0.0000,  0.0000)
  31 Ir     4.187756    3.974189   16.976929    ( 0.0000,  0.0000,  0.0000)
  32 Pt     7.122119    4.039476   16.996837    ( 0.0000,  0.0000,  0.0000)
  33 Ag     2.748531    6.434544   16.827864    ( 0.0000,  0.0000,  0.0000)
  34 Ir     5.656314    6.566913   16.861883    ( 0.0000,  0.0000,  0.0000)
  35 Ru     8.399821    6.468116   16.862931    ( 0.0000,  0.0000,  0.0000)
  36 Ir    -0.033295   -0.097055   18.993362    ( 0.0000,  0.0000,  0.0000)
  37 Ir     2.782149   -0.071220   18.978092    ( 0.0000,  0.0000,  0.0000)
  38 Pt     5.595553   -0.072226   19.143240    ( 0.0000,  0.0000,  0.0000)
  39 Ag     1.238223    2.317600   19.528939    ( 0.0000,  0.0000,  0.0000)
  40 Ir     4.185586    2.400547   19.104705    ( 0.0000,  0.0000,  0.0000)
  41 Pt     6.907225    2.311727   19.138427    ( 0.0000,  0.0000,  0.0000)
  42 Ir     2.915864    4.899732   19.189539    ( 0.0000,  0.0000,  0.0000)
  43 Ir     5.589863    4.982734   19.010727    ( 0.0000,  0.0000,  0.0000)
  44 Ag     8.394921    4.859146   19.535719    ( 0.0000,  0.0000,  0.0000)
  45 O      3.145652    3.415691   20.511623    ( 0.0000,  0.0000,  0.0000)

Unit cell:
           periodic     x           y           z      points  spacing
  1. axis:    yes    8.445283    0.000000    0.000000    35     0.2090
  2. axis:    yes    4.222641    7.313829    0.000000    35     0.2090
  3. axis:    no     0.000000    0.000000   29.175054   135     0.2161

  Lengths:   8.445283   8.445283  29.175054
  Angles:   90.000000  90.000000  60.000000

Effective grid spacing dv^(1/3) = 0.2217

                     log10-error:    total        iterations:
           time      wfs    density  energy       fermi  poisson
iter:   1  23:59:27  -2.92   +inf  -265.417078    3             
iter:   2  00:00:29  -2.53  -2.36  -278.950785    3             
iter:   3  00:01:31  -2.74  -1.57  -265.115843    3             
iter:   4  00:02:33  -4.20  -2.68  -265.052310    3             
iter:   5  00:03:34  -4.86  -2.95  -265.032427    3             
iter:   6  00:04:36  -5.23  -3.21  -265.029017    3             
iter:   7  00:05:38  -5.32  -3.33  -265.025655    2             
iter:   8  00:06:40  -5.05  -3.39  -265.024090    2             
iter:   9  00:07:42  -5.50  -3.51  -265.026791    2             
iter:  10  00:08:44  -6.06  -3.50  -265.023600    2             
iter:  11  00:09:46  -6.38  -3.57  -265.023970    2             
iter:  12  00:10:47  -6.27  -3.85  -265.024044    2             
iter:  13  00:11:49  -6.85  -3.94  -265.023716    2             
iter:  14  00:12:51  -6.81  -3.97  -265.024028    2             
iter:  15  00:13:53  -6.84  -4.13  -265.024382    2             
iter:  16  00:14:55  -6.92  -4.03  -265.023474    2             
iter:  17  00:15:57  -7.04  -3.86  -265.024012    2             
iter:  18  00:16:58  -7.48  -4.34  -265.023915    2             

Converged after 18 iterations.

Dipole moment: (31.576552, 22.938178, -0.077365) |e|*Ang

Energy contributions relative to reference atoms: (reference = -16429278.754816)

Kinetic:       -145.831994
Potential:      +89.689596
External:        +0.000000
XC:            -201.446307
Entropy (-ST):   -2.137090
Local:           -6.366665
--------------------------
Free energy:   -266.092460
Extrapolated:  -265.023915

Fermi level: 1.32053

Showing only first 2 kpts
 Kpt  Band  Eigenvalues  Occupancy
  0   357      1.31163    0.13056
  0   358      1.34632    0.10897
  0   359      1.37596    0.09122
  0   360      1.39330    0.08142

  1   357      1.21806    0.18397
  1   358      1.24336    0.17097
  1   359      1.26961    0.15615
  1   360      1.31499    0.12846



Forces in eV/Ang:
  0 Ag   -0.41614    0.15750   -1.04744
  1 Ag    0.24546    0.22521   -0.86086
  2 Ir    0.49489   -0.18066    0.02968
  3 Ir   -0.11514    1.23616    1.40215
  4 Ir    0.41119    0.41128    0.87600
  5 Ir   -0.32969   -0.01787    1.21091
  6 Ir   -1.71719   -0.50640    0.73652
  7 Ag   -0.12650   -0.34788   -0.94850
  8 Pt    1.06561   -0.39094    0.48005
  9 Ag    0.16307   -0.00120    0.24026
 10 Ir   -0.01473   -0.38366    1.04819
 11 Ir   -0.64905   -0.77803   -0.51594
 12 Ir    0.41378    0.16163    0.18336
 13 Ag    0.00333   -0.03409    0.20705
 14 Ag    0.04310    0.07398    0.21897
 15 Pt   -0.12570   -0.04815   -0.61239
 16 Ru    0.63299    0.44760   -1.32605
 17 Ir    0.14909    0.28424   -1.23733
 18 Ir    0.00477   -0.00159   -0.01120
 19 Pt   -0.03990   -0.01256   -0.02204
 20 Pt    0.02833    0.03139   -0.07427
 21 Ag   -0.00807    0.00176    0.03291
 22 Ag    0.00932    0.01343   -0.01520
 23 Ag    0.02038    0.01055   -0.00985
 24 Pt    0.01739   -0.00879   -0.00619
 25 Ag   -0.01353   -0.02343   -0.00168
 26 Ir   -0.02937   -0.01233   -0.05533
 27 Ru   -0.08583   -0.01197    0.03332
 28 Ir    0.00566   -0.01667    0.00776
 29 Ir   -0.00424   -0.01423    0.05341
 30 Ir   -0.01056   -0.03019    0.04824
 31 Ir    0.04652   -0.02680   -0.04935
 32 Pt   -0.00395   -0.02029    0.02092
 33 Ag   -0.02332   -0.01659    0.03169
 34 Ir   -0.03761   -0.04404    0.05240
 35 Ru   -0.04485   -0.00802    0.03603
 36 Ir   -0.00315    0.05851   -0.04742
 37 Ir    0.02329   -0.04524    0.02443
 38 Pt   -0.00775    0.00636   -0.02806
 39 Ag    0.02538   -0.00256    0.04286
 40 Ir   -0.02178   -0.14126   -0.03455
 41 Pt   -0.05073   -0.01186   -0.01170
 42 Ir   -0.01080   -0.07280   -0.00927
 43 Ir    0.00986   -0.00096   -0.02153
 44 Ag    0.00941   -0.05020    0.01636
 45 O    -0.07487    0.02183    0.03419

System changes: positions 

Initializing position-dependent things.

Density initialized from wave functions
                                             
                                             
                                             
                                             
                                             
                                             
                 O             Ag            
                  Ir    Ir                   
            Ag    AIr     Pt    Ru           
                                             
       Ir    IIr    IPt     Pt               
         Ru                                  
               Ir     Ir    Ag     Ir        
                Ag     Ag     Ag             
                                             
           Ir    PPt    RPt    Ir            
                                             
            Ir     Ag    AAg    Pt           
       Ag    IIr    IIr    Ir                
                                             
        Ag     Ag     Ir                     
                                             
                                             
                                             
                                             
                                             

Positions:
   0 Ag     0.000000    1.621936   10.000000    ( 0.0000,  0.0000,  0.0000)
   1 Ag     2.809275    1.621936   10.000000    ( 0.0000,  0.0000,  0.0000)
   2 Ir     5.618550    1.621936   10.000000    ( 0.0000,  0.0000,  0.0000)
   3 Ir     1.404638    4.054840   10.000000    ( 0.0000,  0.0000,  0.0000)
   4 Ir     4.213913    4.054840   10.000000    ( 0.0000,  0.0000,  0.0000)
   5 Ir     7.023188    4.054840   10.000000    ( 0.0000,  0.0000,  0.0000)
   6 Ir     2.809275    6.487743   10.000000    ( 0.0000,  0.0000,  0.0000)
   7 Ag     5.618550    6.487743   10.000000    ( 0.0000,  0.0000,  0.0000)
   8 Pt     8.427826    6.487743   10.000000    ( 0.0000,  0.0000,  0.0000)
   9 Ag     0.000000    0.000000   12.293764    ( 0.0000,  0.0000,  0.0000)
  10 Ir     2.809275    0.000000   12.293764    ( 0.0000,  0.0000,  0.0000)
  11 Ir     5.618550    0.000000   12.293764    ( 0.0000,  0.0000,  0.0000)
  12 Ir     1.404638    2.432904   12.293764    ( 0.0000,  0.0000,  0.0000)
  13 Ag     4.213913    2.432904   12.293764    ( 0.0000,  0.0000,  0.0000)
  14 Ag     7.023188    2.432904   12.293764    ( 0.0000,  0.0000,  0.0000)
  15 Pt     2.809275    4.865807   12.293764    ( 0.0000,  0.0000,  0.0000)
  16 Ru     5.618550    4.865807   12.293764    ( 0.0000,  0.0000,  0.0000)
  17 Ir     8.427826    4.865807   12.293764    ( 0.0000,  0.0000,  0.0000)
  18 Ir     1.449328    0.802440   14.613540    ( 0.0000,  0.0000,  0.0000)
  19 Pt     4.197370    0.728461   14.620902    ( 0.0000,  0.0000,  0.0000)
  20 Pt     7.054744    0.790052   14.646503    ( 0.0000,  0.0000,  0.0000)
  21 Ag     2.795197    3.269041   14.616894    ( 0.0000,  0.0000,  0.0000)
  22 Ag     5.620294    3.217250   14.653771    ( 0.0000,  0.0000,  0.0000)
  23 Ag     8.471457    3.240717   14.615437    ( 0.0000,  0.0000,  0.0000)
  24 Pt     4.242887    5.669087   14.617010    ( 0.0000,  0.0000,  0.0000)
  25 Ag     7.020480    5.619648   14.587488    ( 0.0000,  0.0000,  0.0000)
  26 Ir     9.818077    5.751457   14.530313    ( 0.0000,  0.0000,  0.0000)
  27 Ru     0.060111    1.631673   16.929565    ( 0.0000,  0.0000,  0.0000)
  28 Ir     2.762150    1.642351   16.898450    ( 0.0000,  0.0000,  0.0000)
  29 Ir     5.515058    1.583217   16.926469    ( 0.0000,  0.0000,  0.0000)
  30 Ir     1.356586    4.000116   17.030949    ( 0.0000,  0.0000,  0.0000)
  31 Ir     4.191152    3.970826   16.974394    ( 0.0000,  0.0000,  0.0000)
  32 Pt     7.122096    4.035906   16.998787    ( 0.0000,  0.0000,  0.0000)
  33 Ag     2.744254    6.433705   16.828031    ( 0.0000,  0.0000,  0.0000)
  34 Ir     5.651516    6.563945   16.866971    ( 0.0000,  0.0000,  0.0000)
  35 Ru     8.394172    6.466078   16.864737    ( 0.0000,  0.0000,  0.0000)
  36 Ir    -0.035650   -0.091639   18.989758    ( 0.0000,  0.0000,  0.0000)
  37 Ir     2.783975   -0.074528   18.981201    ( 0.0000,  0.0000,  0.0000)
  38 Pt     5.593858   -0.073830   19.142901    ( 0.0000,  0.0000,  0.0000)
  39 Ag     1.243070    2.316830   19.534380    ( 0.0000,  0.0000,  0.0000)
  40 Ir     4.180810    2.384962   19.101101    ( 0.0000,  0.0000,  0.0000)
  41 Pt     6.897135    2.312006   19.139268    ( 0.0000,  0.0000,  0.0000)
  42 Ir     2.916356    4.893636   19.184429    ( 0.0000,  0.0000,  0.0000)
  43 Ir     5.591971    4.981515   19.008494    ( 0.0000,  0.0000,  0.0000)
  44 Ag     8.397253    4.850859   19.538039    ( 0.0000,  0.0000,  0.0000)
  45 O      3.143574    3.421108   20.510574    ( 0.0000,  0.0000,  0.0000)

Unit cell:
           periodic     x           y           z      points  spacing
  1. axis:    yes    8.445283    0.000000    0.000000    35     0.2090
  2. axis:    yes    4.222641    7.313829    0.000000    35     0.2090
  3. axis:    no     0.000000    0.000000   29.175054   135     0.2161

  Lengths:   8.445283   8.445283  29.175054
  Angles:   90.000000  90.000000  60.000000

Effective grid spacing dv^(1/3) = 0.2217

                     log10-error:    total        iterations:
           time      wfs    density  energy       fermi  poisson
iter:   1  00:18:28  -3.34   +inf  -265.121988    2             
iter:   2  00:19:30  -3.03  -2.61  -269.247167    3             
iter:   3  00:20:32  -3.29  -1.84  -265.039693    3             
iter:   4  00:21:33  -4.67  -3.13  -265.035772    3             
iter:   5  00:22:35  -5.46  -3.25  -265.033486    3             
iter:   6  00:23:37  -5.59  -3.46  -265.032456    2             
iter:   7  00:24:38  -5.43  -3.57  -265.032683    2             
iter:   8  00:25:41  -5.56  -3.68  -265.031294    2             
iter:   9  00:26:43  -6.29  -3.89  -265.032696    2             
iter:  10  00:27:44  -6.67  -3.74  -265.031521    2             
iter:  11  00:28:46  -6.57  -4.07  -265.031319    2             
iter:  12  00:29:48  -7.07  -4.19  -265.031337    2             
iter:  13  00:30:50  -7.02  -4.21  -265.031253    2             
iter:  14  00:31:51  -7.50  -4.30  -265.031179    2             

Converged after 14 iterations.

Dipole moment: (31.289805, 22.820451, -0.074493) |e|*Ang

Energy contributions relative to reference atoms: (reference = -16429278.754816)

Kinetic:       -145.706423
Potential:      +89.569616
External:        +0.000000
XC:            -201.456838
Entropy (-ST):   -2.134907
Local:           -6.370081
--------------------------
Free energy:   -266.098633
Extrapolated:  -265.031179

Fermi level: 1.32181

Showing only first 2 kpts
 Kpt  Band  Eigenvalues  Occupancy
  0   357      1.31257    0.13077
  0   358      1.34870    0.10829
  0   359      1.37626    0.09178
  0   360      1.39558    0.08088

  1   357      1.21762    0.18480
  1   358      1.24508    0.17073
  1   359      1.27193    0.15554
  1   360      1.31576    0.12878



Forces in eV/Ang:
  0 Ag   -0.41713    0.15600   -1.04435
  1 Ag    0.24480    0.22372   -0.86155
  2 Ir    0.49667   -0.18274    0.03355
  3 Ir   -0.11690    1.23017    1.39442
  4 Ir    0.40991    0.41120    0.87272
  5 Ir   -0.32900   -0.01931    1.20717
  6 Ir   -1.71214   -0.50163    0.73632
  7 Ag   -0.12755   -0.34590   -0.94854
  8 Pt    1.06119   -0.38964    0.47038
  9 Ag    0.16670   -0.00215    0.23298
 10 Ir   -0.02409   -0.38182    1.04928
 11 Ir   -0.63862   -0.76241   -0.52163
 12 Ir    0.41165    0.15791    0.19125
 13 Ag    0.00147   -0.02968    0.21625
 14 Ag    0.04546    0.07815    0.20946
 15 Pt   -0.11532   -0.05533   -0.60497
 16 Ru    0.62960    0.44633   -1.32713
 17 Ir    0.14033    0.27419   -1.24179
 18 Ir   -0.00940   -0.00499   -0.00058
 19 Pt    0.00662   -0.00406    0.01195
 20 Pt   -0.01761   -0.01364   -0.03072
 21 Ag   -0.00655    0.00075    0.00361
 22 Ag    0.00279   -0.02082   -0.02611
 23 Ag    0.01081    0.00722    0.00141
 24 Pt   -0.01831    0.00828   -0.00912
 25 Ag   -0.00553   -0.00679    0.01352
 26 Ir   -0.00328    0.01859   -0.02253
 27 Ru   -0.00014    0.00189    0.00479
 28 Ir   -0.03092   -0.04417   -0.02570
 29 Ir   -0.02365   -0.00177   -0.01598
 30 Ir   -0.01166   -0.02690    0.02746
 31 Ir    0.01759   -0.02515    0.00023
 32 Pt    0.00838    0.01172   -0.00767
 33 Ag   -0.02855   -0.04912   -0.02854
 34 Ir    0.00576   -0.00827   -0.01720
 35 Ru   -0.02764   -0.00501    0.00575
 36 Ir   -0.01932   -0.02178   -0.00431
 37 Ir   -0.00643   -0.04095   -0.01873
 38 Pt    0.00735   -0.04097   -0.01003
 39 Ag   -0.02942   -0.03438    0.01891
 40 Ir   -0.07706   -0.03495    0.04679
 41 Pt    0.04763    0.00952    0.00812
 42 Ir    0.00316   -0.01676   -0.01541
 43 Ir   -0.00408    0.00034   -0.00191
 44 Ag   -0.00925   -0.01484    0.00612
 45 O    -0.00775   -0.03526   -0.00789

Timing:                                      incl.     excl.
-------------------------------------------------------------------
Density initialized from wave functions:    23.579    23.579   0.1% |
 Symmetrize density:                         0.000     0.000   0.0% |
Forces:                                    144.851   144.851   0.9% |
Hamiltonian:                                24.024     0.079   0.0% |
 Atomic:                                     6.859     3.412   0.0% |
  XC Correction:                             3.447     3.447   0.0% |
 Calculate atomic Hamiltonians:              6.894     6.894   0.0% |
 Communicate:                                0.052     0.052   0.0% |
 Initialize Hamiltonian:                     0.000     0.000   0.0% |
 Poisson:                                    0.051     0.051   0.0% |
 XC 3D grid:                                10.089    10.089   0.1% |
LCAO initialization:                        51.746     3.005   0.0% |
 LCAO eigensolver:                           6.204     0.002   0.0% |
  Calculate projections:                     0.055     0.055   0.0% |
  DenseAtomicCorrection:                     0.055     0.055   0.0% |
  Distribute overlap matrix:                 0.297     0.297   0.0% |
  Orbital Layouts:                           0.409     0.409   0.0% |
  Potential matrix:                          5.343     5.343   0.0% |
  Sum over cells:                            0.042     0.042   0.0% |
 LCAO to grid:                              40.565    40.565   0.3% |
 Set positions (LCAO WFS):                   1.972     0.756   0.0% |
  Basic WFS set positions:                   0.002     0.002   0.0% |
  Basis functions set positions:             0.000     0.000   0.0% |
  P tci:                                     0.502     0.502   0.0% |
  ST tci:                                    0.529     0.529   0.0% |
  mktci:                                     0.183     0.183   0.0% |
PWDescriptor:                                0.035     0.035   0.0% |
Redistribute:                                0.041     0.041   0.0% |
SCF-cycle:                               15807.021   100.569   0.6% |
 Davidson:                               14448.469  3530.205  21.9% |--------|
  Apply H:                                2100.863  2040.241  12.7% |----|
   HMM T:                                   60.623    60.623   0.4% |
  Subspace diag:                          2060.923     0.062   0.0% |
   calc_h_matrix:                         1137.947   442.182   2.7% ||
    Apply H:                               695.765   675.602   4.2% |-|
     HMM T:                                 20.162    20.162   0.1% |
   diagonalize:                             33.150    33.150   0.2% |
   rotate_psi:                             889.764   889.764   5.5% |-|
  calc. matrices:                         4437.958  3037.166  18.8% |-------|
   Apply H:                               1400.792  1360.428   8.4% |--|
    HMM T:                                  40.365    40.365   0.3% |
  diagonalize:                             523.174   523.174   3.2% ||
  rotate_psi:                             1795.345  1795.345  11.1% |---|
 Density:                                  624.700     0.012   0.0% |
  Atomic density matrices:                   3.510     3.510   0.0% |
  Mix:                                     204.133   204.133   1.3% ||
  Multipole moments:                         0.301     0.301   0.0% |
  Pseudo density:                          416.744   416.735   2.6% ||
   Symmetrize density:                       0.009     0.009   0.0% |
 Hamiltonian:                              572.358     1.854   0.0% |
  Atomic:                                  154.605    70.943   0.4% |
   XC Correction:                           83.661    83.661   0.5% |
  Calculate atomic Hamiltonians:           166.405   166.405   1.0% |
  Communicate:                               1.627     1.627   0.0% |
  Poisson:                                   1.211     1.211   0.0% |
  XC 3D grid:                              246.656   246.656   1.5% ||
 Orthonormalize:                            60.924     0.004   0.0% |
  calc_s_matrix:                             8.986     8.986   0.1% |
  inverse-cholesky:                          0.647     0.647   0.0% |
  projections:                              33.238    33.238   0.2% |
  rotate_psi_s:                             18.049    18.049   0.1% |
Set symmetry:                                0.002     0.002   0.0% |
Other:                                      75.237    75.237   0.5% |
-------------------------------------------------------------------
Total:                                             16126.536 100.0%

Date: Fri Mar  4 00:32:08 2022
