
  ___ ___ ___ _ _ _  
 |   |   |_  | | | | 
 | | | | | . | | | | 
 |__ |  _|___|_____|  1.5.1
 |___|_|             

User:   clausen@node497.cluster
Date:   Thu Mar  3 19:47:22 2022
Arch:   x86_64
Pid:    28072
Python: 3.6.12
gpaw:   /software/kemi/gpaw/1.5.1/gpaw
_gpaw:  /software/kemi/gpaw/1.5.1/bin/gpaw-python
ase:    /software/kemi/ase/3.17.0/ase (version 3.17.0)
numpy:  /opt/rh/rh-python36/root/usr/lib64/python3.6/site-packages/numpy (version 1.13.1)
scipy:  /opt/rh/rh-python36/root/usr/lib64/python3.6/site-packages/scipy (version 0.19.1)
units:  Angstrom and eV
cores:  16

Input parameters:
  kpts: [4 4 1]
  mode: {ecut: 400.0,
         gammacentered: False,
         name: pw}
  xc: RPBE

System changes: positions, numbers, cell, pbc, initial_charges, initial_magmoms 

Initialize ...

Ag-setup:
  name: Silver
  id: c05e55bab2c3858b3f9398f6d75cb77c
  Z: 47
  valence: 17
  core: 30
  charge: 0.0
  file: /software/kemi/gpaw-setups/0.9.20000/Ag.RPBE.gz
  cutoffs: 1.25(comp), 2.35(filt), 2.19(core), lmax=2
  valence states:
                energy  radius
    5s(1.00)    -4.277   1.286
    4p(6.00)   -58.523   1.328
    5p(0.00)    -0.755   1.328
    4d(10.00)    -7.386   1.180
    *s          22.934   1.286
    *d          19.826   1.180

  Using partial waves for Ag as LCAO basis

Ir-setup:
  name: Iridium
  id: 73b603359d1d5397a85ae3c2440f9033
  Z: 77
  valence: 15
  core: 62
  charge: 0.0
  file: /software/kemi/gpaw-setups/0.9.20000/Ir.RPBE.gz
  cutoffs: 1.26(comp), 2.40(filt), 2.36(core), lmax=2
  valence states:
                energy  radius
    6s(2.00)    -6.219   1.296
    5p(6.00)   -54.684   1.328
    6p(0.00)    -1.215   1.328
    5d(7.00)    -7.118   1.286
    *s          20.992   1.296
    *d          20.093   1.286

  Using partial waves for Ir as LCAO basis

Pt-setup:
  name: Platinum
  id: f04f522592575c47ad794f6b4a415b4b
  Z: 78
  valence: 16
  core: 62
  charge: 0.0
  file: /software/kemi/gpaw-setups/0.9.20000/Pt.RPBE.gz
  cutoffs: 1.29(comp), 2.26(filt), 2.26(core), lmax=2
  valence states:
                energy  radius
    6s(1.00)    -5.516   1.307
    5p(6.00)   -55.971   1.371
    6p(0.00)    -0.856   1.371
    5d(9.00)    -6.087   1.307
    *s          21.695   1.307
    *d          21.125   1.307

  Using partial waves for Pt as LCAO basis

Ru-setup:
  name: Ruthenium
  id: 76477906e28f51dc1b29884d53556fe9
  Z: 44
  valence: 16
  core: 28
  charge: 0.0
  file: /software/kemi/gpaw-setups/0.9.20000/Ru.RPBE.gz
  cutoffs: 1.23(comp), 2.16(filt), 1.30(core), lmax=2
  valence states:
                energy  radius
    4s(2.00)   -76.255   1.281
    5s(1.00)    -4.126   1.281
    4p(6.00)   -46.371   1.286
    5p(0.00)    -0.913   1.286
    4d(7.00)    -5.146   1.254
    *d          22.066   1.254

  Using partial waves for Ru as LCAO basis

O-setup:
  name: Oxygen
  id: 08071ca1eed670e7821b24b7eb4d558c
  Z: 8
  valence: 6
  core: 2
  charge: 0.0
  file: /software/kemi/gpaw-setups/0.9.20000/O.RPBE.gz
  cutoffs: 0.67(comp), 1.17(filt), 0.83(core), lmax=2
  valence states:
                energy  radius
    2s(2.00)   -24.041   0.688
    2p(4.00)    -8.984   0.598
    *s           3.170   0.688
    *p          18.228   0.598
    *d           0.000   0.619

  Using partial waves for O as LCAO basis

H-setup:
  name: Hydrogen
  id: ea3f9156a1dc40d47a60fdce8f8bd75d
  Z: 1
  valence: 1
  core: 0
  charge: 0.0
  file: /software/kemi/gpaw-setups/0.9.20000/H.RPBE.gz
  cutoffs: 0.48(comp), 0.85(filt), 0.53(core), lmax=2
  valence states:
                energy  radius
    1s(1.00)    -6.572   0.476
    *s          20.639   0.476
    *p           0.000   0.476

  Using partial waves for H as LCAO basis

Reference energy: -16429291.423757

Spin-paired calculation

Occupation numbers:
  Fermi-Dirac: width=0.1000 eV

Convergence criteria:
  Maximum total energy change: 0.0005 eV / electron
  Maximum integral of absolute density change: 0.0001 electrons
  Maximum integral of absolute eigenstate change: 4e-08 eV^2
  Maximum number of iterations: 333

Symmetries present (total): 1

  ( 1  0  0)
  ( 0  1  0)
  ( 0  0  1)

16 k-points: 4 x 4 x 1 Monkhorst-Pack grid
8 k-points in the irreducible part of the Brillouin zone
       k-points in crystal coordinates                weights
   0:     0.12500000   -0.37500000    0.00000000          2/16
   1:     0.12500000   -0.12500000    0.00000000          2/16
   2:     0.12500000    0.12500000    0.00000000          2/16
   3:     0.12500000    0.37500000    0.00000000          2/16
   4:     0.37500000   -0.37500000    0.00000000          2/16
   5:     0.37500000   -0.12500000    0.00000000          2/16
   6:     0.37500000    0.12500000    0.00000000          2/16
   7:     0.37500000    0.37500000    0.00000000          2/16

Wave functions: Plane wave expansion
  Cutoff energy: 400.000 eV
  Number of coefficients (min, max): 32722, 32776
  Pulay-stress correction: 0.000000 eV/Ang^3 (de/decut=0.000000)
  Using FFTW library
  ScaLapack parameters: grid=1x1, blocksize=None
  Wavefunction extrapolation:
    Improved wavefunction reuse through dual PAW basis 

Eigensolver
   Davidson(niter=2, smin=None, normalize=True) 

Densities:
  Coarse grid: 35*35*135 grid
  Fine grid: 70*70*270 grid
  Total Charge: 0.000000 

Density mixing:
  Method: separate
  Backend: pulay
  Linear mixing parameter: 0.05
  Mixing with 5 old densities
  Damping of long wave oscillations: 50 

Hamiltonian:
  XC and Coulomb potentials evaluated on a 70*70*270 grid
  Using the RPBE Exchange-Correlation functional
 

XC parameters: RPBE with 2 nearest neighbor stencil

Memory estimate:
  Process memory now: 150.38 MiB
  Calculator: 545.08 MiB
    Density: 51.32 MiB
      Arrays: 16.41 MiB
      Localized functions: 28.56 MiB
      Mixer: 6.36 MiB
    Hamiltonian: 11.63 MiB
      Arrays: 10.73 MiB
      XC: 0.00 MiB
      Poisson: 0.00 MiB
      vbar: 0.90 MiB
    Wavefunctions: 482.13 MiB
      Arrays psit_nG: 218.05 MiB
      Eigensolver: 249.57 MiB
      Projections: 2.75 MiB
      Projectors: 5.13 MiB
      PW-descriptor: 6.62 MiB

Total number of cores used: 16
Parallelization over k-points: 8
Domain decomposition: 1 x 1 x 2

Number of atoms: 47
Number of atomic orbitals: 548
Number of bands in calculation: 436
Bands to converge: occupied states only
Number of valence electrons: 719

... initialized

Initializing position-dependent things.

Density initialized from atomic densities
Creating initial wave functions:
  436 bands from LCAO basis set

                                             
                                             
                                             
                                             
                                             
                  O H                        
                                             
                                             
                               Ag            
                  Ir    Ir                   
            Ag    AIr     Pt    Ru           
                                             
       Ir    IIr    IPt    Pt                
         Ru    Ir     Ir                     
                     Pt     Ag     Ir        
                Ag     Ag     Ag             
                                             
           Ir    PPt    RPt    Ir            
                                             
            Ir    IAg    AAg    Pt           
       Ag    IIr    IIr    Ir                
                                             
        Ag     Ag     Ir                     
                                             
                                             
                                             
                                             
                                             

Positions:
   0 Ag     0.000000    1.621936   10.000000    ( 0.0000,  0.0000,  0.0000)
   1 Ag     2.809275    1.621936   10.000000    ( 0.0000,  0.0000,  0.0000)
   2 Ir     5.618550    1.621936   10.000000    ( 0.0000,  0.0000,  0.0000)
   3 Ir     1.404638    4.054840   10.000000    ( 0.0000,  0.0000,  0.0000)
   4 Ir     4.213913    4.054840   10.000000    ( 0.0000,  0.0000,  0.0000)
   5 Ir     7.023188    4.054840   10.000000    ( 0.0000,  0.0000,  0.0000)
   6 Ir     2.809275    6.487743   10.000000    ( 0.0000,  0.0000,  0.0000)
   7 Ag     5.618550    6.487743   10.000000    ( 0.0000,  0.0000,  0.0000)
   8 Pt     8.427826    6.487743   10.000000    ( 0.0000,  0.0000,  0.0000)
   9 Ag     0.000000    0.000000   12.293764    ( 0.0000,  0.0000,  0.0000)
  10 Ir     2.809275    0.000000   12.293764    ( 0.0000,  0.0000,  0.0000)
  11 Ir     5.618550    0.000000   12.293764    ( 0.0000,  0.0000,  0.0000)
  12 Ir     1.404638    2.432904   12.293764    ( 0.0000,  0.0000,  0.0000)
  13 Ag     4.213913    2.432904   12.293764    ( 0.0000,  0.0000,  0.0000)
  14 Ag     7.023188    2.432904   12.293764    ( 0.0000,  0.0000,  0.0000)
  15 Pt     2.809275    4.865807   12.293764    ( 0.0000,  0.0000,  0.0000)
  16 Ru     5.618550    4.865807   12.293764    ( 0.0000,  0.0000,  0.0000)
  17 Ir     8.427826    4.865807   12.293764    ( 0.0000,  0.0000,  0.0000)
  18 Ir     1.441638    0.791118   14.593247    ( 0.0000,  0.0000,  0.0000)
  19 Pt     4.193480    0.729862   14.611205    ( 0.0000,  0.0000,  0.0000)
  20 Pt     7.034823    0.803600   14.634811    ( 0.0000,  0.0000,  0.0000)
  21 Ag     2.789574    3.267050   14.608106    ( 0.0000,  0.0000,  0.0000)
  22 Ag     5.614143    3.230616   14.629701    ( 0.0000,  0.0000,  0.0000)
  23 Ag     8.464759    3.239382   14.607930    ( 0.0000,  0.0000,  0.0000)
  24 Pt     4.237230    5.675263   14.599690    ( 0.0000,  0.0000,  0.0000)
  25 Ag     7.020289    5.624637   14.588938    ( 0.0000,  0.0000,  0.0000)
  26 Ir     9.810296    5.749034   14.534386    ( 0.0000,  0.0000,  0.0000)
  27 Ru     0.088724    1.655821   16.925664    ( 0.0000,  0.0000,  0.0000)
  28 Ir     2.745717    1.627778   16.875164    ( 0.0000,  0.0000,  0.0000)
  29 Ir     5.551846    1.597836   16.889230    ( 0.0000,  0.0000,  0.0000)
  30 Ir     1.358794    4.007324   17.013226    ( 0.0000,  0.0000,  0.0000)
  31 Ir     4.198339    3.977911   16.957702    ( 0.0000,  0.0000,  0.0000)
  32 Pt     7.125382    4.056246   16.998429    ( 0.0000,  0.0000,  0.0000)
  33 Ag     2.759687    6.474835   16.802442    ( 0.0000,  0.0000,  0.0000)
  34 Ir     5.663661    6.563267   16.864024    ( 0.0000,  0.0000,  0.0000)
  35 Ru     8.399575    6.483077   16.866623    ( 0.0000,  0.0000,  0.0000)
  36 Ir     0.015859   -0.055829   18.998154    ( 0.0000,  0.0000,  0.0000)
  37 Ir     2.776668   -0.025110   18.984491    ( 0.0000,  0.0000,  0.0000)
  38 Pt     5.623976   -0.052286   19.132338    ( 0.0000,  0.0000,  0.0000)
  39 Ag     1.411190    2.424549   19.550242    ( 0.0000,  0.0000,  0.0000)
  40 Ir     4.228423    2.403175   19.018562    ( 0.0000,  0.0000,  0.0000)
  41 Pt     6.964575    2.313754   19.128521    ( 0.0000,  0.0000,  0.0000)
  42 Ir     2.920544    4.885225   19.043791    ( 0.0000,  0.0000,  0.0000)
  43 Ir     5.524960    4.949858   19.026821    ( 0.0000,  0.0000,  0.0000)
  44 Ag     8.407084    4.876484   19.535850    ( 0.0000,  0.0000,  0.0000)
  45 O      2.920544    4.885225   21.550242    ( 0.0000,  0.0000,  0.0000)
  46 H      3.570544    5.535225   21.950242    ( 0.0000,  0.0000,  0.0000)

Unit cell:
           periodic     x           y           z      points  spacing
  1. axis:    yes    8.445283    0.000000    0.000000    35     0.2090
  2. axis:    yes    4.222641    7.313829    0.000000    35     0.2090
  3. axis:    no     0.000000    0.000000   29.175054   135     0.2161

  Lengths:   8.445283   8.445283  29.175054
  Angles:   90.000000  90.000000  60.000000

Effective grid spacing dv^(1/3) = 0.2217

                     log10-error:    total        iterations:
           time      wfs    density  energy       fermi  poisson
iter:   1  19:49:39  +0.19   +inf  -300.065773    3             
iter:   2  19:50:47  -1.11  -1.37  -296.346931    35            
iter:   3  19:52:14  -1.38  -1.33  -333.258582    34            
iter:   4  19:53:42  -1.82  -1.25  -279.136894    3             
iter:   5  19:55:09  -2.23  -1.48  -274.021008    37            
iter:   6  19:56:37  -2.37  -1.53  -272.142283    3             
iter:   7  19:58:05  -2.30  -1.58  -269.057930    3             
iter:   8  19:59:32  -2.59  -1.73  -268.365142    3             
iter:   9  20:01:00  -3.41  -1.84  -268.269908    3             
iter:  10  20:02:27  -2.30  -1.85  -269.642862    3             
iter:  11  20:03:55  -2.91  -1.92  -268.260747    3             
iter:  12  20:05:22  -3.42  -2.19  -268.305477    3             
iter:  13  20:06:50  -3.43  -2.24  -268.404067    3             
iter:  14  20:08:17  -3.55  -2.20  -268.283645    3             
iter:  15  20:09:44  -3.78  -2.28  -268.264564    3             
iter:  16  20:11:12  -3.35  -2.34  -268.160014    3             
iter:  17  20:12:39  -3.86  -2.49  -268.076798    3             
iter:  18  20:14:07  -3.94  -2.70  -268.067843    3             
iter:  19  20:15:35  -4.27  -2.82  -268.061809    3             
iter:  20  20:17:03  -4.30  -2.89  -268.070806    2             
iter:  21  20:18:31  -4.43  -2.79  -268.070154    3             
iter:  22  20:19:58  -4.97  -2.84  -268.053108    3             
iter:  23  20:21:26  -4.89  -2.94  -268.049747    3             
iter:  24  20:22:53  -4.75  -3.03  -268.050054    3             
iter:  25  20:24:21  -4.93  -3.12  -268.053063    3             
iter:  26  20:25:48  -5.46  -3.19  -268.050392    3             
iter:  27  20:27:16  -4.86  -3.24  -268.054465    3             
iter:  28  20:28:33  -5.00  -3.18  -268.061511    3             
iter:  29  20:29:44  -5.28  -2.97  -268.047346    3             
iter:  30  20:30:56  -6.45  -3.50  -268.047417    2             
iter:  31  20:32:11  -6.03  -3.54  -268.047663    2             
iter:  32  20:33:25  -6.07  -3.65  -268.046699    3             
iter:  33  20:34:36  -6.23  -3.59  -268.047143    2             
iter:  34  20:35:46  -6.84  -3.86  -268.046949    2             
iter:  35  20:36:57  -6.93  -3.86  -268.047225    2             
iter:  36  20:38:08  -6.35  -3.91  -268.047457    2             
iter:  37  20:39:19  -7.12  -3.97  -268.047263    2             
iter:  38  20:40:29  -7.26  -4.11  -268.046874    2             
iter:  39  20:41:40  -7.37  -4.20  -268.047257    2             
iter:  40  20:42:50  -7.30  -4.14  -268.046938    2             
iter:  41  20:44:02  -7.71  -4.29  -268.047094    2             

Converged after 41 iterations.

Dipole moment: (14.463271, 18.866174, -0.287972) |e|*Ang

Energy contributions relative to reference atoms: (reference = -16429291.423757)

Kinetic:       -154.007672
Potential:      +96.288670
External:        +0.000000
XC:            -202.915906
Entropy (-ST):   -2.111907
Local:           -6.356233
--------------------------
Free energy:   -269.103047
Extrapolated:  -268.047094

Fermi level: 1.22487

Showing only first 2 kpts
 Kpt  Band  Eigenvalues  Occupancy
  0   357      1.20505    0.13735
  0   358      1.22739    0.12342
  0   359      1.25613    0.10562
  0   360      1.31107    0.07423

  1   357      1.09778    0.19522
  1   358      1.13576    0.17728
  1   359      1.15111    0.16912
  1   360      1.17166    0.15749



Forces in eV/Ang:
  0 Ag   -0.41903    0.16162   -1.04458
  1 Ag    0.25104    0.22577   -0.86000
  2 Ir    0.49773   -0.17231    0.02947
  3 Ir   -0.10391    1.23774    1.40179
  4 Ir    0.41574    0.40511    0.89006
  5 Ir   -0.32897   -0.02407    1.21894
  6 Ir   -1.71784   -0.50601    0.73611
  7 Ag   -0.11831   -0.34842   -0.95130
  8 Pt    1.06503   -0.39578    0.48828
  9 Ag    0.13437    0.00858    0.16129
 10 Ir   -0.02355   -0.41853    0.98550
 11 Ir   -0.64446   -0.79012   -0.54370
 12 Ir    0.38422    0.15280    0.15723
 13 Ag   -0.01245   -0.03533    0.14814
 14 Ag    0.05535    0.08464    0.11779
 15 Pt   -0.14310   -0.03093   -0.62175
 16 Ru    0.62683    0.46972   -1.38418
 17 Ir    0.12435    0.29537   -1.27049
 18 Ir   -0.00584    0.03179    0.02959
 19 Pt    0.00698    0.04823    0.02202
 20 Pt   -0.00699   -0.00700    0.06842
 21 Ag    0.01036    0.00565    0.04747
 22 Ag    0.03779   -0.02145    0.02511
 23 Ag   -0.01117    0.00850    0.00576
 24 Pt    0.01750   -0.00801    0.05700
 25 Ag   -0.00662   -0.03885    0.00053
 26 Ir    0.02951   -0.06349    0.00041
 27 Ru   -0.02889   -0.00993    0.05458
 28 Ir    0.03127    0.03502    0.04120
 29 Ir    0.01434   -0.02942    0.11478
 30 Ir    0.08005    0.09871    0.04458
 31 Ir   -0.12304    0.11609   -0.20824
 32 Pt   -0.03975   -0.00292    0.02172
 33 Ag    0.01832   -0.09884    0.02261
 34 Ir   -0.01379   -0.06527    0.07108
 35 Ru   -0.00170   -0.05208    0.06867
 36 Ir    0.08200    0.15236   -0.08221
 37 Ir   -0.00051   -0.01352   -0.02305
 38 Pt   -0.12236    0.15486   -0.05444
 39 Ag   -0.02495   -0.08649   -0.03522
 40 Ir    0.09672   -0.15517   -0.03746
 41 Pt   -0.00054   -0.04656    0.01386
 42 Ir   -0.08637   -0.15990    2.16026
 43 Ir    0.23715    0.01743   -0.04819
 44 Ag   -0.05735   -0.01588   -0.01108
 45 O     0.27708    0.17984   -1.25756
 46 H    -0.35035   -0.24667   -0.54900

System changes: positions 

Initializing position-dependent things.

Density initialized from wave functions
                                             
                                             
                                             
                                             
                                             
                    H                        
                  O                          
                                             
                  Ir           Ag            
                        Ir                   
            Ag    AIr     Pt    Ru           
                                             
       Ir    IIr    IPt    Pt                
         Ru    Ir     Ir                     
                     Pt     Ag     Ir        
                Ag     Ag     Ag             
                                             
           Ir    PPt    RPt    Ir            
                                             
            Ir    IAg    AAg    Pt           
       Ag    IIr    IIr    Ir                
                                             
        Ag     Ag     Ir                     
                                             
                                             
                                             
                                             
                                             

Positions:
   0 Ag     0.000000    1.621936   10.000000    ( 0.0000,  0.0000,  0.0000)
   1 Ag     2.809275    1.621936   10.000000    ( 0.0000,  0.0000,  0.0000)
   2 Ir     5.618550    1.621936   10.000000    ( 0.0000,  0.0000,  0.0000)
   3 Ir     1.404638    4.054840   10.000000    ( 0.0000,  0.0000,  0.0000)
   4 Ir     4.213913    4.054840   10.000000    ( 0.0000,  0.0000,  0.0000)
   5 Ir     7.023188    4.054840   10.000000    ( 0.0000,  0.0000,  0.0000)
   6 Ir     2.809275    6.487743   10.000000    ( 0.0000,  0.0000,  0.0000)
   7 Ag     5.618550    6.487743   10.000000    ( 0.0000,  0.0000,  0.0000)
   8 Pt     8.427826    6.487743   10.000000    ( 0.0000,  0.0000,  0.0000)
   9 Ag     0.000000    0.000000   12.293764    ( 0.0000,  0.0000,  0.0000)
  10 Ir     2.809275    0.000000   12.293764    ( 0.0000,  0.0000,  0.0000)
  11 Ir     5.618550    0.000000   12.293764    ( 0.0000,  0.0000,  0.0000)
  12 Ir     1.404638    2.432904   12.293764    ( 0.0000,  0.0000,  0.0000)
  13 Ag     4.213913    2.432904   12.293764    ( 0.0000,  0.0000,  0.0000)
  14 Ag     7.023188    2.432904   12.293764    ( 0.0000,  0.0000,  0.0000)
  15 Pt     2.809275    4.865807   12.293764    ( 0.0000,  0.0000,  0.0000)
  16 Ru     5.618550    4.865807   12.293764    ( 0.0000,  0.0000,  0.0000)
  17 Ir     8.427826    4.865807   12.293764    ( 0.0000,  0.0000,  0.0000)
  18 Ir     1.441099    0.794051   14.595977    ( 0.0000,  0.0000,  0.0000)
  19 Pt     4.194124    0.734312   14.613236    ( 0.0000,  0.0000,  0.0000)
  20 Pt     7.034178    0.802954   14.641123    ( 0.0000,  0.0000,  0.0000)
  21 Ag     2.790530    3.267571   14.612485    ( 0.0000,  0.0000,  0.0000)
  22 Ag     5.617629    3.228637   14.632017    ( 0.0000,  0.0000,  0.0000)
  23 Ag     8.463729    3.240166   14.608461    ( 0.0000,  0.0000,  0.0000)
  24 Pt     4.238844    5.674524   14.604949    ( 0.0000,  0.0000,  0.0000)
  25 Ag     7.019679    5.621053   14.588987    ( 0.0000,  0.0000,  0.0000)
  26 Ir     9.813019    5.743177   14.534424    ( 0.0000,  0.0000,  0.0000)
  27 Ru     0.086059    1.654904   16.930699    ( 0.0000,  0.0000,  0.0000)
  28 Ir     2.748602    1.631009   16.878965    ( 0.0000,  0.0000,  0.0000)
  29 Ir     5.553169    1.595122   16.899819    ( 0.0000,  0.0000,  0.0000)
  30 Ir     1.366179    4.016431   17.017340    ( 0.0000,  0.0000,  0.0000)
  31 Ir     4.186988    3.988621   16.938491    ( 0.0000,  0.0000,  0.0000)
  32 Pt     7.121715    4.055977   17.000433    ( 0.0000,  0.0000,  0.0000)
  33 Ag     2.761378    6.465717   16.804528    ( 0.0000,  0.0000,  0.0000)
  34 Ir     5.662389    6.557245   16.870581    ( 0.0000,  0.0000,  0.0000)
  35 Ru     8.399418    6.478272   16.872958    ( 0.0000,  0.0000,  0.0000)
  36 Ir     0.023424   -0.041773   18.990570    ( 0.0000,  0.0000,  0.0000)
  37 Ir     2.776621   -0.026357   18.982365    ( 0.0000,  0.0000,  0.0000)
  38 Pt     5.612687   -0.037999   19.127316    ( 0.0000,  0.0000,  0.0000)
  39 Ag     1.408888    2.416570   19.546993    ( 0.0000,  0.0000,  0.0000)
  40 Ir     4.237346    2.388859   19.015107    ( 0.0000,  0.0000,  0.0000)
  41 Pt     6.964526    2.309458   19.129800    ( 0.0000,  0.0000,  0.0000)
  42 Ir     2.912576    4.870473   19.243087    ( 0.0000,  0.0000,  0.0000)
  43 Ir     5.546839    4.951466   19.022375    ( 0.0000,  0.0000,  0.0000)
  44 Ag     8.401793    4.875019   19.534828    ( 0.0000,  0.0000,  0.0000)
  45 O      2.946107    4.901816   21.434225    ( 0.0000,  0.0000,  0.0000)
  46 H      3.538223    5.512468   21.899594    ( 0.0000,  0.0000,  0.0000)

Unit cell:
           periodic     x           y           z      points  spacing
  1. axis:    yes    8.445283    0.000000    0.000000    35     0.2090
  2. axis:    yes    4.222641    7.313829    0.000000    35     0.2090
  3. axis:    no     0.000000    0.000000   29.175054   135     0.2161

  Lengths:   8.445283   8.445283  29.175054
  Angles:   90.000000  90.000000  60.000000

Effective grid spacing dv^(1/3) = 0.2217

                     log10-error:    total        iterations:
           time      wfs    density  energy       fermi  poisson
iter:   1  20:45:46  -1.83   +inf  -272.488442    4             
iter:   2  20:46:58  -2.00  -1.93  -279.787225    37            
iter:   3  20:48:10  -1.72  -1.67  -321.360650    3             
iter:   4  20:49:20  -2.09  -1.33  -269.459152    37            
iter:   5  20:50:32  -3.63  -2.18  -268.800459    3             
iter:   6  20:51:43  -3.78  -2.52  -268.748868    3             
iter:   7  20:52:54  -4.20  -2.54  -268.663570    3             
iter:   8  20:54:05  -3.58  -2.72  -268.570893    3             
iter:   9  20:55:18  -3.75  -2.94  -268.550717    2             
iter:  10  20:56:31  -4.42  -3.09  -268.548367    2             
iter:  11  20:57:45  -4.84  -3.00  -268.562225    3             
iter:  12  20:58:59  -4.96  -2.94  -268.542739    3             
iter:  13  21:00:13  -4.93  -3.28  -268.549554    3             
iter:  14  21:01:25  -5.05  -3.03  -268.539215    3             
iter:  15  21:02:36  -5.58  -3.43  -268.539644    2             
iter:  16  21:03:48  -5.98  -3.60  -268.539048    2             
iter:  17  21:04:59  -5.54  -3.52  -268.541276    2             
iter:  18  21:06:13  -6.11  -3.47  -268.538422    2             
iter:  19  21:07:24  -5.98  -3.72  -268.538407    2             
iter:  20  21:08:37  -6.38  -3.83  -268.538581    2             
iter:  21  21:09:47  -6.46  -3.94  -268.538944    2             
iter:  22  21:10:58  -6.97  -3.89  -268.538302    2             
iter:  23  21:12:09  -7.03  -4.18  -268.538795    2             
iter:  24  21:13:21  -6.86  -4.00  -268.538180    2             
iter:  25  21:14:32  -6.80  -4.10  -268.538314    2             
iter:  26  21:15:42  -7.25  -4.20  -268.538344    2             
iter:  27  21:16:53  -7.52  -4.37  -268.538460    2             

Converged after 27 iterations.

Dipole moment: (12.823018, 17.531923, -0.118249) |e|*Ang

Energy contributions relative to reference atoms: (reference = -16429291.423757)

Kinetic:       -158.686858
Potential:     +100.213779
External:        +0.000000
XC:            -202.651335
Entropy (-ST):   -2.130064
Local:           -6.349015
--------------------------
Free energy:   -269.603492
Extrapolated:  -268.538460

Fermi level: 1.30133

Showing only first 2 kpts
 Kpt  Band  Eigenvalues  Occupancy
  0   357      1.29230    0.13064
  0   358      1.30543    0.12244
  0   359      1.32596    0.10969
  0   360      1.38473    0.07570

  1   357      1.17790    0.19364
  1   358      1.21153    0.17764
  1   359      1.21927    0.17359
  1   360      1.25118    0.15570



Forces in eV/Ang:
  0 Ag   -0.41470    0.15675   -1.04954
  1 Ag    0.24922    0.22497   -0.86936
  2 Ir    0.49659   -0.16679    0.03780
  3 Ir   -0.10220    1.23535    1.39869
  4 Ir    0.41363    0.40283    0.88567
  5 Ir   -0.33155   -0.02480    1.21282
  6 Ir   -1.71343   -0.50805    0.73586
  7 Ag   -0.12122   -0.34136   -0.95458
  8 Pt    1.06323   -0.39369    0.48268
  9 Ag    0.13183    0.00973    0.18983
 10 Ir   -0.02729   -0.41005    1.01166
 11 Ir   -0.64900   -0.79088   -0.52849
 12 Ir    0.39450    0.15030    0.18130
 13 Ag   -0.01096   -0.02836    0.16596
 14 Ag    0.05236    0.07330    0.14063
 15 Pt   -0.12374   -0.03633   -0.60409
 16 Ru    0.62611    0.47300   -1.36933
 17 Ir    0.12454    0.29972   -1.24728
 18 Ir    0.00741   -0.00368    0.02664
 19 Pt    0.01036   -0.02936    0.02616
 20 Pt   -0.00075   -0.01561    0.01392
 21 Ag   -0.01572   -0.01096   -0.00957
 22 Ag    0.02347   -0.03003    0.00707
 23 Ag    0.01967    0.00758    0.03631
 24 Pt    0.01360    0.01426    0.00616
 25 Ag    0.01524    0.01951    0.01406
 26 Ir    0.00918    0.01553    0.03253
 27 Ru    0.01627   -0.03846   -0.01037
 28 Ir   -0.01946    0.08088    0.00067
 29 Ir    0.01373    0.00401   -0.02422
 30 Ir    0.07901    0.06054    0.15042
 31 Ir   -0.36495    0.23515    0.59435
 32 Pt   -0.02249   -0.01039    0.02612
 33 Ag    0.02347   -0.29556    0.42731
 34 Ir   -0.04028   -0.04561   -0.01764
 35 Ru    0.04625   -0.09975   -0.02078
 36 Ir    0.03280   -0.07603    0.03474
 37 Ir    0.01381    0.00262   -0.00249
 38 Pt   -0.08305    0.00607    0.03127
 39 Ag   -0.01929   -0.04415   -0.02179
 40 Ir   -0.03918    0.02999    0.02286
 41 Pt    0.05382    0.04626    0.01974
 42 Ir    0.61310    0.09805    0.83724
 43 Ir   -0.12896    0.02724   -0.03701
 44 Ag   -0.00152   -0.03104    0.00280
 45 O    -0.92618   -1.08211   -1.80394
 46 H     0.59575    0.75618   -0.09044

System changes: positions 

Initializing position-dependent things.

Density initialized from wave functions
                                             
                                             
                                             
                                             
                    H                        
                                             
                  O                          
                                             
                  Ir    Ir     Ag            
            Ag                               
                  AIr     Pt    Ru           
             Ir     IPt    Pt                
       Ir     Ir                             
         Ru    Ir    PIr    Ag     Ir        
                                             
                Ag     Ag     Ag             
           Ir    PPt    RPt    Ir            
                                             
            Ir    IAg    AAg    Pt           
                                             
       Ag    IIr    IIr    Ir                
        Ag     Ag     Ir                     
                                             
                                             
                                             
                                             
                                             

Positions:
   0 Ag     0.000000    1.621936   10.000000    ( 0.0000,  0.0000,  0.0000)
   1 Ag     2.809275    1.621936   10.000000    ( 0.0000,  0.0000,  0.0000)
   2 Ir     5.618550    1.621936   10.000000    ( 0.0000,  0.0000,  0.0000)
   3 Ir     1.404638    4.054840   10.000000    ( 0.0000,  0.0000,  0.0000)
   4 Ir     4.213913    4.054840   10.000000    ( 0.0000,  0.0000,  0.0000)
   5 Ir     7.023188    4.054840   10.000000    ( 0.0000,  0.0000,  0.0000)
   6 Ir     2.809275    6.487743   10.000000    ( 0.0000,  0.0000,  0.0000)
   7 Ag     5.618550    6.487743   10.000000    ( 0.0000,  0.0000,  0.0000)
   8 Pt     8.427826    6.487743   10.000000    ( 0.0000,  0.0000,  0.0000)
   9 Ag     0.000000    0.000000   12.293764    ( 0.0000,  0.0000,  0.0000)
  10 Ir     2.809275    0.000000   12.293764    ( 0.0000,  0.0000,  0.0000)
  11 Ir     5.618550    0.000000   12.293764    ( 0.0000,  0.0000,  0.0000)
  12 Ir     1.404638    2.432904   12.293764    ( 0.0000,  0.0000,  0.0000)
  13 Ag     4.213913    2.432904   12.293764    ( 0.0000,  0.0000,  0.0000)
  14 Ag     7.023188    2.432904   12.293764    ( 0.0000,  0.0000,  0.0000)
  15 Pt     2.809275    4.865807   12.293764    ( 0.0000,  0.0000,  0.0000)
  16 Ru     5.618550    4.865807   12.293764    ( 0.0000,  0.0000,  0.0000)
  17 Ir     8.427826    4.865807   12.293764    ( 0.0000,  0.0000,  0.0000)
  18 Ir     1.440998    0.796255   14.599382    ( 0.0000,  0.0000,  0.0000)
  19 Pt     4.195111    0.736584   14.616055    ( 0.0000,  0.0000,  0.0000)
  20 Pt     7.033623    0.801730   14.646850    ( 0.0000,  0.0000,  0.0000)
  21 Ag     2.790595    3.267498   14.615592    ( 0.0000,  0.0000,  0.0000)
  22 Ag     5.621504    3.225686   14.634208    ( 0.0000,  0.0000,  0.0000)
  23 Ag     8.463782    3.241140   14.610526    ( 0.0000,  0.0000,  0.0000)
  24 Pt     4.240761    5.674569   14.609474    ( 0.0000,  0.0000,  0.0000)
  25 Ag     7.019872    5.619035   14.589660    ( 0.0000,  0.0000,  0.0000)
  26 Ir     9.815632    5.739143   14.535919    ( 0.0000,  0.0000,  0.0000)
  27 Ru     0.084639    1.652431   16.934301    ( 0.0000,  0.0000,  0.0000)
  28 Ir     2.750056    1.637262   16.882066    ( 0.0000,  0.0000,  0.0000)
  29 Ir     5.554857    1.593110   16.907284    ( 0.0000,  0.0000,  0.0000)
  30 Ir     1.375705    4.026515   17.027437    ( 0.0000,  0.0000,  0.0000)
  31 Ir     4.161380    4.007865   16.949736    ( 0.0000,  0.0000,  0.0000)
  32 Pt     7.117739    4.055291   17.003228    ( 0.0000,  0.0000,  0.0000)
  33 Ag     2.763800    6.445038   16.825459    ( 0.0000,  0.0000,  0.0000)
  34 Ir     5.659547    6.550326   16.875085    ( 0.0000,  0.0000,  0.0000)
  35 Ru     8.401375    6.469898   16.877141    ( 0.0000,  0.0000,  0.0000)
  36 Ir     0.031013   -0.033840   18.986007    ( 0.0000,  0.0000,  0.0000)
  37 Ir     2.777204   -0.027247   18.980535    ( 0.0000,  0.0000,  0.0000)
  38 Pt     5.599826   -0.026183   19.124666    ( 0.0000,  0.0000,  0.0000)
  39 Ag     1.406159    2.408135   19.543386    ( 0.0000,  0.0000,  0.0000)
  40 Ir     4.242791    2.378643   19.013344    ( 0.0000,  0.0000,  0.0000)
  41 Pt     6.966910    2.308071   19.131722    ( 0.0000,  0.0000,  0.0000)
  42 Ir     2.933751    4.862970   19.441821    ( 0.0000,  0.0000,  0.0000)
  43 Ir     5.558708    4.953992   19.017116    ( 0.0000,  0.0000,  0.0000)
  44 Ag     8.397449    4.872437   19.534129    ( 0.0000,  0.0000,  0.0000)
  45 O      2.925048    4.866485   21.259241    ( 0.0000,  0.0000,  0.0000)
  46 H      3.538938    5.528137   21.854598    ( 0.0000,  0.0000,  0.0000)

Unit cell:
           periodic     x           y           z      points  spacing
  1. axis:    yes    8.445283    0.000000    0.000000    35     0.2090
  2. axis:    yes    4.222641    7.313829    0.000000    35     0.2090
  3. axis:    no     0.000000    0.000000   29.175054   135     0.2161

  Lengths:   8.445283   8.445283  29.175054
  Angles:   90.000000  90.000000  60.000000

Effective grid spacing dv^(1/3) = 0.2217

                     log10-error:    total        iterations:
           time      wfs    density  energy       fermi  poisson
iter:   1  21:18:35  -1.76   +inf  -271.717195    3             
iter:   2  21:19:47  -1.67  -1.89  -318.969579    32            
iter:   3  21:20:57  -1.97  -1.39  -270.953615    37            
iter:   4  21:22:07  -2.63  -1.97  -268.934095    36            
iter:   5  21:23:18  -3.54  -2.30  -268.570158    3             
iter:   6  21:24:30  -3.67  -2.41  -268.492350    3             
iter:   7  21:25:42  -3.69  -2.49  -268.398209    3             
iter:   8  21:26:55  -3.66  -2.50  -268.274112    3             
iter:   9  21:28:08  -3.89  -2.81  -268.246544    3             
iter:  10  21:29:20  -4.48  -2.96  -268.234946    2             
iter:  11  21:30:30  -4.83  -3.20  -268.230440    2             
iter:  12  21:31:39  -5.11  -3.31  -268.239129    2             
iter:  13  21:32:51  -5.74  -3.10  -268.228824    2             
iter:  14  21:34:21  -5.70  -3.43  -268.235087    3             
iter:  15  21:35:49  -5.39  -3.20  -268.230855    2             
iter:  16  21:37:18  -5.49  -3.42  -268.230999    3             
iter:  17  21:38:46  -5.83  -3.47  -268.229290    2             
iter:  18  21:40:14  -6.42  -3.70  -268.229923    2             
iter:  19  21:41:43  -5.94  -3.65  -268.229463    2             
iter:  20  21:43:11  -6.14  -3.48  -268.229658    2             
iter:  21  21:44:39  -6.44  -3.79  -268.228755    2             
iter:  22  21:46:07  -6.58  -3.81  -268.228867    2             
iter:  23  21:47:35  -6.42  -3.92  -268.228736    2             
iter:  24  21:49:03  -6.85  -3.85  -268.228876    2             
iter:  25  21:50:31  -7.14  -4.26  -268.228777    2             
iter:  26  21:51:59  -6.93  -4.12  -268.229166    2             
iter:  27  21:53:27  -7.18  -4.29  -268.228912    2             
iter:  28  21:54:55  -7.74  -4.37  -268.228973    2             

Converged after 28 iterations.

Dipole moment: (11.007857, 16.410001, 0.223387) |e|*Ang

Energy contributions relative to reference atoms: (reference = -16429291.423757)

Kinetic:       -151.461790
Potential:      +93.492871
External:        +0.000000
XC:            -202.815528
Entropy (-ST):   -2.156664
Local:           -6.366194
--------------------------
Free energy:   -269.307305
Extrapolated:  -268.228973

Fermi level: 1.45903

Showing only first 2 kpts
 Kpt  Band  Eigenvalues  Occupancy
  0   357      1.44476    0.13391
  0   358      1.47128    0.11735
  0   359      1.48509    0.10881
  0   360      1.52292    0.08638

  1   357      1.35098    0.18665
  1   358      1.36904    0.17774
  1   359      1.38624    0.16859
  1   360      1.40514    0.15789



Forces in eV/Ang:
  0 Ag   -0.41628    0.15655   -1.04853
  1 Ag    0.24982    0.22534   -0.86906
  2 Ir    0.49658   -0.16233    0.03711
  3 Ir   -0.09852    1.23198    1.39488
  4 Ir    0.41154    0.40166    0.87664
  5 Ir   -0.33356   -0.02386    1.21012
  6 Ir   -1.71095   -0.50957    0.73290
  7 Ag   -0.12287   -0.34190   -0.95361
  8 Pt    1.06605   -0.39253    0.48095
  9 Ag    0.12734    0.00806    0.21353
 10 Ir   -0.02711   -0.40301    1.03186
 11 Ir   -0.64823   -0.80123   -0.51052
 12 Ir    0.40248    0.14826    0.19235
 13 Ag   -0.01217   -0.02839    0.17666
 14 Ag    0.05385    0.06470    0.15367
 15 Pt   -0.11901   -0.03797   -0.60234
 16 Ru    0.62021    0.47582   -1.35305
 17 Ir    0.13485    0.31153   -1.23436
 18 Ir    0.02670   -0.03231    0.02170
 19 Pt    0.01412   -0.07576    0.03518
 20 Pt    0.00022   -0.06413    0.04638
 21 Ag   -0.00329   -0.00637   -0.01817
 22 Ag   -0.03588   -0.01194    0.06686
 23 Ag    0.04619   -0.00065    0.06788
 24 Pt   -0.01255    0.04264   -0.02929
 25 Ag    0.02617    0.06052    0.02511
 26 Ir    0.00933    0.09653    0.05361
 27 Ru    0.02214   -0.03195   -0.09029
 28 Ir   -0.05489    0.07509   -0.03893
 29 Ir    0.04319    0.03802   -0.21821
 30 Ir   -0.02298   -0.05375    0.00970
 31 Ir   -0.30934    0.11917    0.54698
 32 Pt   -0.00321   -0.04308    0.01159
 33 Ag   -0.02111   -0.20012    0.43577
 34 Ir   -0.04769   -0.03102   -0.12071
 35 Ru    0.07717   -0.11064   -0.10720
 36 Ir    0.03179   -0.17930    0.13835
 37 Ir    0.02726    0.02697    0.04493
 38 Pt   -0.05324   -0.07938    0.12701
 39 Ag   -0.03918   -0.04690   -0.05363
 40 Ir   -0.10811    0.05907    0.12786
 41 Pt    0.08057    0.11260    0.06353
 42 Ir    0.85089    0.21225   -4.08233
 43 Ir   -0.27382    0.03451    0.01246
 44 Ag   -0.01773   -0.03412   -0.02353
 45 O     1.27328    1.36011    4.86531
 46 H    -1.50067   -1.50707   -1.93384

System changes: positions 

Initializing position-dependent things.

Density initialized from wave functions
                                             
                                             
                                             
                                             
                                             
                    H                        
                  O                          
                                             
                  Ir           Ag            
                        Ir                   
            Ag    AIr     Pt    Ru           
                                             
       Ir    IIr    IPt    Pt                
         Ru    Ir     Ir                     
                     Pt     Ag     Ir        
                Ag     Ag     Ag             
                                             
           Ir    PPt    RPt    Ir            
                                             
            Ir    IAg    AAg    Pt           
       Ag    IIr    IIr    Ir                
                                             
        Ag     Ag     Ir                     
                                             
                                             
                                             
                                             
                                             

Positions:
   0 Ag     0.000000    1.621936   10.000000    ( 0.0000,  0.0000,  0.0000)
   1 Ag     2.809275    1.621936   10.000000    ( 0.0000,  0.0000,  0.0000)
   2 Ir     5.618550    1.621936   10.000000    ( 0.0000,  0.0000,  0.0000)
   3 Ir     1.404638    4.054840   10.000000    ( 0.0000,  0.0000,  0.0000)
   4 Ir     4.213913    4.054840   10.000000    ( 0.0000,  0.0000,  0.0000)
   5 Ir     7.023188    4.054840   10.000000    ( 0.0000,  0.0000,  0.0000)
   6 Ir     2.809275    6.487743   10.000000    ( 0.0000,  0.0000,  0.0000)
   7 Ag     5.618550    6.487743   10.000000    ( 0.0000,  0.0000,  0.0000)
   8 Pt     8.427826    6.487743   10.000000    ( 0.0000,  0.0000,  0.0000)
   9 Ag     0.000000    0.000000   12.293764    ( 0.0000,  0.0000,  0.0000)
  10 Ir     2.809275    0.000000   12.293764    ( 0.0000,  0.0000,  0.0000)
  11 Ir     5.618550    0.000000   12.293764    ( 0.0000,  0.0000,  0.0000)
  12 Ir     1.404638    2.432904   12.293764    ( 0.0000,  0.0000,  0.0000)
  13 Ag     4.213913    2.432904   12.293764    ( 0.0000,  0.0000,  0.0000)
  14 Ag     7.023188    2.432904   12.293764    ( 0.0000,  0.0000,  0.0000)
  15 Pt     2.809275    4.865807   12.293764    ( 0.0000,  0.0000,  0.0000)
  16 Ru     5.618550    4.865807   12.293764    ( 0.0000,  0.0000,  0.0000)
  17 Ir     8.427826    4.865807   12.293764    ( 0.0000,  0.0000,  0.0000)
  18 Ir     1.441061    0.794876   14.597251    ( 0.0000,  0.0000,  0.0000)
  19 Pt     4.194494    0.735162   14.614291    ( 0.0000,  0.0000,  0.0000)
  20 Pt     7.033971    0.802496   14.643267    ( 0.0000,  0.0000,  0.0000)
  21 Ag     2.790554    3.267544   14.613648    ( 0.0000,  0.0000,  0.0000)
  22 Ag     5.619079    3.227533   14.632837    ( 0.0000,  0.0000,  0.0000)
  23 Ag     8.463748    3.240530   14.609234    ( 0.0000,  0.0000,  0.0000)
  24 Pt     4.239561    5.674541   14.606642    ( 0.0000,  0.0000,  0.0000)
  25 Ag     7.019751    5.620298   14.589239    ( 0.0000,  0.0000,  0.0000)
  26 Ir     9.813997    5.741667   14.534983    ( 0.0000,  0.0000,  0.0000)
  27 Ru     0.085528    1.653979   16.932047    ( 0.0000,  0.0000,  0.0000)
  28 Ir     2.749146    1.633349   16.880125    ( 0.0000,  0.0000,  0.0000)
  29 Ir     5.553801    1.594369   16.902613    ( 0.0000,  0.0000,  0.0000)
  30 Ir     1.369744    4.020205   17.021119    ( 0.0000,  0.0000,  0.0000)
  31 Ir     4.177404    3.995823   16.942699    ( 0.0000,  0.0000,  0.0000)
  32 Pt     7.120227    4.055720   17.001479    ( 0.0000,  0.0000,  0.0000)
  33 Ag     2.762284    6.457978   16.812362    ( 0.0000,  0.0000,  0.0000)
  34 Ir     5.661325    6.554655   16.872266    ( 0.0000,  0.0000,  0.0000)
  35 Ru     8.400151    6.475138   16.874524    ( 0.0000,  0.0000,  0.0000)
  36 Ir     0.026264   -0.038804   18.988862    ( 0.0000,  0.0000,  0.0000)
  37 Ir     2.776839   -0.026690   18.981680    ( 0.0000,  0.0000,  0.0000)
  38 Pt     5.607874   -0.033577   19.126324    ( 0.0000,  0.0000,  0.0000)
  39 Ag     1.407867    2.413413   19.545643    ( 0.0000,  0.0000,  0.0000)
  40 Ir     4.239384    2.385036   19.014447    ( 0.0000,  0.0000,  0.0000)
  41 Pt     6.965418    2.308939   19.130519    ( 0.0000,  0.0000,  0.0000)
  42 Ir     2.920501    4.867665   19.317463    ( 0.0000,  0.0000,  0.0000)
  43 Ir     5.551281    4.952411   19.020407    ( 0.0000,  0.0000,  0.0000)
  44 Ag     8.400167    4.874053   19.534566    ( 0.0000,  0.0000,  0.0000)
  45 O      2.938225    4.888593   21.368738    ( 0.0000,  0.0000,  0.0000)
  46 H      3.538490    5.518332   21.882754    ( 0.0000,  0.0000,  0.0000)

Unit cell:
           periodic     x           y           z      points  spacing
  1. axis:    yes    8.445283    0.000000    0.000000    35     0.2090
  2. axis:    yes    4.222641    7.313829    0.000000    35     0.2090
  3. axis:    no     0.000000    0.000000   29.175054   135     0.2161

  Lengths:   8.445283   8.445283  29.175054
  Angles:   90.000000  90.000000  60.000000

Effective grid spacing dv^(1/3) = 0.2217

                     log10-error:    total        iterations:
           time      wfs    density  energy       fermi  poisson
iter:   1  21:57:02  -1.96   +inf  -270.574941    3             
iter:   2  21:58:30  -2.33  -2.17  -282.620323    3             
iter:   3  21:59:57  -2.36  -1.59  -273.140126    3             
iter:   4  22:01:25  -3.06  -1.80  -269.224525    3             
iter:   5  22:02:54  -3.46  -2.41  -268.821781    3             
iter:   6  22:04:21  -3.99  -2.75  -268.756348    3             
iter:   7  22:05:49  -4.35  -2.87  -268.729859    2             
iter:   8  22:07:17  -4.26  -2.90  -268.711859    3             
iter:   9  22:08:44  -3.63  -2.88  -269.811784    3             
iter:  10  22:10:12  -3.73  -2.08  -268.681921    2             
iter:  11  22:11:28  -4.45  -3.05  -268.676287    3             
iter:  12  22:12:41  -5.09  -3.13  -268.669110    3             
iter:  13  22:13:52  -5.81  -3.32  -268.667467    2             
iter:  14  22:15:06  -5.93  -3.41  -268.667124    2             
iter:  15  22:16:20  -5.08  -3.46  -268.675819    3             
iter:  16  22:17:34  -5.53  -3.03  -268.667375    2             
iter:  17  22:18:47  -6.22  -3.50  -268.665519    2             
iter:  18  22:19:59  -6.22  -3.78  -268.665660    2             
iter:  19  22:21:11  -6.40  -3.79  -268.665238    2             
iter:  20  22:22:24  -6.63  -3.87  -268.665451    2             
iter:  21  22:23:42  -6.77  -4.05  -268.665182    2             
iter:  22  22:24:58  -6.50  -3.86  -268.667015    2             
iter:  23  22:26:08  -6.67  -3.65  -268.665434    2             
iter:  24  22:27:19  -7.14  -4.13  -268.665409    2             
iter:  25  22:28:30  -7.33  -4.28  -268.665255    2             
iter:  26  22:29:43  -7.49  -4.31  -268.665404    2             

Converged after 26 iterations.

Dipole moment: (12.123396, 17.106404, 0.000594) |e|*Ang

Energy contributions relative to reference atoms: (reference = -16429291.423757)

Kinetic:       -159.831389
Potential:     +100.920486
External:        +0.000000
XC:            -202.363564
Entropy (-ST):   -2.140624
Local:           -6.320626
--------------------------
Free energy:   -269.735716
Extrapolated:  -268.665404

Fermi level: 1.35573

Showing only first 2 kpts
 Kpt  Band  Eigenvalues  Occupancy
  0   357      1.34744    0.13018
  0   358      1.36277    0.12060
  0   359      1.38062    0.10952
  0   360      1.43376    0.07856

  1   357      1.23343    0.19315
  1   358      1.26517    0.17802
  1   359      1.27493    0.17292
  1   360      1.30511    0.15598



Forces in eV/Ang:
  0 Ag   -0.41625    0.15670   -1.04650
  1 Ag    0.24995    0.22534   -0.86661
  2 Ir    0.49697   -0.16530    0.04161
  3 Ir   -0.10160    1.23510    1.40341
  4 Ir    0.41396    0.40287    0.88682
  5 Ir   -0.33298   -0.02483    1.21643
  6 Ir   -1.71268   -0.50785    0.73845
  7 Ag   -0.12223   -0.34208   -0.95358
  8 Pt    1.06523   -0.39320    0.48491
  9 Ag    0.12936    0.00988    0.19797
 10 Ir   -0.02839   -0.40619    1.01769
 11 Ir   -0.64840   -0.79452   -0.52463
 12 Ir    0.39649    0.14804    0.18163
 13 Ag   -0.01095   -0.02758    0.16686
 14 Ag    0.05335    0.06957    0.14189
 15 Pt   -0.12033   -0.03636   -0.60559
 16 Ru    0.62292    0.47286   -1.36647
 17 Ir    0.12800    0.30270   -1.24767
 18 Ir    0.01577   -0.01657    0.03285
 19 Pt    0.01218   -0.04897    0.03567
 20 Pt   -0.00214   -0.03730    0.02511
 21 Ag   -0.01136   -0.01198   -0.01213
 22 Ag   -0.00552   -0.02374    0.03824
 23 Ag    0.03506    0.00454    0.05803
 24 Pt    0.00376    0.02682   -0.01262
 25 Ag    0.01863    0.03820    0.02040
 26 Ir    0.00926    0.04966    0.04282
 27 Ru    0.02125   -0.03086   -0.05487
 28 Ir   -0.03584    0.07519   -0.02104
 29 Ir    0.01898    0.03086   -0.10213
 30 Ir    0.06824    0.03663    0.16043
 31 Ir   -0.37254    0.21197    0.64569
 32 Pt   -0.01381   -0.03178    0.00570
 33 Ag    0.00514   -0.27710    0.46010
 34 Ir   -0.03923   -0.03060   -0.06101
 35 Ru    0.05842   -0.10042   -0.06048
 36 Ir    0.02399   -0.12725    0.05451
 37 Ir    0.02364    0.01359    0.04629
 38 Pt   -0.06607   -0.02454    0.03893
 39 Ag   -0.03415   -0.05919   -0.05263
 40 Ir   -0.05520    0.04954    0.03742
 41 Pt    0.05841    0.06986    0.06471
 42 Ir    0.70648    0.15740   -0.15457
 43 Ir   -0.17950    0.02541   -0.05063
 44 Ag   -0.02430   -0.02986   -0.02277
 45 O     0.21473    0.10912   -0.12794
 46 H    -0.46307   -0.34591   -0.98186

System changes: positions 

Initializing position-dependent things.

Density initialized from wave functions
                                             
                                             
                                             
                                             
                   H                         
                  O                          
                                             
                                             
                  Ir    Ir     Ag            
            Ag                               
                  AIr     Pt    Ru           
       Ir    IIr    IPt    Pt                
                                             
         Ru    Ir    PIr    Ag     Ir        
                                             
                Ag     Ag     Ag             
           Ir    PPt    RPt    Ir            
                                             
            Ir    IAg    AAg    Pt           
       Ag     Ir     Ir                      
             Ir     Ir     Ir                
        Ag     Ag     Ir                     
                                             
                                             
                                             
                                             
                                             

Positions:
   0 Ag     0.000000    1.621936   10.000000    ( 0.0000,  0.0000,  0.0000)
   1 Ag     2.809275    1.621936   10.000000    ( 0.0000,  0.0000,  0.0000)
   2 Ir     5.618550    1.621936   10.000000    ( 0.0000,  0.0000,  0.0000)
   3 Ir     1.404638    4.054840   10.000000    ( 0.0000,  0.0000,  0.0000)
   4 Ir     4.213913    4.054840   10.000000    ( 0.0000,  0.0000,  0.0000)
   5 Ir     7.023188    4.054840   10.000000    ( 0.0000,  0.0000,  0.0000)
   6 Ir     2.809275    6.487743   10.000000    ( 0.0000,  0.0000,  0.0000)
   7 Ag     5.618550    6.487743   10.000000    ( 0.0000,  0.0000,  0.0000)
   8 Pt     8.427826    6.487743   10.000000    ( 0.0000,  0.0000,  0.0000)
   9 Ag     0.000000    0.000000   12.293764    ( 0.0000,  0.0000,  0.0000)
  10 Ir     2.809275    0.000000   12.293764    ( 0.0000,  0.0000,  0.0000)
  11 Ir     5.618550    0.000000   12.293764    ( 0.0000,  0.0000,  0.0000)
  12 Ir     1.404638    2.432904   12.293764    ( 0.0000,  0.0000,  0.0000)
  13 Ag     4.213913    2.432904   12.293764    ( 0.0000,  0.0000,  0.0000)
  14 Ag     7.023188    2.432904   12.293764    ( 0.0000,  0.0000,  0.0000)
  15 Pt     2.809275    4.865807   12.293764    ( 0.0000,  0.0000,  0.0000)
  16 Ru     5.618550    4.865807   12.293764    ( 0.0000,  0.0000,  0.0000)
  17 Ir     8.427826    4.865807   12.293764    ( 0.0000,  0.0000,  0.0000)
  18 Ir     1.442720    0.794455   14.602952    ( 0.0000,  0.0000,  0.0000)
  19 Pt     4.196425    0.731334   14.619937    ( 0.0000,  0.0000,  0.0000)
  20 Pt     7.033375    0.797605   14.649706    ( 0.0000,  0.0000,  0.0000)
  21 Ag     2.789445    3.266233   14.614369    ( 0.0000,  0.0000,  0.0000)
  22 Ag     5.620755    3.223191   14.638537    ( 0.0000,  0.0000,  0.0000)
  23 Ag     8.467590    3.241610   14.616840    ( 0.0000,  0.0000,  0.0000)
  24 Pt     4.241109    5.677490   14.608087    ( 0.0000,  0.0000,  0.0000)
  25 Ag     7.021857    5.623156   14.591866    ( 0.0000,  0.0000,  0.0000)
  26 Ir     9.816660    5.744555   14.540527    ( 0.0000,  0.0000,  0.0000)
  27 Ru     0.086876    1.649213   16.928242    ( 0.0000,  0.0000,  0.0000)
  28 Ir     2.746191    1.645222   16.879740    ( 0.0000,  0.0000,  0.0000)
  29 Ir     5.556928    1.596534   16.896067    ( 0.0000,  0.0000,  0.0000)
  30 Ir     1.382966    4.030362   17.044546    ( 0.0000,  0.0000,  0.0000)
  31 Ir     4.121742    4.030279   17.018038    ( 0.0000,  0.0000,  0.0000)
  32 Pt     7.116282    4.051760   17.003706    ( 0.0000,  0.0000,  0.0000)
  33 Ag     2.764229    6.415732   16.874384    ( 0.0000,  0.0000,  0.0000)
  34 Ir     5.655386    6.547101   16.868413    ( 0.0000,  0.0000,  0.0000)
  35 Ru     8.407642    6.459193   16.870551    ( 0.0000,  0.0000,  0.0000)
  36 Ir     0.033616   -0.047440   18.991787    ( 0.0000,  0.0000,  0.0000)
  37 Ir     2.779780   -0.025747   18.985773    ( 0.0000,  0.0000,  0.0000)
  38 Pt     5.592773   -0.028761   19.128750    ( 0.0000,  0.0000,  0.0000)
  39 Ag     1.402392    2.401617   19.537522    ( 0.0000,  0.0000,  0.0000)
  40 Ir     4.236991    2.383775   19.017352    ( 0.0000,  0.0000,  0.0000)
  41 Pt     6.973118    2.315563   19.138939    ( 0.0000,  0.0000,  0.0000)
  42 Ir     3.009011    4.879807   19.421263    ( 0.0000,  0.0000,  0.0000)
  43 Ir     5.539733    4.956692   19.011577    ( 0.0000,  0.0000,  0.0000)
  44 Ag     8.394606    4.869264   19.531502    ( 0.0000,  0.0000,  0.0000)
  45 O      2.957183    4.887694   21.256825    ( 0.0000,  0.0000,  0.0000)
  46 H      3.481080    5.482492   21.742895    ( 0.0000,  0.0000,  0.0000)

Unit cell:
           periodic     x           y           z      points  spacing
  1. axis:    yes    8.445283    0.000000    0.000000    35     0.2090
  2. axis:    yes    4.222641    7.313829    0.000000    35     0.2090
  3. axis:    no     0.000000    0.000000   29.175054   135     0.2161

  Lengths:   8.445283   8.445283  29.175054
  Angles:   90.000000  90.000000  60.000000

Effective grid spacing dv^(1/3) = 0.2217

                     log10-error:    total        iterations:
           time      wfs    density  energy       fermi  poisson
iter:   1  22:31:26  -1.76   +inf  -290.905749    37            
iter:   2  22:32:38  -0.43  -1.55  -548.953992    34            
iter:   3  22:33:50  -1.01  -0.99  -284.657991    36            
iter:   4  22:35:01  -2.01  -1.61  -269.557071    37            
iter:   5  22:36:12  -2.85  -2.21  -269.523699    3             
iter:   6  22:37:24  -3.22  -2.11  -269.068537    3             
iter:   7  22:38:34  -3.90  -2.27  -268.579764    3             
iter:   8  22:39:45  -3.83  -2.66  -268.498901    3             
iter:   9  22:40:56  -3.68  -2.76  -268.472661    3             
iter:  10  22:42:07  -4.23  -2.78  -268.546886    3             
iter:  11  22:43:18  -4.25  -2.53  -268.447998    3             
iter:  12  22:44:30  -4.39  -2.90  -268.433540    3             
iter:  13  22:45:42  -4.74  -2.95  -268.422920    3             
iter:  14  22:46:54  -5.38  -3.20  -268.420620    2             
iter:  15  22:48:05  -5.46  -3.20  -268.421238    2             
iter:  16  22:49:18  -5.25  -3.30  -268.420451    3             
iter:  17  22:50:32  -5.14  -3.20  -268.425238    2             
iter:  18  22:51:45  -5.69  -3.26  -268.418841    2             
iter:  19  22:52:57  -5.76  -3.49  -268.419730    2             
iter:  20  22:54:10  -6.21  -3.61  -268.419096    2             
iter:  21  22:55:23  -6.33  -3.77  -268.420118    2             
iter:  22  22:56:34  -6.43  -3.67  -268.419024    2             
iter:  23  22:57:47  -6.37  -3.78  -268.420592    2             
iter:  24  22:58:59  -6.48  -3.63  -268.419065    2             
iter:  25  23:00:09  -6.64  -3.94  -268.419627    2             
iter:  26  23:01:20  -6.79  -3.86  -268.419431    2             
iter:  27  23:02:32  -6.96  -4.01  -268.419582    2             
iter:  28  23:03:43  -7.00  -3.91  -268.418972    2             
iter:  29  23:05:11  -7.10  -4.09  -268.419468    2             
iter:  30  23:06:39  -7.20  -3.97  -268.418945    2             
iter:  31  23:08:07  -7.50  -4.15  -268.419195    2             

Converged after 31 iterations.

Dipole moment: (7.341727, 16.396851, 0.180517) |e|*Ang

Energy contributions relative to reference atoms: (reference = -16429291.423757)

Kinetic:       -141.972536
Potential:      +86.242996
External:        +0.000000
XC:            -205.151974
Entropy (-ST):   -2.151371
Local:           -6.461996
--------------------------
Free energy:   -269.494880
Extrapolated:  -268.419195

Fermi level: 1.44086

Showing only first 2 kpts
 Kpt  Band  Eigenvalues  Occupancy
  0   357      1.43617    0.12793
  0   358      1.45522    0.11604
  0   359      1.47063    0.10653
  0   360      1.51516    0.08059

  1   357      1.32877    0.18854
  1   358      1.35388    0.17617
  1   359      1.36787    0.16870
  1   360      1.38918    0.15660



Forces in eV/Ang:
  0 Ag   -0.41115    0.15253   -1.04469
  1 Ag    0.24611    0.22323   -0.86814
  2 Ir    0.49550   -0.16466    0.04981
  3 Ir   -0.09735    1.23115    1.39969
  4 Ir    0.41253    0.40143    0.88609
  5 Ir   -0.33050   -0.02133    1.22252
  6 Ir   -1.70793   -0.50838    0.74060
  7 Ag   -0.12352   -0.33538   -0.95623
  8 Pt    1.05963   -0.39210    0.48491
  9 Ag    0.13035    0.02030    0.21095
 10 Ir   -0.03117   -0.39612    1.02752
 11 Ir   -0.64415   -0.80432   -0.51430
 12 Ir    0.39827    0.14839    0.18204
 13 Ag   -0.00796   -0.03370    0.19505
 14 Ag    0.06136    0.06463    0.17666
 15 Pt   -0.12053   -0.04448   -0.57898
 16 Ru    0.62120    0.46542   -1.32933
 17 Ir    0.14068    0.30226   -1.21558
 18 Ir    0.02371   -0.02639    0.02756
 19 Pt   -0.00019    0.01733    0.02608
 20 Pt    0.01619   -0.12442    0.18155
 21 Ag    0.07491    0.06926    0.08161
 22 Ag   -0.09379    0.07460    0.12786
 23 Ag    0.02418    0.01787    0.04028
 24 Pt   -0.09392    0.02835    0.06950
 25 Ag   -0.00730   -0.02704   -0.00511
 26 Ir    0.07583    0.06774    0.07475
 27 Ru   -0.06705   -0.05091    0.02107
 28 Ir   -0.02903   -0.06904    0.00548
 29 Ir    0.06576   -0.01275    0.01525
 30 Ir   -0.21230   -0.17718   -0.02157
 31 Ir   -0.07022   -0.18260   -0.38872
 32 Pt   -0.02198   -0.04442    0.05885
 33 Ag   -0.10218    0.19373   -0.06301
 34 Ir    0.06198    0.04064   -0.03688
 35 Ru    0.00474   -0.02210   -0.01297
 36 Ir    0.10059    0.16797    0.17213
 37 Ir    0.05315    0.03587   -0.13150
 38 Pt   -0.07175    0.06830    0.15392
 39 Ag   -0.00261    0.01467   -0.04066
 40 Ir    0.02572   -0.19475    0.22661
 41 Pt    0.01698   -0.01006   -0.05692
 42 Ir   -0.05304   -0.00893   -3.49276
 43 Ir    0.53600    0.00865    0.18123
 44 Ag   -0.00042   -0.01784   -0.02668
 45 O    -2.15754   -2.40740    1.53162
 46 H     1.79712    2.14701    1.39604

System changes: positions 

Initializing position-dependent things.

Density initialized from wave functions
                                             
                                             
                                             
                                             
                    H                        
                  O                          
                                             
                                             
                  Ir    Ir     Ag            
            Ag                               
                  AIr     Pt    Ru           
       Ir    IIr    IPt    Pt                
                                             
         Ru    Ir    PIr    Ag     Ir        
                                             
                Ag     Ag     Ag             
           Ir    PPt    RPt    Ir            
                                             
            Ir    IAg    AAg    Pt           
       Ag     Ir     Ir                      
             Ir     Ir     Ir                
        Ag     Ag     Ir                     
                                             
                                             
                                             
                                             
                                             

Positions:
   0 Ag     0.000000    1.621936   10.000000    ( 0.0000,  0.0000,  0.0000)
   1 Ag     2.809275    1.621936   10.000000    ( 0.0000,  0.0000,  0.0000)
   2 Ir     5.618550    1.621936   10.000000    ( 0.0000,  0.0000,  0.0000)
   3 Ir     1.404638    4.054840   10.000000    ( 0.0000,  0.0000,  0.0000)
   4 Ir     4.213913    4.054840   10.000000    ( 0.0000,  0.0000,  0.0000)
   5 Ir     7.023188    4.054840   10.000000    ( 0.0000,  0.0000,  0.0000)
   6 Ir     2.809275    6.487743   10.000000    ( 0.0000,  0.0000,  0.0000)
   7 Ag     5.618550    6.487743   10.000000    ( 0.0000,  0.0000,  0.0000)
   8 Pt     8.427826    6.487743   10.000000    ( 0.0000,  0.0000,  0.0000)
   9 Ag     0.000000    0.000000   12.293764    ( 0.0000,  0.0000,  0.0000)
  10 Ir     2.809275    0.000000   12.293764    ( 0.0000,  0.0000,  0.0000)
  11 Ir     5.618550    0.000000   12.293764    ( 0.0000,  0.0000,  0.0000)
  12 Ir     1.404638    2.432904   12.293764    ( 0.0000,  0.0000,  0.0000)
  13 Ag     4.213913    2.432904   12.293764    ( 0.0000,  0.0000,  0.0000)
  14 Ag     7.023188    2.432904   12.293764    ( 0.0000,  0.0000,  0.0000)
  15 Pt     2.809275    4.865807   12.293764    ( 0.0000,  0.0000,  0.0000)
  16 Ru     5.618550    4.865807   12.293764    ( 0.0000,  0.0000,  0.0000)
  17 Ir     8.427826    4.865807   12.293764    ( 0.0000,  0.0000,  0.0000)
  18 Ir     1.441601    0.794739   14.599106    ( 0.0000,  0.0000,  0.0000)
  19 Pt     4.195122    0.733916   14.616128    ( 0.0000,  0.0000,  0.0000)
  20 Pt     7.033777    0.800904   14.645362    ( 0.0000,  0.0000,  0.0000)
  21 Ag     2.790193    3.267117   14.613882    ( 0.0000,  0.0000,  0.0000)
  22 Ag     5.619625    3.226120   14.634692    ( 0.0000,  0.0000,  0.0000)
  23 Ag     8.464999    3.240882   14.611709    ( 0.0000,  0.0000,  0.0000)
  24 Pt     4.240065    5.675501   14.607113    ( 0.0000,  0.0000,  0.0000)
  25 Ag     7.020436    5.621228   14.590094    ( 0.0000,  0.0000,  0.0000)
  26 Ir     9.814863    5.742607   14.536787    ( 0.0000,  0.0000,  0.0000)
  27 Ru     0.085966    1.652428   16.930809    ( 0.0000,  0.0000,  0.0000)
  28 Ir     2.748185    1.637213   16.880000    ( 0.0000,  0.0000,  0.0000)
  29 Ir     5.554818    1.595073   16.900483    ( 0.0000,  0.0000,  0.0000)
  30 Ir     1.374047    4.023510   17.028742    ( 0.0000,  0.0000,  0.0000)
  31 Ir     4.159290    4.007036   16.967217    ( 0.0000,  0.0000,  0.0000)
  32 Pt     7.118943    4.054431   17.002204    ( 0.0000,  0.0000,  0.0000)
  33 Ag     2.762917    6.444230   16.832545    ( 0.0000,  0.0000,  0.0000)
  34 Ir     5.659392    6.552197   16.871012    ( 0.0000,  0.0000,  0.0000)
  35 Ru     8.402589    6.469949   16.873231    ( 0.0000,  0.0000,  0.0000)
  36 Ir     0.028656   -0.041614   18.989814    ( 0.0000,  0.0000,  0.0000)
  37 Ir     2.777796   -0.026383   18.983012    ( 0.0000,  0.0000,  0.0000)
  38 Pt     5.602960   -0.032010   19.127114    ( 0.0000,  0.0000,  0.0000)
  39 Ag     1.406085    2.409575   19.543000    ( 0.0000,  0.0000,  0.0000)
  40 Ir     4.238605    2.384626   19.015392    ( 0.0000,  0.0000,  0.0000)
  41 Pt     6.967924    2.311095   19.133259    ( 0.0000,  0.0000,  0.0000)
  42 Ir     2.949304    4.871616   19.351242    ( 0.0000,  0.0000,  0.0000)
  43 Ir     5.547523    4.953804   19.017534    ( 0.0000,  0.0000,  0.0000)
  44 Ag     8.398358    4.872494   19.533569    ( 0.0000,  0.0000,  0.0000)
  45 O      2.944395    4.888300   21.332318    ( 0.0000,  0.0000,  0.0000)
  46 H      3.519808    5.506669   21.837241    ( 0.0000,  0.0000,  0.0000)

Unit cell:
           periodic     x           y           z      points  spacing
  1. axis:    yes    8.445283    0.000000    0.000000    35     0.2090
  2. axis:    yes    4.222641    7.313829    0.000000    35     0.2090
  3. axis:    no     0.000000    0.000000   29.175054   135     0.2161

  Lengths:   8.445283   8.445283  29.175054
  Angles:   90.000000  90.000000  60.000000

Effective grid spacing dv^(1/3) = 0.2217

                     log10-error:    total        iterations:
           time      wfs    density  energy       fermi  poisson
iter:   1  23:10:13  -1.75   +inf  -283.720493    37            
iter:   2  23:11:41  -0.76  -1.60  -511.243313    37            
iter:   3  23:13:09  -1.32  -1.06  -274.702292    38            
iter:   4  23:14:37  -2.32  -1.79  -269.362829    4             
iter:   5  23:16:04  -3.11  -2.36  -269.240435    3             
iter:   6  23:17:32  -3.42  -2.38  -268.867626    3             
iter:   7  23:19:00  -3.92  -2.63  -268.793924    3             
iter:   8  23:20:28  -4.16  -2.78  -268.769386    3             
iter:   9  23:21:56  -4.76  -2.84  -268.764194    3             
iter:  10  23:23:25  -4.49  -2.82  -268.808678    2             
iter:  11  23:24:53  -4.47  -2.68  -268.746835    3             
iter:  12  23:26:20  -4.44  -2.99  -268.733979    3             
iter:  13  23:27:48  -4.95  -3.14  -268.733779    3             
iter:  14  23:29:15  -5.53  -3.20  -268.730759    2             
iter:  15  23:30:43  -5.57  -3.30  -268.728078    2             
iter:  16  23:32:11  -5.77  -3.43  -268.731269    2             
iter:  17  23:33:38  -5.68  -3.31  -268.727791    2             
iter:  18  23:35:06  -6.12  -3.60  -268.727167    2             
iter:  19  23:36:34  -6.20  -3.63  -268.727857    2             
iter:  20  23:38:02  -6.11  -3.72  -268.727292    2             
iter:  21  23:39:29  -6.15  -3.84  -268.727372    2             
iter:  22  23:40:56  -6.61  -3.76  -268.728090    2             
iter:  23  23:42:09  -6.68  -3.88  -268.727328    2             
iter:  24  23:43:19  -6.42  -3.98  -268.727412    2             
iter:  25  23:44:31  -7.06  -4.22  -268.727672    2             
iter:  26  23:45:42  -7.40  -4.24  -268.727342    2             

Converged after 26 iterations.

Dipole moment: (10.474303, 16.868268, 0.056753) |e|*Ang

Energy contributions relative to reference atoms: (reference = -16429291.423757)

Kinetic:       -155.771358
Potential:      +97.540998
External:        +0.000000
XC:            -203.078236
Entropy (-ST):   -2.144104
Local:           -6.346694
--------------------------
Free energy:   -269.799394
Extrapolated:  -268.727342

Fermi level: 1.38098

Showing only first 2 kpts
 Kpt  Band  Eigenvalues  Occupancy
  0   357      1.37477    0.12888
  0   358      1.39097    0.11876
  0   359      1.40643    0.10918
  0   360      1.45808    0.07907

  1   357      1.25923    0.19291
  1   358      1.29103    0.17771
  1   359      1.30180    0.17205
  1   360      1.33030    0.15602



Forces in eV/Ang:
  0 Ag   -0.41761    0.15769   -1.04515
  1 Ag    0.25188    0.22646   -0.86547
  2 Ir    0.49496   -0.16611    0.04086
  3 Ir   -0.10007    1.23953    1.39698
  4 Ir    0.41350    0.40259    0.88213
  5 Ir   -0.33280   -0.02191    1.21540
  6 Ir   -1.71758   -0.51128    0.73608
  7 Ag   -0.12157   -0.34431   -0.95305
  8 Pt    1.07014   -0.39550    0.48385
  9 Ag    0.12802    0.01211    0.20320
 10 Ir   -0.02573   -0.40415    1.01978
 11 Ir   -0.64882   -0.80329   -0.52640
 12 Ir    0.39655    0.15081    0.18056
 13 Ag   -0.01024   -0.03012    0.17145
 14 Ag    0.05602    0.06900    0.14842
 15 Pt   -0.12653   -0.03790   -0.60627
 16 Ru    0.62256    0.47065   -1.36021
 17 Ir    0.13678    0.30537   -1.24447
 18 Ir    0.01649   -0.02182    0.02715
 19 Pt    0.00651   -0.02655    0.02805
 20 Pt    0.00762   -0.07519    0.07962
 21 Ag    0.01946    0.01645    0.01926
 22 Ag   -0.04484    0.01431    0.08050
 23 Ag    0.03388    0.00939    0.04977
 24 Pt   -0.03085    0.02575    0.01811
 25 Ag    0.00996    0.01755    0.00881
 26 Ir    0.03505    0.05564    0.05182
 27 Ru   -0.00981   -0.03781   -0.03320
 28 Ir   -0.03094    0.01934   -0.02138
 29 Ir    0.03179    0.01916   -0.06654
 30 Ir   -0.02581   -0.02929    0.08861
 31 Ir   -0.26953    0.08434    0.28228
 32 Pt   -0.01720   -0.03747    0.01348
 33 Ag   -0.03069   -0.12075    0.26779
 34 Ir    0.00052   -0.00318   -0.05860
 35 Ru    0.03937   -0.07122   -0.04909
 36 Ir    0.05064   -0.00635    0.07618
 37 Ir    0.03357    0.01953   -0.01178
 38 Pt   -0.06714    0.00777    0.06921
 39 Ag   -0.01936   -0.02050   -0.03256
 40 Ir   -0.02181   -0.04473    0.11454
 41 Pt    0.04124    0.03722    0.02797
 42 Ir    0.39211    0.07971   -0.76620
 43 Ir    0.07340    0.01646    0.02184
 44 Ag   -0.00213   -0.02878   -0.01489
 45 O    -0.36479   -0.48336    0.28426
 46 H     0.17213    0.31914   -0.36714

System changes: positions 

Initializing position-dependent things.

Density initialized from wave functions
                                             
                                             
                                             
                                             
                    H                        
                  O                          
                                             
                                             
                  Ir    Ir     Ag            
            Ag                               
                  AIr     Pt    Ru           
       Ir    IIr    IPt    Pt                
                                             
         Ru    Ir    PIr    Ag     Ir        
                                             
                Ag     Ag     Ag             
           Ir    PPt    RPt    Ir            
                                             
            Ir    IAg    AAg    Pt           
       Ag     Ir     Ir                      
             Ir     Ir     Ir                
        Ag     Ag     Ir                     
                                             
                                             
                                             
                                             
                                             

Positions:
   0 Ag     0.000000    1.621936   10.000000    ( 0.0000,  0.0000,  0.0000)
   1 Ag     2.809275    1.621936   10.000000    ( 0.0000,  0.0000,  0.0000)
   2 Ir     5.618550    1.621936   10.000000    ( 0.0000,  0.0000,  0.0000)
   3 Ir     1.404638    4.054840   10.000000    ( 0.0000,  0.0000,  0.0000)
   4 Ir     4.213913    4.054840   10.000000    ( 0.0000,  0.0000,  0.0000)
   5 Ir     7.023188    4.054840   10.000000    ( 0.0000,  0.0000,  0.0000)
   6 Ir     2.809275    6.487743   10.000000    ( 0.0000,  0.0000,  0.0000)
   7 Ag     5.618550    6.487743   10.000000    ( 0.0000,  0.0000,  0.0000)
   8 Pt     8.427826    6.487743   10.000000    ( 0.0000,  0.0000,  0.0000)
   9 Ag     0.000000    0.000000   12.293764    ( 0.0000,  0.0000,  0.0000)
  10 Ir     2.809275    0.000000   12.293764    ( 0.0000,  0.0000,  0.0000)
  11 Ir     5.618550    0.000000   12.293764    ( 0.0000,  0.0000,  0.0000)
  12 Ir     1.404638    2.432904   12.293764    ( 0.0000,  0.0000,  0.0000)
  13 Ag     4.213913    2.432904   12.293764    ( 0.0000,  0.0000,  0.0000)
  14 Ag     7.023188    2.432904   12.293764    ( 0.0000,  0.0000,  0.0000)
  15 Pt     2.809275    4.865807   12.293764    ( 0.0000,  0.0000,  0.0000)
  16 Ru     5.618550    4.865807   12.293764    ( 0.0000,  0.0000,  0.0000)
  17 Ir     8.427826    4.865807   12.293764    ( 0.0000,  0.0000,  0.0000)
  18 Ir     1.443210    0.793298   14.602822    ( 0.0000,  0.0000,  0.0000)
  19 Pt     4.196000    0.732498   14.619741    ( 0.0000,  0.0000,  0.0000)
  20 Pt     7.034360    0.792638   14.655859    ( 0.0000,  0.0000,  0.0000)
  21 Ag     2.792644    3.269048   14.617349    ( 0.0000,  0.0000,  0.0000)
  22 Ag     5.615711    3.227135   14.644173    ( 0.0000,  0.0000,  0.0000)
  23 Ag     8.468299    3.242076   14.617193    ( 0.0000,  0.0000,  0.0000)
  24 Pt     4.237212    5.678033   14.610553    ( 0.0000,  0.0000,  0.0000)
  25 Ag     7.021266    5.622004   14.591046    ( 0.0000,  0.0000,  0.0000)
  26 Ir     9.819414    5.746800   14.542240    ( 0.0000,  0.0000,  0.0000)
  27 Ru     0.084053    1.648339   16.928604    ( 0.0000,  0.0000,  0.0000)
  28 Ir     2.745789    1.639988   16.878798    ( 0.0000,  0.0000,  0.0000)
  29 Ir     5.558598    1.596425   16.896336    ( 0.0000,  0.0000,  0.0000)
  30 Ir     1.373384    4.022990   17.039009    ( 0.0000,  0.0000,  0.0000)
  31 Ir     4.128333    4.018440   16.989169    ( 0.0000,  0.0000,  0.0000)
  32 Pt     7.116084    4.050246   17.004015    ( 0.0000,  0.0000,  0.0000)
  33 Ag     2.760001    6.429668   16.860310    ( 0.0000,  0.0000,  0.0000)
  34 Ir     5.659174    6.550177   16.866662    ( 0.0000,  0.0000,  0.0000)
  35 Ru     8.406637    6.461202   16.869852    ( 0.0000,  0.0000,  0.0000)
  36 Ir     0.036274   -0.037889   18.995420    ( 0.0000,  0.0000,  0.0000)
  37 Ir     2.781356   -0.024646   18.981507    ( 0.0000,  0.0000,  0.0000)
  38 Pt     5.592626   -0.026815   19.132728    ( 0.0000,  0.0000,  0.0000)
  39 Ag     1.403231    2.404828   19.538316    ( 0.0000,  0.0000,  0.0000)
  40 Ir     4.239210    2.375314   19.026380    ( 0.0000,  0.0000,  0.0000)
  41 Pt     6.972113    2.313665   19.136946    ( 0.0000,  0.0000,  0.0000)
  42 Ir     2.986795    4.875390   19.324237    ( 0.0000,  0.0000,  0.0000)
  43 Ir     5.562380    4.955958   19.018388    ( 0.0000,  0.0000,  0.0000)
  44 Ag     8.396216    4.869097   19.531438    ( 0.0000,  0.0000,  0.0000)
  45 O      2.927203    4.856640   21.344813    ( 0.0000,  0.0000,  0.0000)
  46 H      3.516297    5.520862   21.774651    ( 0.0000,  0.0000,  0.0000)

Unit cell:
           periodic     x           y           z      points  spacing
  1. axis:    yes    8.445283    0.000000    0.000000    35     0.2090
  2. axis:    yes    4.222641    7.313829    0.000000    35     0.2090
  3. axis:    no     0.000000    0.000000   29.175054   135     0.2161

  Lengths:   8.445283   8.445283  29.175054
  Angles:   90.000000  90.000000  60.000000

Effective grid spacing dv^(1/3) = 0.2217

                     log10-error:    total        iterations:
           time      wfs    density  energy       fermi  poisson
iter:   1  23:47:24  -2.50   +inf  -271.243115    3             
iter:   2  23:48:35  -1.59  -1.94  -351.642667    36            
iter:   3  23:49:45  -2.01  -1.25  -270.403552    37            
iter:   4  23:50:57  -2.98  -2.07  -268.898883    3             
iter:   5  23:52:07  -4.02  -2.67  -268.836710    3             
iter:   6  23:53:17  -4.48  -3.02  -268.821698    3             
iter:   7  23:54:28  -4.76  -3.11  -268.816305    2             
iter:   8  23:55:38  -4.97  -3.23  -268.819626    3             
iter:   9  23:56:50  -5.31  -3.11  -268.812389    3             
iter:  10  23:58:01  -4.88  -3.40  -268.811047    3             
iter:  11  23:59:12  -5.40  -3.49  -268.817700    3             
iter:  12  00:00:24  -5.65  -3.22  -268.809991    2             
iter:  13  00:01:35  -6.22  -3.61  -268.809957    2             
iter:  14  00:02:45  -6.42  -3.72  -268.810461    2             
iter:  15  00:03:56  -6.19  -3.69  -268.809821    2             
iter:  16  00:05:08  -6.45  -3.58  -268.809328    2             
iter:  17  00:06:19  -6.50  -3.71  -268.809885    2             
iter:  18  00:07:30  -6.59  -3.87  -268.809314    2             
iter:  19  00:08:41  -6.52  -3.73  -268.809311    2             
iter:  20  00:09:52  -6.45  -4.01  -268.810009    2             
iter:  21  00:11:05  -7.09  -3.97  -268.809352    2             
iter:  22  00:12:15  -7.36  -4.20  -268.809381    2             
iter:  23  00:13:26  -7.70  -4.39  -268.809584    2             

Converged after 23 iterations.

Dipole moment: (8.178028, 15.889823, -0.002515) |e|*Ang

Energy contributions relative to reference atoms: (reference = -16429291.423757)

Kinetic:       -155.562272
Potential:      +97.195001
External:        +0.000000
XC:            -203.045020
Entropy (-ST):   -2.139042
Local:           -6.327772
--------------------------
Free energy:   -269.879105
Extrapolated:  -268.809584

Fermi level: 1.35528

Showing only first 2 kpts
 Kpt  Band  Eigenvalues  Occupancy
  0   357      1.35409    0.12575
  0   358      1.36575    0.11846
  0   359      1.38190    0.10847
  0   360      1.43686    0.07667

  1   357      1.23206    0.19355
  1   358      1.26591    0.17742
  1   359      1.27666    0.17176
  1   360      1.30677    0.15474



Forces in eV/Ang:
  0 Ag   -0.41624    0.15674   -1.04681
  1 Ag    0.24944    0.22584   -0.86608
  2 Ir    0.49725   -0.16662    0.04369
  3 Ir   -0.10103    1.23615    1.39915
  4 Ir    0.41626    0.40311    0.88338
  5 Ir   -0.33168   -0.02112    1.22206
  6 Ir   -1.71367   -0.50881    0.73594
  7 Ag   -0.12267   -0.34119   -0.95702
  8 Pt    1.06482   -0.39471    0.48229
  9 Ag    0.12687    0.01408    0.22217
 10 Ir   -0.02701   -0.40101    1.03375
 11 Ir   -0.64654   -0.80610   -0.50839
 12 Ir    0.40365    0.15752    0.19625
 13 Ag   -0.00615   -0.03006    0.19614
 14 Ag    0.05420    0.06383    0.20651
 15 Pt   -0.12580   -0.04252   -0.58573
 16 Ru    0.62104    0.46308   -1.33223
 17 Ir    0.13980    0.30154   -1.22158
 18 Ir    0.01947   -0.00263    0.01849
 19 Pt    0.00183   -0.00151    0.01235
 20 Pt    0.00944   -0.00793    0.08289
 21 Ag   -0.00666    0.01400    0.00174
 22 Ag   -0.01347    0.01893    0.03954
 23 Ag    0.01053   -0.00401    0.01543
 24 Pt   -0.04350    0.02446    0.04970
 25 Ag    0.00948   -0.01073   -0.01438
 26 Ir    0.01798    0.02712    0.03386
 27 Ru   -0.02654   -0.03313   -0.00502
 28 Ir   -0.01729   -0.02538    0.01068
 29 Ir   -0.00610    0.00440    0.05003
 30 Ir   -0.07408   -0.07803    0.06896
 31 Ir   -0.00102   -0.09153    0.13485
 32 Pt    0.01931   -0.03548   -0.01111
 33 Ag   -0.03635    0.06075    0.08470
 34 Ir    0.00501    0.01355    0.02060
 35 Ru   -0.00890   -0.03625   -0.01189
 36 Ir    0.06316   -0.01330    0.06829
 37 Ir    0.04675    0.01328   -0.02060
 38 Pt   -0.00342   -0.01007    0.09401
 39 Ag    0.03125    0.02767   -0.02853
 40 Ir   -0.02105    0.00065   -0.02652
 41 Pt    0.01215   -0.00747    0.00889
 42 Ir   -0.07377   -0.09526   -0.11843
 43 Ir    0.08901    0.03361    0.02921
 44 Ag    0.04859   -0.00791   -0.00734
 45 O    -0.06984   -0.25213   -0.27568
 46 H     0.04243    0.16045   -0.20101

System changes: positions 

Initializing position-dependent things.

Density initialized from wave functions
                                             
                                             
                                             
                                             
                    H                        
                  O                          
                                             
                               Ag            
                  Ir    Ir                   
            Ag                               
                  AIr     Pt    Ru           
       Ir    IIr    IPt    Pt                
                                             
         Ru    Ir    PIr    Ag     Ir        
                Ag     Ag     Ag             
                                             
           Ir    PPt    RPt    Ir            
                                             
            Ir    IAg    AAg    Pt           
       Ag     Ir     Ir                      
             Ir     Ir     Ir                
        Ag     Ag     Ir                     
                                             
                                             
                                             
                                             
                                             

Positions:
   0 Ag     0.000000    1.621936   10.000000    ( 0.0000,  0.0000,  0.0000)
   1 Ag     2.809275    1.621936   10.000000    ( 0.0000,  0.0000,  0.0000)
   2 Ir     5.618550    1.621936   10.000000    ( 0.0000,  0.0000,  0.0000)
   3 Ir     1.404638    4.054840   10.000000    ( 0.0000,  0.0000,  0.0000)
   4 Ir     4.213913    4.054840   10.000000    ( 0.0000,  0.0000,  0.0000)
   5 Ir     7.023188    4.054840   10.000000    ( 0.0000,  0.0000,  0.0000)
   6 Ir     2.809275    6.487743   10.000000    ( 0.0000,  0.0000,  0.0000)
   7 Ag     5.618550    6.487743   10.000000    ( 0.0000,  0.0000,  0.0000)
   8 Pt     8.427826    6.487743   10.000000    ( 0.0000,  0.0000,  0.0000)
   9 Ag     0.000000    0.000000   12.293764    ( 0.0000,  0.0000,  0.0000)
  10 Ir     2.809275    0.000000   12.293764    ( 0.0000,  0.0000,  0.0000)
  11 Ir     5.618550    0.000000   12.293764    ( 0.0000,  0.0000,  0.0000)
  12 Ir     1.404638    2.432904   12.293764    ( 0.0000,  0.0000,  0.0000)
  13 Ag     4.213913    2.432904   12.293764    ( 0.0000,  0.0000,  0.0000)
  14 Ag     7.023188    2.432904   12.293764    ( 0.0000,  0.0000,  0.0000)
  15 Pt     2.809275    4.865807   12.293764    ( 0.0000,  0.0000,  0.0000)
  16 Ru     5.618550    4.865807   12.293764    ( 0.0000,  0.0000,  0.0000)
  17 Ir     8.427826    4.865807   12.293764    ( 0.0000,  0.0000,  0.0000)
  18 Ir     1.446510    0.792502   14.607259    ( 0.0000,  0.0000,  0.0000)
  19 Pt     4.196698    0.732099   14.623271    ( 0.0000,  0.0000,  0.0000)
  20 Pt     7.035805    0.787458   14.672514    ( 0.0000,  0.0000,  0.0000)
  21 Ag     2.793162    3.271919   14.619753    ( 0.0000,  0.0000,  0.0000)
  22 Ag     5.612113    3.230084   14.654382    ( 0.0000,  0.0000,  0.0000)
  23 Ag     8.471178    3.242152   14.621906    ( 0.0000,  0.0000,  0.0000)
[...]
  22 Ag     5.615267    3.194398   14.645376    ( 0.0000,  0.0000,  0.0000)
  23 Ag     8.474103    3.212984   14.625484    ( 0.0000,  0.0000,  0.0000)
  24 Pt     4.234838    5.647927   14.611127    ( 0.0000,  0.0000,  0.0000)
  25 Ag     7.022817    5.587460   14.584368    ( 0.0000,  0.0000,  0.0000)
  26 Ir     9.820654    5.728729   14.530644    ( 0.0000,  0.0000,  0.0000)
  27 Ru     0.081468    1.578590   16.923197    ( 0.0000,  0.0000,  0.0000)
  28 Ir     2.753804    1.555738   16.874747    ( 0.0000,  0.0000,  0.0000)
  29 Ir     5.571094    1.528925   16.896211    ( 0.0000,  0.0000,  0.0000)
  30 Ir     1.389984    3.945351   17.076725    ( 0.0000,  0.0000,  0.0000)
  31 Ir     4.162066    3.931698   16.977458    ( 0.0000,  0.0000,  0.0000)
  32 Pt     7.131202    3.975119   17.002126    ( 0.0000,  0.0000,  0.0000)
  33 Ag     2.753895    6.378910   16.849144    ( 0.0000,  0.0000,  0.0000)
  34 Ir     5.661986    6.481565   16.869811    ( 0.0000,  0.0000,  0.0000)
  35 Ru     8.404894    6.399928   16.860478    ( 0.0000,  0.0000,  0.0000)
  36 Ir     0.038777   -0.123277   18.996455    ( 0.0000,  0.0000,  0.0000)
  37 Ir     2.794721   -0.113346   18.986484    ( 0.0000,  0.0000,  0.0000)
  38 Pt     5.600406   -0.106808   19.151421    ( 0.0000,  0.0000,  0.0000)
  39 Ag     1.402567    2.297740   19.550158    ( 0.0000,  0.0000,  0.0000)
  40 Ir     4.243390    2.280253   19.019586    ( 0.0000,  0.0000,  0.0000)
  41 Pt     6.972748    2.229061   19.145664    ( 0.0000,  0.0000,  0.0000)
  42 Ir     2.928606    4.722689   19.169689    ( 0.0000,  0.0000,  0.0000)
  43 Ir     5.569295    4.879230   19.023424    ( 0.0000,  0.0000,  0.0000)
  44 Ag     8.408246    4.780086   19.530609    ( 0.0000,  0.0000,  0.0000)
  45 O      3.007844    4.802406   21.170482    ( 0.0000,  0.0000,  0.0000)
  46 H      3.106858    5.745772   21.445583    ( 0.0000,  0.0000,  0.0000)

Unit cell:
           periodic     x           y           z      points  spacing
  1. axis:    yes    8.445283    0.000000    0.000000    35     0.2090
  2. axis:    yes    4.222641    7.313829    0.000000    35     0.2090
  3. axis:    no     0.000000    0.000000   29.175054   135     0.2161

  Lengths:   8.445283   8.445283  29.175054
  Angles:   90.000000  90.000000  60.000000

Effective grid spacing dv^(1/3) = 0.2217

                     log10-error:    total        iterations:
           time      wfs    density  energy       fermi  poisson
iter:   1  10:37:28  -3.53   +inf  -269.052038    3             
iter:   2  10:38:44  -3.44  -2.79  -270.012500    2             
iter:   3  10:39:57  -3.67  -2.11  -269.133942    3             
iter:   4  10:41:10  -4.44  -2.58  -268.991556    3             
iter:   5  10:42:22  -5.65  -3.33  -268.990316    3             
iter:   6  10:43:33  -5.58  -3.42  -268.987460    2             
iter:   7  10:44:42  -5.87  -3.74  -268.987163    2             
iter:   8  10:45:52  -6.39  -3.87  -268.987172    2             
iter:   9  10:47:00  -5.82  -3.92  -268.987005    2             
iter:  10  10:48:09  -6.26  -3.48  -268.987169    2             
iter:  11  10:49:16  -6.85  -3.99  -268.986669    2             
iter:  12  10:50:30  -7.35  -4.09  -268.986712    2             
iter:  13  10:51:40  -7.14  -4.20  -268.986882    2             
iter:  14  10:52:48  -6.89  -4.26  -268.986843    2             
iter:  15  10:53:58  -7.48  -4.43  -268.986583    2             

Converged after 15 iterations.

Dipole moment: (11.444780, 22.601329, -0.031306) |e|*Ang

Energy contributions relative to reference atoms: (reference = -16429291.423757)

Kinetic:       -149.927531
Potential:      +92.426721
External:        +0.000000
XC:            -204.103156
Entropy (-ST):   -2.107623
Local:           -6.328804
--------------------------
Free energy:   -270.040394
Extrapolated:  -268.986583

Fermi level: 1.34577

Showing only first 2 kpts
 Kpt  Band  Eigenvalues  Occupancy
  0   357      1.32531    0.13774
  0   358      1.35407    0.11982
  0   359      1.38719    0.09947
  0   360      1.42628    0.07724

  1   357      1.21607    0.19633
  1   358      1.25398    0.17865
  1   359      1.26970    0.17038
  1   360      1.30151    0.15222



Forces in eV/Ang:
  0 Ag   -0.41578    0.15671   -1.04914
  1 Ag    0.24919    0.22379   -0.86813
  2 Ir    0.49469   -0.18425    0.05556
  3 Ir   -0.10498    1.22520    1.39993
  4 Ir    0.41276    0.40928    0.86850
  5 Ir   -0.33104   -0.01343    1.20445
  6 Ir   -1.70595   -0.51133    0.72189
  7 Ag   -0.12151   -0.34383   -0.95497
  8 Pt    1.05752   -0.39967    0.46988
  9 Ag    0.13402   -0.00739    0.22417
 10 Ir   -0.03169   -0.43045    1.02884
 11 Ir   -0.63709   -0.82364   -0.49038
 12 Ir    0.40074    0.11753    0.18642
 13 Ag   -0.01197   -0.03636    0.19730
 14 Ag    0.06718    0.05417    0.22114
 15 Pt   -0.11073   -0.09180   -0.59430
 16 Ru    0.61159    0.42731   -1.34220
 17 Ir    0.13936    0.23283   -1.22929
 18 Ir   -0.01726   -0.00260    0.00899
 19 Pt    0.01384   -0.01820    0.00715
 20 Pt   -0.00440    0.00123    0.01105
 21 Ag    0.00799    0.00401    0.00941
 22 Ag    0.02442    0.00980   -0.01431
 23 Ag    0.00689    0.00206   -0.00789
 24 Pt    0.01265   -0.00922   -0.01651
 25 Ag   -0.01162   -0.00175    0.00986
 26 Ir    0.00434   -0.01609   -0.00678
 27 Ru    0.02103    0.00895    0.00395
 28 Ir    0.01252    0.01195   -0.00019
 29 Ir    0.02389    0.00129   -0.02114
 30 Ir   -0.01548   -0.02225   -0.01325
 31 Ir   -0.00192   -0.02179    0.00436
 32 Pt    0.00969   -0.00898    0.01231
 33 Ag    0.02210    0.02591   -0.00250
 34 Ir    0.01575    0.00571   -0.00972
 35 Ru    0.00611    0.03381   -0.00492
 36 Ir   -0.04903   -0.00827   -0.01135
 37 Ir   -0.02191   -0.00913   -0.05028
 38 Pt   -0.00354   -0.00984   -0.03192
 39 Ag   -0.00913   -0.01792    0.01312
 40 Ir   -0.00352    0.02495   -0.04386
 41 Pt   -0.00159   -0.01249   -0.01171
 42 Ir    0.00179    0.00116    0.05760
 43 Ir   -0.00536   -0.00025   -0.01388
 44 Ag   -0.02412    0.01786    0.02461
 45 O    -0.11054   -0.09689   -0.06436
 46 H    -0.01600    0.06892    0.02278

System changes: positions 

Initializing position-dependent things.

Density initialized from wave functions
                                             
                                             
                                             
                                             
                   H                         
                  O                          
                                             
                               Ag            
                  Ir    Ir                   
            Ag            Pt    Ru           
                  AIr                        
       Ir    IIr    IPt    Pt                
                                             
         Ru    Ir    PIr    Ag     Ir        
                Ag     Ag     Ag             
                                             
           Ir    PPt    RPt    Ir            
                                             
            Ir     Ag    AAg    Pt           
       Ag    IIr    IIr    Ir                
                                             
        Ag     Ag     Ir                     
                                             
                                             
                                             
                                             
                                             

Positions:
   0 Ag     0.000000    1.621936   10.000000    ( 0.0000,  0.0000,  0.0000)
   1 Ag     2.809275    1.621936   10.000000    ( 0.0000,  0.0000,  0.0000)
   2 Ir     5.618550    1.621936   10.000000    ( 0.0000,  0.0000,  0.0000)
   3 Ir     1.404638    4.054840   10.000000    ( 0.0000,  0.0000,  0.0000)
   4 Ir     4.213913    4.054840   10.000000    ( 0.0000,  0.0000,  0.0000)
   5 Ir     7.023188    4.054840   10.000000    ( 0.0000,  0.0000,  0.0000)
   6 Ir     2.809275    6.487743   10.000000    ( 0.0000,  0.0000,  0.0000)
   7 Ag     5.618550    6.487743   10.000000    ( 0.0000,  0.0000,  0.0000)
   8 Pt     8.427826    6.487743   10.000000    ( 0.0000,  0.0000,  0.0000)
   9 Ag     0.000000    0.000000   12.293764    ( 0.0000,  0.0000,  0.0000)
  10 Ir     2.809275    0.000000   12.293764    ( 0.0000,  0.0000,  0.0000)
  11 Ir     5.618550    0.000000   12.293764    ( 0.0000,  0.0000,  0.0000)
  12 Ir     1.404638    2.432904   12.293764    ( 0.0000,  0.0000,  0.0000)
  13 Ag     4.213913    2.432904   12.293764    ( 0.0000,  0.0000,  0.0000)
  14 Ag     7.023188    2.432904   12.293764    ( 0.0000,  0.0000,  0.0000)
  15 Pt     2.809275    4.865807   12.293764    ( 0.0000,  0.0000,  0.0000)
  16 Ru     5.618550    4.865807   12.293764    ( 0.0000,  0.0000,  0.0000)
  17 Ir     8.427826    4.865807   12.293764    ( 0.0000,  0.0000,  0.0000)
  18 Ir     1.445609    0.757799   14.607960    ( 0.0000,  0.0000,  0.0000)
  19 Pt     4.196106    0.702416   14.616998    ( 0.0000,  0.0000,  0.0000)
  20 Pt     7.043381    0.763937   14.657032    ( 0.0000,  0.0000,  0.0000)
  21 Ag     2.789581    3.237099   14.621000    ( 0.0000,  0.0000,  0.0000)
  22 Ag     5.619659    3.194284   14.643608    ( 0.0000,  0.0000,  0.0000)
  23 Ag     8.475736    3.211386   14.624605    ( 0.0000,  0.0000,  0.0000)
  24 Pt     4.237307    5.644264   14.607364    ( 0.0000,  0.0000,  0.0000)
  25 Ag     7.022746    5.585332   14.585320    ( 0.0000,  0.0000,  0.0000)
  26 Ir     9.820613    5.726110   14.528076    ( 0.0000,  0.0000,  0.0000)
  27 Ru     0.083952    1.578879   16.922462    ( 0.0000,  0.0000,  0.0000)
  28 Ir     2.754496    1.554789   16.874706    ( 0.0000,  0.0000,  0.0000)
  29 Ir     5.576380    1.530389   16.889866    ( 0.0000,  0.0000,  0.0000)
  30 Ir     1.391377    3.942509   17.076147    ( 0.0000,  0.0000,  0.0000)
  31 Ir     4.162905    3.930749   16.974235    ( 0.0000,  0.0000,  0.0000)
  32 Pt     7.132698    3.974051   17.003263    ( 0.0000,  0.0000,  0.0000)
  33 Ag     2.757475    6.378549   16.843736    ( 0.0000,  0.0000,  0.0000)
  34 Ir     5.663217    6.478051   16.866578    ( 0.0000,  0.0000,  0.0000)
  35 Ru     8.405942    6.402243   16.857908    ( 0.0000,  0.0000,  0.0000)
  36 Ir     0.033354   -0.126091   18.992404    ( 0.0000,  0.0000,  0.0000)
  37 Ir     2.790674   -0.116331   18.982103    ( 0.0000,  0.0000,  0.0000)
  38 Pt     5.596921   -0.110696   19.142143    ( 0.0000,  0.0000,  0.0000)
  39 Ag     1.401692    2.293653   19.552931    ( 0.0000,  0.0000,  0.0000)
  40 Ir     4.242417    2.280112   19.015698    ( 0.0000,  0.0000,  0.0000)
  41 Pt     6.971015    2.225533   19.145288    ( 0.0000,  0.0000,  0.0000)
  42 Ir     2.927472    4.718199   19.172253    ( 0.0000,  0.0000,  0.0000)
  43 Ir     5.568051    4.878214   19.020331    ( 0.0000,  0.0000,  0.0000)
  44 Ag     8.403531    4.778259   19.534204    ( 0.0000,  0.0000,  0.0000)
  45 O      3.003299    4.803791   21.169950    ( 0.0000,  0.0000,  0.0000)
  46 H      3.095289    5.751010   21.439272    ( 0.0000,  0.0000,  0.0000)

Unit cell:
           periodic     x           y           z      points  spacing
  1. axis:    yes    8.445283    0.000000    0.000000    35     0.2090
  2. axis:    yes    4.222641    7.313829    0.000000    35     0.2090
  3. axis:    no     0.000000    0.000000   29.175054   135     0.2161

  Lengths:   8.445283   8.445283  29.175054
  Angles:   90.000000  90.000000  60.000000

Effective grid spacing dv^(1/3) = 0.2217

                     log10-error:    total        iterations:
           time      wfs    density  energy       fermi  poisson
iter:   1  10:55:35  -3.50   +inf  -269.464733    3             
iter:   2  10:56:44  -2.38  -2.31  -288.831056    3             
iter:   3  10:57:53  -2.65  -1.50  -268.999762    3             
iter:   4  10:59:02  -4.06  -3.16  -268.992994    3             
iter:   5  11:00:13  -5.24  -3.48  -268.991503    2             
iter:   6  11:01:25  -5.73  -3.54  -268.991020    3             
iter:   7  11:02:32  -5.98  -3.65  -268.989619    2             
iter:   8  11:03:40  -6.12  -3.73  -268.990799    2             
iter:   9  11:04:51  -6.17  -3.69  -268.989038    2             
iter:  10  11:06:01  -6.35  -3.83  -268.989116    2             
iter:  11  11:07:07  -6.75  -4.06  -268.989206    2             
iter:  12  11:08:14  -6.76  -4.12  -268.989333    2             
iter:  13  11:09:23  -7.06  -4.08  -268.988999    2             
iter:  14  11:10:31  -7.32  -4.12  -268.989466    2             
iter:  15  11:11:40  -7.43  -4.13  -268.989050    2             

Converged after 15 iterations.

Dipole moment: (11.942466, 22.849336, -0.033066) |e|*Ang

Energy contributions relative to reference atoms: (reference = -16429291.423757)

Kinetic:       -148.866212
Potential:      +91.502913
External:        +0.000000
XC:            -204.225812
Entropy (-ST):   -2.107011
Local:           -6.346432
--------------------------
Free energy:   -270.042555
Extrapolated:  -268.989050

Fermi level: 1.34521

Showing only first 2 kpts
 Kpt  Band  Eigenvalues  Occupancy
  0   357      1.32443    0.13794
  0   358      1.35394    0.11954
  0   359      1.38633    0.09966
  0   360      1.42607    0.07705

  1   357      1.21591    0.19616
  1   358      1.25346    0.17863
  1   359      1.26896    0.17047
  1   360      1.30026    0.15263



Forces in eV/Ang:
  0 Ag   -0.41804    0.15662   -1.04927
  1 Ag    0.25069    0.22450   -0.86608
  2 Ir    0.49523   -0.18578    0.05614
  3 Ir   -0.10553    1.22761    1.40344
  4 Ir    0.41302    0.41033    0.86990
  5 Ir   -0.33056   -0.01355    1.20119
  6 Ir   -1.70626   -0.51123    0.72066
  7 Ag   -0.12255   -0.34576   -0.95625
  8 Pt    1.05949   -0.40164    0.47043
  9 Ag    0.13143   -0.00481    0.20975
 10 Ir   -0.02833   -0.42448    1.02881
 11 Ir   -0.63507   -0.81944   -0.50563
 12 Ir    0.41280    0.11142    0.17841
 13 Ag   -0.01630   -0.04173    0.19627
 14 Ag    0.06903    0.05273    0.20280
 15 Pt   -0.10967   -0.10115   -0.61382
 16 Ru    0.61870    0.42462   -1.36572
 17 Ir    0.13058    0.23051   -1.24760
 18 Ir    0.00779    0.01376   -0.01253
 19 Pt   -0.01156    0.01839   -0.01367
 20 Pt    0.01408   -0.01939   -0.01059
 21 Ag    0.00885   -0.00279   -0.00636
 22 Ag   -0.00758   -0.00187   -0.01720
 23 Ag    0.01109    0.01153   -0.00114
 24 Pt   -0.02540    0.00932    0.00281
 25 Ag    0.01554    0.00485   -0.00276
 26 Ir    0.01215   -0.01403    0.02718
 27 Ru    0.00941    0.00674    0.01568
 28 Ir    0.02485    0.00752    0.00338
 29 Ir   -0.02904    0.00682    0.04486
 30 Ir   -0.01284    0.02619    0.01290
 31 Ir   -0.02307   -0.00999    0.02468
 32 Pt    0.03490    0.00880    0.00948
 33 Ag   -0.00949   -0.02879    0.01463
 34 Ir   -0.01118    0.01611    0.00136
 35 Ru    0.02039   -0.01106    0.00661
 36 Ir   -0.00210   -0.00627    0.02433
 37 Ir   -0.00018    0.01020    0.01612
 38 Pt   -0.01625    0.01472   -0.00702
 39 Ag   -0.01330   -0.02610    0.01365
 40 Ir    0.01624   -0.00697   -0.02592
 41 Pt   -0.00690   -0.00900    0.00162
 42 Ir    0.01546    0.00220   -0.06586
 43 Ir   -0.02098    0.00209    0.03466
 44 Ag   -0.01119    0.01260    0.01168
 45 O    -0.00816   -0.00400    0.01695
 46 H    -0.05296    0.03075    0.00648

Timing:                                      incl.     excl.
-------------------------------------------------------------------
Density initialized from wave functions:   149.400   149.397   0.3% |
 Symmetrize density:                         0.003     0.003   0.0% |
Forces:                                    624.929   624.929   1.1% |
Hamiltonian:                               114.711     0.315   0.0% |
 Atomic:                                    27.171    15.621   0.0% |
  XC Correction:                            11.550    11.550   0.0% |
 Calculate atomic Hamiltonians:             34.336    34.336   0.1% |
 Communicate:                               20.310    20.310   0.0% |
 Initialize Hamiltonian:                     0.001     0.001   0.0% |
 Poisson:                                    0.163     0.163   0.0% |
 XC 3D grid:                                32.415    32.415   0.1% |
LCAO initialization:                        54.933     3.380   0.0% |
 LCAO eigensolver:                           6.683     0.002   0.0% |
  Calculate projections:                     0.053     0.053   0.0% |
  DenseAtomicCorrection:                     0.061     0.061   0.0% |
  Distribute overlap matrix:                 0.302     0.302   0.0% |
  Orbital Layouts:                           0.553     0.553   0.0% |
  Potential matrix:                          5.669     5.669   0.0% |
  Sum over cells:                            0.043     0.043   0.0% |
 LCAO to grid:                              42.571    42.571   0.1% |
 Set positions (LCAO WFS):                   2.300     0.841   0.0% |
  Basic WFS set positions:                   0.003     0.003   0.0% |
  Basis functions set positions:             0.001     0.001   0.0% |
  P tci:                                     0.567     0.567   0.0% |
  ST tci:                                    0.669     0.669   0.0% |
  mktci:                                     0.219     0.219   0.0% |
PWDescriptor:                                0.044     0.044   0.0% |
Redistribute:                                0.316     0.316   0.0% |
SCF-cycle:                               54238.859  8700.081  15.7% |-----|
 Davidson:                               40732.326  9426.359  17.0% |------|
  Apply H:                                6872.712  6701.662  12.1% |----|
   HMM T:                                  171.050   171.050   0.3% |
  Subspace diag:                          5699.641     0.218   0.0% |
   calc_h_matrix:                         3324.639  1110.205   2.0% ||
    Apply H:                              2214.434  2154.933   3.9% |-|
     HMM T:                                 59.501    59.501   0.1% |
   diagonalize:                            207.943   207.943   0.4% |
   rotate_psi:                            2166.841  2166.841   3.9% |-|
  calc. matrices:                        12472.306  8014.656  14.4% |-----|
   Apply H:                               4457.651  4341.854   7.8% |--|
    HMM T:                                 115.796   115.796   0.2% |
  diagonalize:                            1953.851  1953.851   3.5% ||
  rotate_psi:                             4307.456  4307.456   7.8% |--|
 Density:                                 2441.101     0.040   0.0% |
  Atomic density matrices:                  12.343    12.343   0.0% |
  Mix:                                     818.102   818.102   1.5% ||
  Multipole moments:                         0.928     0.928   0.0% |
  Pseudo density:                         1609.688  1609.637   2.9% ||
   Symmetrize density:                       0.051     0.051   0.0% |
 Hamiltonian:                             2164.023     6.103   0.0% |
  Atomic:                                  502.298   283.745   0.5% |
   XC Correction:                          218.553   218.553   0.4% |
  Calculate atomic Hamiltonians:           671.848   671.848   1.2% |
  Communicate:                             356.138   356.138   0.6% |
  Poisson:                                   3.014     3.014   0.0% |
  XC 3D grid:                              624.621   624.621   1.1% |
 Orthonormalize:                           201.329     0.016   0.0% |
  calc_s_matrix:                            28.693    28.693   0.1% |
  inverse-cholesky:                          5.743     5.743   0.0% |
  projections:                             113.645   113.645   0.2% |
  rotate_psi_s:                             53.233    53.233   0.1% |
Set symmetry:                                0.001     0.001   0.0% |
Other:                                     293.939   293.939   0.5% |
-------------------------------------------------------------------
Total:                                             55477.132 100.0%

Date: Fri Mar  4 11:11:59 2022
