
  ___ ___ ___ _ _ _  
 |   |   |_  | | | | 
 | | | | | . | | | | 
 |__ |  _|___|_____|  1.5.1
 |___|_|             

User:   clausen@node035.cluster
Date:   Thu Mar  3 19:40:21 2022
Arch:   x86_64
Pid:    62722
Python: 3.6.12
gpaw:   /software/kemi/gpaw/1.5.1/gpaw
_gpaw:  /software/kemi/gpaw/1.5.1/bin/gpaw-python
ase:    /software/kemi/ase/3.17.0/ase (version 3.17.0)
numpy:  /opt/rh/rh-python36/root/usr/lib64/python3.6/site-packages/numpy (version 1.13.1)
scipy:  /opt/rh/rh-python36/root/usr/lib64/python3.6/site-packages/scipy (version 0.19.1)
units:  Angstrom and eV
cores:  16

Input parameters:
  kpts: [4 4 1]
  mode: {ecut: 400.0,
         gammacentered: False,
         name: pw}
  xc: RPBE

System changes: positions, numbers, cell, pbc, initial_charges, initial_magmoms 

Initialize ...

Ag-setup:
  name: Silver
  id: c05e55bab2c3858b3f9398f6d75cb77c
  Z: 47
  valence: 17
  core: 30
  charge: 0.0
  file: /software/kemi/gpaw-setups/0.9.20000/Ag.RPBE.gz
  cutoffs: 1.25(comp), 2.35(filt), 2.19(core), lmax=2
  valence states:
                energy  radius
    5s(1.00)    -4.277   1.286
    4p(6.00)   -58.523   1.328
    5p(0.00)    -0.755   1.328
    4d(10.00)    -7.386   1.180
    *s          22.934   1.286
    *d          19.826   1.180

  Using partial waves for Ag as LCAO basis

Ir-setup:
  name: Iridium
  id: 73b603359d1d5397a85ae3c2440f9033
  Z: 77
  valence: 15
  core: 62
  charge: 0.0
  file: /software/kemi/gpaw-setups/0.9.20000/Ir.RPBE.gz
  cutoffs: 1.26(comp), 2.40(filt), 2.36(core), lmax=2
  valence states:
                energy  radius
    6s(2.00)    -6.219   1.296
    5p(6.00)   -54.684   1.328
    6p(0.00)    -1.215   1.328
    5d(7.00)    -7.118   1.286
    *s          20.992   1.296
    *d          20.093   1.286

  Using partial waves for Ir as LCAO basis

Pt-setup:
  name: Platinum
  id: f04f522592575c47ad794f6b4a415b4b
  Z: 78
  valence: 16
  core: 62
  charge: 0.0
  file: /software/kemi/gpaw-setups/0.9.20000/Pt.RPBE.gz
  cutoffs: 1.29(comp), 2.26(filt), 2.26(core), lmax=2
  valence states:
                energy  radius
    6s(1.00)    -5.516   1.307
    5p(6.00)   -55.971   1.371
    6p(0.00)    -0.856   1.371
    5d(9.00)    -6.087   1.307
    *s          21.695   1.307
    *d          21.125   1.307

  Using partial waves for Pt as LCAO basis

Ru-setup:
  name: Ruthenium
  id: 76477906e28f51dc1b29884d53556fe9
  Z: 44
  valence: 16
  core: 28
  charge: 0.0
  file: /software/kemi/gpaw-setups/0.9.20000/Ru.RPBE.gz
  cutoffs: 1.23(comp), 2.16(filt), 1.30(core), lmax=2
  valence states:
                energy  radius
    4s(2.00)   -76.255   1.281
    5s(1.00)    -4.126   1.281
    4p(6.00)   -46.371   1.286
    5p(0.00)    -0.913   1.286
    4d(7.00)    -5.146   1.254
    *d          22.066   1.254

  Using partial waves for Ru as LCAO basis

O-setup:
  name: Oxygen
  id: 08071ca1eed670e7821b24b7eb4d558c
  Z: 8
  valence: 6
  core: 2
  charge: 0.0
  file: /software/kemi/gpaw-setups/0.9.20000/O.RPBE.gz
  cutoffs: 0.67(comp), 1.17(filt), 0.83(core), lmax=2
  valence states:
                energy  radius
    2s(2.00)   -24.041   0.688
    2p(4.00)    -8.984   0.598
    *s           3.170   0.688
    *p          18.228   0.598
    *d           0.000   0.619

  Using partial waves for O as LCAO basis

H-setup:
  name: Hydrogen
  id: ea3f9156a1dc40d47a60fdce8f8bd75d
  Z: 1
  valence: 1
  core: 0
  charge: 0.0
  file: /software/kemi/gpaw-setups/0.9.20000/H.RPBE.gz
  cutoffs: 0.48(comp), 0.85(filt), 0.53(core), lmax=2
  valence states:
                energy  radius
    1s(1.00)    -6.572   0.476
    *s          20.639   0.476
    *p           0.000   0.476

  Using partial waves for H as LCAO basis

Reference energy: -16429291.423757

Spin-paired calculation

Occupation numbers:
  Fermi-Dirac: width=0.1000 eV

Convergence criteria:
  Maximum total energy change: 0.0005 eV / electron
  Maximum integral of absolute density change: 0.0001 electrons
  Maximum integral of absolute eigenstate change: 4e-08 eV^2
  Maximum number of iterations: 333

Symmetries present (total): 1

  ( 1  0  0)
  ( 0  1  0)
  ( 0  0  1)

16 k-points: 4 x 4 x 1 Monkhorst-Pack grid
8 k-points in the irreducible part of the Brillouin zone
       k-points in crystal coordinates                weights
   0:     0.12500000   -0.37500000    0.00000000          2/16
   1:     0.12500000   -0.12500000    0.00000000          2/16
   2:     0.12500000    0.12500000    0.00000000          2/16
   3:     0.12500000    0.37500000    0.00000000          2/16
   4:     0.37500000   -0.37500000    0.00000000          2/16
   5:     0.37500000   -0.12500000    0.00000000          2/16
   6:     0.37500000    0.12500000    0.00000000          2/16
   7:     0.37500000    0.37500000    0.00000000          2/16

Wave functions: Plane wave expansion
  Cutoff energy: 400.000 eV
  Number of coefficients (min, max): 32722, 32776
  Pulay-stress correction: 0.000000 eV/Ang^3 (de/decut=0.000000)
  Using FFTW library
  ScaLapack parameters: grid=1x1, blocksize=None
  Wavefunction extrapolation:
    Improved wavefunction reuse through dual PAW basis 

Eigensolver
   Davidson(niter=2, smin=None, normalize=True) 

Densities:
  Coarse grid: 35*35*135 grid
  Fine grid: 70*70*270 grid
  Total Charge: 0.000000 

Density mixing:
  Method: separate
  Backend: pulay
  Linear mixing parameter: 0.05
  Mixing with 5 old densities
  Damping of long wave oscillations: 50 

Hamiltonian:
  XC and Coulomb potentials evaluated on a 70*70*270 grid
  Using the RPBE Exchange-Correlation functional
 

XC parameters: RPBE with 2 nearest neighbor stencil

Memory estimate:
  Process memory now: 152.84 MiB
  Calculator: 545.08 MiB
    Density: 51.32 MiB
      Arrays: 16.41 MiB
      Localized functions: 28.56 MiB
      Mixer: 6.36 MiB
    Hamiltonian: 11.63 MiB
      Arrays: 10.73 MiB
      XC: 0.00 MiB
      Poisson: 0.00 MiB
      vbar: 0.90 MiB
    Wavefunctions: 482.13 MiB
      Arrays psit_nG: 218.05 MiB
      Eigensolver: 249.57 MiB
      Projections: 2.75 MiB
      Projectors: 5.13 MiB
      PW-descriptor: 6.62 MiB

Total number of cores used: 16
Parallelization over k-points: 8
Domain decomposition: 1 x 1 x 2

Number of atoms: 47
Number of atomic orbitals: 548
Number of bands in calculation: 436
Bands to converge: occupied states only
Number of valence electrons: 719

... initialized

Initializing position-dependent things.

Density initialized from atomic densities
Creating initial wave functions:
  436 bands from LCAO basis set

                                             
                                             
                                             
                                             
                                             
                                             
              H                              
            O                                
                               Ag            
                  Ir    Ir                   
            Ag    AIr     Pt    Ru           
                                             
       Ir    IIr    IPt    Pt                
         Ru    Ir     Ir                     
                     Pt     Ag     Ir        
                Ag     Ag     Ag             
                                             
           Ir    PPt    RPt    Ir            
                                             
            Ir    IAg    AAg    Pt           
       Ag    IIr    IIr    Ir                
                                             
        Ag     Ag     Ir                     
                                             
                                             
                                             
                                             
                                             

Positions:
   0 Ag     0.000000    1.621936   10.000000    ( 0.0000,  0.0000,  0.0000)
   1 Ag     2.809275    1.621936   10.000000    ( 0.0000,  0.0000,  0.0000)
   2 Ir     5.618550    1.621936   10.000000    ( 0.0000,  0.0000,  0.0000)
   3 Ir     1.404638    4.054840   10.000000    ( 0.0000,  0.0000,  0.0000)
   4 Ir     4.213913    4.054840   10.000000    ( 0.0000,  0.0000,  0.0000)
   5 Ir     7.023188    4.054840   10.000000    ( 0.0000,  0.0000,  0.0000)
   6 Ir     2.809275    6.487743   10.000000    ( 0.0000,  0.0000,  0.0000)
   7 Ag     5.618550    6.487743   10.000000    ( 0.0000,  0.0000,  0.0000)
   8 Pt     8.427826    6.487743   10.000000    ( 0.0000,  0.0000,  0.0000)
   9 Ag     0.000000    0.000000   12.293764    ( 0.0000,  0.0000,  0.0000)
  10 Ir     2.809275    0.000000   12.293764    ( 0.0000,  0.0000,  0.0000)
  11 Ir     5.618550    0.000000   12.293764    ( 0.0000,  0.0000,  0.0000)
  12 Ir     1.404638    2.432904   12.293764    ( 0.0000,  0.0000,  0.0000)
  13 Ag     4.213913    2.432904   12.293764    ( 0.0000,  0.0000,  0.0000)
  14 Ag     7.023188    2.432904   12.293764    ( 0.0000,  0.0000,  0.0000)
  15 Pt     2.809275    4.865807   12.293764    ( 0.0000,  0.0000,  0.0000)
  16 Ru     5.618550    4.865807   12.293764    ( 0.0000,  0.0000,  0.0000)
  17 Ir     8.427826    4.865807   12.293764    ( 0.0000,  0.0000,  0.0000)
  18 Ir     1.441638    0.791118   14.593247    ( 0.0000,  0.0000,  0.0000)
  19 Pt     4.193480    0.729862   14.611205    ( 0.0000,  0.0000,  0.0000)
  20 Pt     7.034823    0.803600   14.634811    ( 0.0000,  0.0000,  0.0000)
  21 Ag     2.789574    3.267050   14.608106    ( 0.0000,  0.0000,  0.0000)
  22 Ag     5.614143    3.230616   14.629701    ( 0.0000,  0.0000,  0.0000)
  23 Ag     8.464759    3.239382   14.607930    ( 0.0000,  0.0000,  0.0000)
  24 Pt     4.237230    5.675263   14.599690    ( 0.0000,  0.0000,  0.0000)
  25 Ag     7.020289    5.624637   14.588938    ( 0.0000,  0.0000,  0.0000)
  26 Ir     9.810296    5.749034   14.534386    ( 0.0000,  0.0000,  0.0000)
  27 Ru     0.088724    1.655821   16.925664    ( 0.0000,  0.0000,  0.0000)
  28 Ir     2.745717    1.627778   16.875164    ( 0.0000,  0.0000,  0.0000)
  29 Ir     5.551846    1.597836   16.889230    ( 0.0000,  0.0000,  0.0000)
  30 Ir     1.358794    4.007324   17.013226    ( 0.0000,  0.0000,  0.0000)
  31 Ir     4.198339    3.977911   16.957702    ( 0.0000,  0.0000,  0.0000)
  32 Pt     7.125382    4.056246   16.998429    ( 0.0000,  0.0000,  0.0000)
  33 Ag     2.759687    6.474835   16.802442    ( 0.0000,  0.0000,  0.0000)
  34 Ir     5.663661    6.563267   16.864024    ( 0.0000,  0.0000,  0.0000)
  35 Ru     8.399575    6.483077   16.866623    ( 0.0000,  0.0000,  0.0000)
  36 Ir     0.015859   -0.055829   18.998154    ( 0.0000,  0.0000,  0.0000)
  37 Ir     2.776668   -0.025110   18.984491    ( 0.0000,  0.0000,  0.0000)
  38 Pt     5.623976   -0.052286   19.132338    ( 0.0000,  0.0000,  0.0000)
  39 Ag     1.411190    2.424549   19.550242    ( 0.0000,  0.0000,  0.0000)
  40 Ir     4.228423    2.403175   19.018562    ( 0.0000,  0.0000,  0.0000)
  41 Pt     6.964575    2.313754   19.128521    ( 0.0000,  0.0000,  0.0000)
  42 Ir     2.920544    4.885225   19.043791    ( 0.0000,  0.0000,  0.0000)
  43 Ir     5.524960    4.949858   19.026821    ( 0.0000,  0.0000,  0.0000)
  44 Ag     8.407084    4.876484   19.535850    ( 0.0000,  0.0000,  0.0000)
  45 O      1.411190    2.424549   21.550242    ( 0.0000,  0.0000,  0.0000)
  46 H      2.061190    3.074549   21.950242    ( 0.0000,  0.0000,  0.0000)

Unit cell:
           periodic     x           y           z      points  spacing
  1. axis:    yes    8.445283    0.000000    0.000000    35     0.2090
  2. axis:    yes    4.222641    7.313829    0.000000    35     0.2090
  3. axis:    no     0.000000    0.000000   29.175054   135     0.2161

  Lengths:   8.445283   8.445283  29.175054
  Angles:   90.000000  90.000000  60.000000

Effective grid spacing dv^(1/3) = 0.2217

                     log10-error:    total        iterations:
           time      wfs    density  energy       fermi  poisson
iter:   1  19:41:58  +0.19   +inf  -299.972139    3             
iter:   2  19:42:45  -1.11  -1.37  -296.391404    36            
iter:   3  19:43:33  -1.38  -1.33  -333.487324    35            
iter:   4  19:44:19  -1.81  -1.25  -278.937629    3             
iter:   5  19:45:07  -2.25  -1.48  -273.784704    36            
iter:   6  19:45:54  -2.36  -1.53  -272.148708    3             
iter:   7  19:46:39  -2.24  -1.58  -268.758966    3             
iter:   8  19:47:34  -2.44  -1.73  -268.023538    3             
iter:   9  19:48:32  -3.31  -1.88  -267.917785    3             
iter:  10  19:49:30  -2.66  -1.90  -268.655776    3             
iter:  11  19:50:28  -2.78  -1.96  -267.981625    3             
iter:  12  19:51:26  -3.20  -2.22  -268.318371    3             
iter:  13  19:52:24  -3.38  -2.17  -268.370358    3             
iter:  14  19:53:23  -3.45  -2.14  -267.814312    3             
iter:  15  19:54:24  -3.35  -2.40  -267.768707    2             
iter:  16  19:55:30  -3.56  -2.59  -267.736973    2             
iter:  17  19:56:29  -4.06  -2.70  -267.764905    3             
iter:  18  19:57:31  -4.14  -2.64  -267.748349    3             
iter:  19  19:58:34  -4.19  -2.73  -267.854953    3             
iter:  20  19:59:32  -4.12  -2.52  -267.744674    2             
iter:  21  20:00:37  -4.39  -2.89  -267.750232    3             
iter:  22  20:01:36  -4.80  -3.01  -267.750984    2             
iter:  23  20:02:35  -5.14  -3.11  -267.751555    2             
iter:  24  20:03:38  -5.08  -3.04  -267.749573    3             
iter:  25  20:04:37  -4.60  -3.26  -267.757109    2             
iter:  26  20:05:34  -5.43  -3.18  -267.746540    2             
iter:  27  20:06:38  -5.90  -3.49  -267.746406    2             
iter:  28  20:07:34  -6.25  -3.59  -267.746967    2             
iter:  29  20:08:38  -5.84  -3.65  -267.746461    2             
iter:  30  20:09:33  -6.42  -3.49  -267.746810    2             
iter:  31  20:10:26  -6.33  -3.75  -267.746857    2             
iter:  32  20:11:24  -6.11  -3.88  -267.746456    2             
iter:  33  20:12:28  -6.50  -3.88  -267.746891    2             
iter:  34  20:13:18  -7.01  -4.20  -267.747261    2             
iter:  35  20:14:07  -7.48  -4.15  -267.746844    2             

Converged after 35 iterations.

Dipole moment: (19.972908, 19.073260, -0.296240) |e|*Ang

Energy contributions relative to reference atoms: (reference = -16429291.423757)

Kinetic:       -143.991368
Potential:      +87.604910
External:        +0.000000
XC:            -203.893383
Entropy (-ST):   -2.112321
Local:           -6.410843
--------------------------
Free energy:   -268.803005
Extrapolated:  -267.746844

Fermi level: 1.21975

Showing only first 2 kpts
 Kpt  Band  Eigenvalues  Occupancy
  0   357      1.21095    0.13050
  0   358      1.23202    0.11734
  0   359      1.24961    0.10647
  0   360      1.30328    0.07563

  1   357      1.08025    0.20035
  1   358      1.13017    0.17752
  1   359      1.15858    0.16208
  1   360      1.16826    0.15649



Forces in eV/Ang:
  0 Ag   -0.42537    0.16568   -1.05307
  1 Ag    0.26033    0.23279   -0.86435
  2 Ir    0.49252   -0.18080    0.02299
  3 Ir   -0.10096    1.25290    1.39098
  4 Ir    0.41734    0.39483    0.85747
  5 Ir   -0.33074   -0.01796    1.20055
  6 Ir   -1.72643   -0.51814    0.74098
  7 Ag   -0.11805   -0.35480   -0.95964
  8 Pt    1.06677   -0.39948    0.49067
  9 Ag    0.13323    0.01016    0.17024
 10 Ir   -0.02874   -0.41887    0.98596
 11 Ir   -0.64668   -0.79556   -0.58321
 12 Ir    0.38962    0.16125    0.17514
 13 Ag   -0.01916   -0.03989    0.15144
 14 Ag    0.05295    0.08129    0.12741
 15 Pt   -0.15570   -0.03397   -0.62621
 16 Ru    0.63064    0.47792   -1.37930
 17 Ir    0.14809    0.29972   -1.26755
 18 Ir    0.01110    0.03018    0.02599
 19 Pt   -0.00064    0.05238    0.05881
 20 Pt   -0.01027    0.00934    0.08035
 21 Ag    0.00712    0.01361    0.02969
 22 Ag    0.02364   -0.00023    0.01280
 23 Ag    0.01541    0.02169   -0.00653
 24 Pt    0.01104    0.01066    0.04213
 25 Ag   -0.00541   -0.03487    0.00596
 26 Ir    0.01291   -0.03020    0.01238
 27 Ru    0.00895   -0.01045    0.11588
 28 Ir    0.00570    0.05006    0.18653
 29 Ir    0.00149    0.07140    0.08951
 30 Ir   -0.06423   -0.07631    0.11781
 31 Ir   -0.02450    0.01420    0.02372
 32 Pt    0.02789    0.00696   -0.00694
 33 Ag   -0.01374   -0.02863   -0.07117
 34 Ir   -0.00665   -0.06684    0.06210
 35 Ru   -0.01933   -0.05794    0.08974
 36 Ir   -0.08191   -0.19361   -0.11163
 37 Ir    0.11215   -0.17117   -0.11741
 38 Pt   -0.05803   -0.01850    0.04836
 39 Ag    0.08067    0.09899   -1.06806
 40 Ir    0.09572   -0.06079   -0.11639
 41 Pt   -0.14344   -0.11085   -0.12842
 42 Ir    0.13785    0.14302   -0.11523
 43 Ir   -0.04857    0.01557    0.02581
 44 Ag   -0.05646    0.02269    0.04417
 45 O     0.44201    0.49437    1.68087
 46 H    -0.42739   -0.42287   -0.38034

System changes: positions 

Initializing position-dependent things.

Density initialized from wave functions
                                             
                                             
                                             
                                             
                                             
                                             
              H                              
             O                               
                               Ag            
                  Ir    Ir                   
            Ag    AIr     Pt    Ru           
                                             
       Ir    IIr    IPt     Pt               
         Ru    Ir     Ir                     
                     Pt     Ag     Ir        
                Ag     Ag     Ag             
                                             
           Ir    PPt    RPt    Ir            
                                             
            Ir    IAg    AAg    Pt           
       Ag    IIr    IIr    Ir                
                                             
        Ag     Ag     Ir                     
                                             
                                             
                                             
                                             
                                             

Positions:
   0 Ag     0.000000    1.621936   10.000000    ( 0.0000,  0.0000,  0.0000)
   1 Ag     2.809275    1.621936   10.000000    ( 0.0000,  0.0000,  0.0000)
   2 Ir     5.618550    1.621936   10.000000    ( 0.0000,  0.0000,  0.0000)
   3 Ir     1.404638    4.054840   10.000000    ( 0.0000,  0.0000,  0.0000)
   4 Ir     4.213913    4.054840   10.000000    ( 0.0000,  0.0000,  0.0000)
   5 Ir     7.023188    4.054840   10.000000    ( 0.0000,  0.0000,  0.0000)
   6 Ir     2.809275    6.487743   10.000000    ( 0.0000,  0.0000,  0.0000)
   7 Ag     5.618550    6.487743   10.000000    ( 0.0000,  0.0000,  0.0000)
   8 Pt     8.427826    6.487743   10.000000    ( 0.0000,  0.0000,  0.0000)
   9 Ag     0.000000    0.000000   12.293764    ( 0.0000,  0.0000,  0.0000)
  10 Ir     2.809275    0.000000   12.293764    ( 0.0000,  0.0000,  0.0000)
  11 Ir     5.618550    0.000000   12.293764    ( 0.0000,  0.0000,  0.0000)
  12 Ir     1.404638    2.432904   12.293764    ( 0.0000,  0.0000,  0.0000)
  13 Ag     4.213913    2.432904   12.293764    ( 0.0000,  0.0000,  0.0000)
  14 Ag     7.023188    2.432904   12.293764    ( 0.0000,  0.0000,  0.0000)
  15 Pt     2.809275    4.865807   12.293764    ( 0.0000,  0.0000,  0.0000)
  16 Ru     5.618550    4.865807   12.293764    ( 0.0000,  0.0000,  0.0000)
  17 Ir     8.427826    4.865807   12.293764    ( 0.0000,  0.0000,  0.0000)
  18 Ir     1.442748    0.794136   14.595846    ( 0.0000,  0.0000,  0.0000)
  19 Pt     4.193416    0.735100   14.617085    ( 0.0000,  0.0000,  0.0000)
  20 Pt     7.033796    0.804534   14.642846    ( 0.0000,  0.0000,  0.0000)
  21 Ag     2.790286    3.268411   14.611075    ( 0.0000,  0.0000,  0.0000)
  22 Ag     5.616507    3.230593   14.630981    ( 0.0000,  0.0000,  0.0000)
  23 Ag     8.466300    3.241551   14.607276    ( 0.0000,  0.0000,  0.0000)
  24 Pt     4.238333    5.676329   14.603904    ( 0.0000,  0.0000,  0.0000)
  25 Ag     7.019748    5.621150   14.589534    ( 0.0000,  0.0000,  0.0000)
  26 Ir     9.811587    5.746014   14.535624    ( 0.0000,  0.0000,  0.0000)
  27 Ru     0.089619    1.654776   16.937252    ( 0.0000,  0.0000,  0.0000)
  28 Ir     2.746287    1.632784   16.893817    ( 0.0000,  0.0000,  0.0000)
  29 Ir     5.551996    1.604976   16.898181    ( 0.0000,  0.0000,  0.0000)
  30 Ir     1.352371    3.999694   17.025007    ( 0.0000,  0.0000,  0.0000)
  31 Ir     4.195889    3.979331   16.960075    ( 0.0000,  0.0000,  0.0000)
  32 Pt     7.128170    4.056941   16.997735    ( 0.0000,  0.0000,  0.0000)
  33 Ag     2.758313    6.471971   16.795325    ( 0.0000,  0.0000,  0.0000)
  34 Ir     5.662996    6.556583   16.870234    ( 0.0000,  0.0000,  0.0000)
  35 Ru     8.397642    6.477283   16.875597    ( 0.0000,  0.0000,  0.0000)
  36 Ir     0.007668   -0.075189   18.986991    ( 0.0000,  0.0000,  0.0000)
  37 Ir     2.787884   -0.042227   18.972750    ( 0.0000,  0.0000,  0.0000)
  38 Pt     5.618172   -0.054136   19.137174    ( 0.0000,  0.0000,  0.0000)
  39 Ag     1.419256    2.434448   19.443436    ( 0.0000,  0.0000,  0.0000)
  40 Ir     4.237995    2.397096   19.006923    ( 0.0000,  0.0000,  0.0000)
  41 Pt     6.950232    2.302668   19.115679    ( 0.0000,  0.0000,  0.0000)
  42 Ir     2.934329    4.899526   19.032268    ( 0.0000,  0.0000,  0.0000)
  43 Ir     5.520104    4.951415   19.029402    ( 0.0000,  0.0000,  0.0000)
  44 Ag     8.401438    4.878753   19.540268    ( 0.0000,  0.0000,  0.0000)
  45 O      1.455391    2.473986   21.718329    ( 0.0000,  0.0000,  0.0000)
  46 H      2.018451    3.032262   21.912209    ( 0.0000,  0.0000,  0.0000)

Unit cell:
           periodic     x           y           z      points  spacing
  1. axis:    yes    8.445283    0.000000    0.000000    35     0.2090
  2. axis:    yes    4.222641    7.313829    0.000000    35     0.2090
  3. axis:    no     0.000000    0.000000   29.175054   135     0.2161

  Lengths:   8.445283   8.445283  29.175054
  Angles:   90.000000  90.000000  60.000000

Effective grid spacing dv^(1/3) = 0.2217

                     log10-error:    total        iterations:
           time      wfs    density  energy       fermi  poisson
iter:   1  20:15:40  -1.93   +inf  -287.405180    35            
iter:   2  20:16:30  -0.26  -1.50  -623.870979    36            
iter:   3  20:17:19  -0.81  -0.94  -284.267199    38            
iter:   4  20:18:11  -2.00  -1.61  -267.597229    36            
iter:   5  20:19:16  -3.23  -2.26  -267.065418    3             
iter:   6  20:20:15  -3.98  -2.55  -267.042975    3             
iter:   7  20:21:13  -3.12  -2.52  -267.561915    3             
iter:   8  20:22:11  -3.96  -2.15  -266.821958    3             
iter:   9  20:23:10  -3.80  -2.76  -266.916805    3             
iter:  10  20:24:08  -4.29  -2.49  -266.799357    3             
iter:  11  20:25:07  -4.45  -2.76  -267.049322    3             
iter:  12  20:26:05  -3.91  -2.36  -266.749097    3             
iter:  13  20:27:04  -4.82  -2.87  -266.732118    2             
iter:  14  20:28:01  -5.34  -3.27  -266.731211    2             
iter:  15  20:28:59  -5.59  -3.20  -266.730485    2             
iter:  16  20:29:58  -5.60  -3.35  -266.731514    2             
iter:  17  20:30:55  -5.72  -3.52  -266.730768    2             
iter:  18  20:31:54  -5.46  -3.69  -266.736306    2             
iter:  19  20:32:51  -5.79  -3.36  -266.731120    2             
iter:  20  20:33:49  -6.30  -3.70  -266.731137    2             
iter:  21  20:34:48  -6.82  -3.87  -266.731043    2             
iter:  22  20:35:46  -6.23  -3.92  -266.730899    2             
iter:  23  20:36:44  -6.65  -4.02  -266.731137    2             
iter:  24  20:37:43  -7.28  -4.21  -266.730835    2             
iter:  25  20:38:40  -6.94  -4.06  -266.731551    2             
iter:  26  20:39:38  -6.96  -4.07  -266.731301    2             
iter:  27  20:40:44  -7.53  -4.32  -266.731216    2             

Converged after 27 iterations.

Dipole moment: (19.494778, 20.836731, -0.547597) |e|*Ang

Energy contributions relative to reference atoms: (reference = -16429291.423757)

Kinetic:       -132.334386
Potential:      +79.836637
External:        +0.000000
XC:            -206.822315
Entropy (-ST):   -2.111083
Local:           -6.355610
--------------------------
Free energy:   -267.786758
Extrapolated:  -266.731216

Fermi level: 1.10737

Showing only first 2 kpts
 Kpt  Band  Eigenvalues  Occupancy
  0   357      1.09533    0.13252
  0   358      1.11486    0.12032
  0   359      1.13767    0.10621
  0   360      1.19044    0.07587

  1   357      0.96724    0.20060
  1   358      1.02054    0.17610
  1   359      1.04231    0.16428
  1   360      1.05492    0.15705



Forces in eV/Ang:
  0 Ag   -0.41890    0.15910   -1.05011
  1 Ag    0.25101    0.22897   -0.86289
  2 Ir    0.49557   -0.17729    0.03862
  3 Ir   -0.10409    1.23801    1.39426
  4 Ir    0.42029    0.39637    0.87488
  5 Ir   -0.33279   -0.02077    1.20571
  6 Ir   -1.70705   -0.50829    0.75408
  7 Ag   -0.12200   -0.34571   -0.95825
  8 Pt    1.05174   -0.39568    0.49954
  9 Ag    0.12971    0.01444    0.19460
 10 Ir   -0.03295   -0.41852    1.00526
 11 Ir   -0.64429   -0.78228   -0.55414
 12 Ir    0.39445    0.15274    0.18498
 13 Ag   -0.01331   -0.03496    0.16734
 14 Ag    0.05000    0.06994    0.14610
 15 Pt   -0.13858   -0.03651   -0.61998
 16 Ru    0.62769    0.47476   -1.37147
 17 Ir    0.13963    0.30366   -1.26096
 18 Ir    0.01932   -0.01020    0.04865
 19 Pt    0.00194   -0.01747    0.07965
 20 Pt    0.00177    0.03801    0.01555
 21 Ag    0.00771   -0.00142    0.04562
 22 Ag    0.00449   -0.00279    0.00827
 23 Ag    0.01050   -0.01945    0.01693
 24 Pt    0.02415    0.00102   -0.01342
 25 Ag    0.01988    0.03713    0.01043
 26 Ir   -0.02122    0.02219   -0.01768
 27 Ru   -0.06721   -0.06679   -0.08818
 28 Ir   -0.00624   -0.04601   -0.12915
 29 Ir    0.03061   -0.04888   -0.14526
 30 Ir   -0.01854    0.12014   -0.06403
 31 Ir    0.03493    0.01632   -0.11746
 32 Pt   -0.01933    0.00175    0.00180
 33 Ag   -0.10576    0.00578   -0.06886
 34 Ir    0.01340   -0.02120   -0.13037
 35 Ru    0.01919   -0.07220   -0.01948
 36 Ir   -0.01189    0.09955    0.03452
 37 Ir    0.03214   -0.07776    0.12839
 38 Pt   -0.01826   -0.09323   -0.02591
 39 Ag   -0.05017   -0.05127    1.27009
 40 Ir    0.00982    0.00678    0.15007
 41 Pt    0.07819   -0.00637    0.02695
 42 Ir   -0.12813   -0.00216    0.03253
 43 Ir    0.14604   -0.08316    0.01719
 44 Ag   -0.01899   -0.08156    0.09957
 45 O    -9.66228   -9.47997   -4.32158
 46 H     9.63159    9.56772    3.39341

System changes: positions 

Initializing position-dependent things.

Density initialized from wave functions
                                             
                                             
                                             
                                             
                                             
                                             
              H                              
            O                                
                               Ag            
                  Ir    Ir                   
            Ag    AIr     Pt    Ru           
                                             
       Ir    IIr    IPt    Pt                
         Ru    Ir     Ir                     
                     Pt     Ag     Ir        
                Ag     Ag     Ag             
                                             
           Ir    PPt    RPt    Ir            
                                             
            Ir    IAg    AAg    Pt           
       Ag    IIr    IIr    Ir                
                                             
        Ag     Ag     Ir                     
                                             
                                             
                                             
                                             
                                             

Positions:
   0 Ag     0.000000    1.621936   10.000000    ( 0.0000,  0.0000,  0.0000)
   1 Ag     2.809275    1.621936   10.000000    ( 0.0000,  0.0000,  0.0000)
   2 Ir     5.618550    1.621936   10.000000    ( 0.0000,  0.0000,  0.0000)
   3 Ir     1.404638    4.054840   10.000000    ( 0.0000,  0.0000,  0.0000)
   4 Ir     4.213913    4.054840   10.000000    ( 0.0000,  0.0000,  0.0000)
   5 Ir     7.023188    4.054840   10.000000    ( 0.0000,  0.0000,  0.0000)
   6 Ir     2.809275    6.487743   10.000000    ( 0.0000,  0.0000,  0.0000)
   7 Ag     5.618550    6.487743   10.000000    ( 0.0000,  0.0000,  0.0000)
   8 Pt     8.427826    6.487743   10.000000    ( 0.0000,  0.0000,  0.0000)
   9 Ag     0.000000    0.000000   12.293764    ( 0.0000,  0.0000,  0.0000)
  10 Ir     2.809275    0.000000   12.293764    ( 0.0000,  0.0000,  0.0000)
  11 Ir     5.618550    0.000000   12.293764    ( 0.0000,  0.0000,  0.0000)
  12 Ir     1.404638    2.432904   12.293764    ( 0.0000,  0.0000,  0.0000)
  13 Ag     4.213913    2.432904   12.293764    ( 0.0000,  0.0000,  0.0000)
  14 Ag     7.023188    2.432904   12.293764    ( 0.0000,  0.0000,  0.0000)
  15 Pt     2.809275    4.865807   12.293764    ( 0.0000,  0.0000,  0.0000)
  16 Ru     5.618550    4.865807   12.293764    ( 0.0000,  0.0000,  0.0000)
  17 Ir     8.427826    4.865807   12.293764    ( 0.0000,  0.0000,  0.0000)
  18 Ir     1.441836    0.791657   14.593711    ( 0.0000,  0.0000,  0.0000)
  19 Pt     4.193469    0.730797   14.612254    ( 0.0000,  0.0000,  0.0000)
  20 Pt     7.034640    0.803766   14.636245    ( 0.0000,  0.0000,  0.0000)
  21 Ag     2.789701    3.267293   14.608636    ( 0.0000,  0.0000,  0.0000)
  22 Ag     5.614565    3.230612   14.629929    ( 0.0000,  0.0000,  0.0000)
  23 Ag     8.465034    3.239769   14.607813    ( 0.0000,  0.0000,  0.0000)
  24 Pt     4.237427    5.675453   14.600442    ( 0.0000,  0.0000,  0.0000)
  25 Ag     7.020193    5.624015   14.589044    ( 0.0000,  0.0000,  0.0000)
  26 Ir     9.810527    5.748495   14.534607    ( 0.0000,  0.0000,  0.0000)
  27 Ru     0.088884    1.655634   16.927732    ( 0.0000,  0.0000,  0.0000)
  28 Ir     2.745819    1.628671   16.878493    ( 0.0000,  0.0000,  0.0000)
  29 Ir     5.551873    1.599110   16.890827    ( 0.0000,  0.0000,  0.0000)
  30 Ir     1.357647    4.005962   17.015329    ( 0.0000,  0.0000,  0.0000)
  31 Ir     4.197902    3.978164   16.958126    ( 0.0000,  0.0000,  0.0000)
  32 Pt     7.125879    4.056370   16.998305    ( 0.0000,  0.0000,  0.0000)
  33 Ag     2.759442    6.474324   16.801172    ( 0.0000,  0.0000,  0.0000)
  34 Ir     5.663543    6.562074   16.865132    ( 0.0000,  0.0000,  0.0000)
  35 Ru     8.399230    6.482043   16.868225    ( 0.0000,  0.0000,  0.0000)
  36 Ir     0.014397   -0.059284   18.996162    ( 0.0000,  0.0000,  0.0000)
  37 Ir     2.778670   -0.028165   18.982396    ( 0.0000,  0.0000,  0.0000)
  38 Pt     5.622940   -0.052616   19.133201    ( 0.0000,  0.0000,  0.0000)
  39 Ag     1.412630    2.426316   19.531180    ( 0.0000,  0.0000,  0.0000)
  40 Ir     4.230131    2.402090   19.016485    ( 0.0000,  0.0000,  0.0000)
  41 Pt     6.962015    2.311775   19.126229    ( 0.0000,  0.0000,  0.0000)
  42 Ir     2.923005    4.887777   19.041734    ( 0.0000,  0.0000,  0.0000)
  43 Ir     5.524094    4.950136   19.027281    ( 0.0000,  0.0000,  0.0000)
  44 Ag     8.406076    4.876889   19.536639    ( 0.0000,  0.0000,  0.0000)
  45 O      1.419079    2.433372   21.580242    ( 0.0000,  0.0000,  0.0000)
  46 H      2.053562    3.067002   21.943454    ( 0.0000,  0.0000,  0.0000)

Unit cell:
           periodic     x           y           z      points  spacing
  1. axis:    yes    8.445283    0.000000    0.000000    35     0.2090
  2. axis:    yes    4.222641    7.313829    0.000000    35     0.2090
  3. axis:    no     0.000000    0.000000   29.175054   135     0.2161

  Lengths:   8.445283   8.445283  29.175054
  Angles:   90.000000  90.000000  60.000000

Effective grid spacing dv^(1/3) = 0.2217

                     log10-error:    total        iterations:
           time      wfs    density  energy       fermi  poisson
iter:   1  20:42:11  -1.86   +inf  -284.746571    35            
iter:   2  20:43:09  -0.43  -1.53  -584.606638    38            
iter:   3  20:44:09  -1.18  -0.97  -279.286501    36            
iter:   4  20:45:13  -2.17  -1.67  -268.619609    4             
iter:   5  20:46:16  -3.21  -2.30  -268.437690    3             
iter:   6  20:47:14  -3.44  -2.33  -268.036452    3             
iter:   7  20:48:12  -3.74  -2.59  -267.940253    3             
iter:   8  20:49:12  -3.95  -2.65  -267.856507    3             
iter:   9  20:50:10  -4.10  -2.78  -267.968132    2             
iter:  10  20:51:13  -4.26  -2.54  -267.823682    3             
iter:  11  20:52:11  -4.11  -2.95  -267.818088    3             
iter:  12  20:53:05  -4.46  -2.98  -267.803359    3             
iter:  13  20:54:00  -5.45  -3.18  -267.802542    2             
iter:  14  20:54:55  -5.54  -3.21  -267.796919    2             
iter:  15  20:55:57  -5.35  -3.37  -267.806754    2             
iter:  16  20:56:57  -5.39  -3.11  -267.795984    2             
iter:  17  20:57:52  -5.66  -3.53  -267.796973    2             
iter:  18  20:58:47  -6.14  -3.58  -267.796642    2             
iter:  19  20:59:37  -6.04  -3.68  -267.796894    2             
iter:  20  21:00:27  -5.90  -3.74  -267.796446    2             
iter:  21  21:01:32  -6.47  -3.47  -267.797107    2             
iter:  22  21:02:26  -6.66  -3.92  -267.796406    2             
iter:  23  21:03:15  -6.49  -3.79  -267.796365    2             
iter:  24  21:04:11  -6.14  -3.93  -267.796667    2             
iter:  25  21:05:16  -6.98  -4.09  -267.796462    2             
iter:  26  21:06:14  -7.21  -4.04  -267.796416    2             
iter:  27  21:07:03  -6.42  -4.14  -267.800013    2             
iter:  28  21:07:54  -6.70  -3.53  -267.796746    2             
iter:  29  21:08:59  -7.54  -4.56  -267.796727    2             

Converged after 29 iterations.

Dipole moment: (19.884956, 19.392980, -0.344258) |e|*Ang

Energy contributions relative to reference atoms: (reference = -16429291.423757)

Kinetic:       -145.433019
Potential:      +89.297358
External:        +0.000000
XC:            -204.252612
Entropy (-ST):   -2.111503
Local:           -6.352703
--------------------------
Free energy:   -268.852479
Extrapolated:  -267.796727

Fermi level: 1.19929

Showing only first 2 kpts
 Kpt  Band  Eigenvalues  Occupancy
  0   357      1.19029    0.13062
  0   358      1.21042    0.11805
  0   359      1.22925    0.10641
  0   360      1.28292    0.07558

  1   357      1.05956    0.20044
  1   358      1.11021    0.17726
  1   359      1.13730    0.16255
  1   360      1.14744    0.15670



Forces in eV/Ang:
  0 Ag   -0.41807    0.15698   -1.04992
  1 Ag    0.25136    0.22660   -0.86280
  2 Ir    0.49476   -0.17824    0.03812
  3 Ir   -0.10206    1.23819    1.39897
  4 Ir    0.42015    0.39586    0.87534
  5 Ir   -0.33290   -0.01903    1.21118
  6 Ir   -1.70671   -0.50735    0.75345
  7 Ag   -0.12074   -0.34387   -0.95722
  8 Pt    1.05163   -0.39311    0.49473
  9 Ag    0.13437    0.01339    0.16905
 10 Ir   -0.03691   -0.41791    0.97938
 11 Ir   -0.64258   -0.78350   -0.58498
 12 Ir    0.38647    0.15560    0.16887
 13 Ag   -0.01285   -0.03450    0.15499
 14 Ag    0.04993    0.07994    0.13439
 15 Pt   -0.14324   -0.03889   -0.62697
 16 Ru    0.62986    0.47156   -1.37723
 17 Ir    0.13859    0.29330   -1.26514
 18 Ir    0.00872    0.02366    0.02390
 19 Pt    0.00453    0.04860    0.05877
 20 Pt   -0.00843    0.02576    0.06637
 21 Ag    0.01262    0.01445    0.02947
 22 Ag    0.02354    0.00136    0.00717
 23 Ag    0.00558    0.01589   -0.00609
 24 Pt    0.01719    0.00060    0.03159
 25 Ag   -0.00369   -0.03264    0.00394
 26 Ir    0.00552   -0.02747    0.00906
 27 Ru   -0.00995   -0.01740    0.09242
 28 Ir   -0.00175    0.03667    0.14386
 29 Ir    0.01622    0.04868    0.05542
 30 Ir   -0.06187   -0.04311    0.10906
 31 Ir   -0.01143    0.01910   -0.00368
 32 Pt    0.02268    0.00452   -0.00109
 33 Ag   -0.03136   -0.01925   -0.06344
 34 Ir   -0.00736   -0.06379    0.03591
 35 Ru   -0.00836   -0.06594    0.08403
 36 Ir   -0.07669   -0.13861   -0.09776
 37 Ir    0.11054   -0.15810   -0.07648
 38 Pt   -0.05503   -0.04493    0.02535
 39 Ag    0.05100    0.07930   -0.40977
 40 Ir    0.07210   -0.05063   -0.07281
 41 Pt   -0.09515   -0.08346   -0.11073
 42 Ir    0.07107    0.11333   -0.09181
 43 Ir   -0.00274   -0.00716    0.02056
 44 Ag   -0.04256    0.00054    0.04332
 45 O    -0.58047   -0.50996    0.34835
 46 H     0.60689    0.61299    0.25348

System changes: positions 

Initializing position-dependent things.

Density initialized from wave functions
                                             
                                             
                                             
                                             
                                             
                                             
               H                             
            O                                
                               Ag            
                  Ir    Ir                   
            Ag    AIr     Pt    Ru           
                                             
       Ir    IIr    IPt     Pt               
         Ru    Ir     Ir                     
                     Pt     Ag     Ir        
                Ag     Ag     Ag             
                                             
           Ir    PPt    RPt    Ir            
                                             
            Ir    IAg    AAg    Pt           
       Ag    IIr    IIr    Ir                
                                             
        Ag     Ag     Ir                     
                                             
                                             
                                             
                                             
                                             

Positions:
   0 Ag     0.000000    1.621936   10.000000    ( 0.0000,  0.0000,  0.0000)
   1 Ag     2.809275    1.621936   10.000000    ( 0.0000,  0.0000,  0.0000)
   2 Ir     5.618550    1.621936   10.000000    ( 0.0000,  0.0000,  0.0000)
   3 Ir     1.404638    4.054840   10.000000    ( 0.0000,  0.0000,  0.0000)
   4 Ir     4.213913    4.054840   10.000000    ( 0.0000,  0.0000,  0.0000)
   5 Ir     7.023188    4.054840   10.000000    ( 0.0000,  0.0000,  0.0000)
   6 Ir     2.809275    6.487743   10.000000    ( 0.0000,  0.0000,  0.0000)
   7 Ag     5.618550    6.487743   10.000000    ( 0.0000,  0.0000,  0.0000)
   8 Pt     8.427826    6.487743   10.000000    ( 0.0000,  0.0000,  0.0000)
   9 Ag     0.000000    0.000000   12.293764    ( 0.0000,  0.0000,  0.0000)
  10 Ir     2.809275    0.000000   12.293764    ( 0.0000,  0.0000,  0.0000)
  11 Ir     5.618550    0.000000   12.293764    ( 0.0000,  0.0000,  0.0000)
  12 Ir     1.404638    2.432904   12.293764    ( 0.0000,  0.0000,  0.0000)
  13 Ag     4.213913    2.432904   12.293764    ( 0.0000,  0.0000,  0.0000)
  14 Ag     7.023188    2.432904   12.293764    ( 0.0000,  0.0000,  0.0000)
  15 Pt     2.809275    4.865807   12.293764    ( 0.0000,  0.0000,  0.0000)
  16 Ru     5.618550    4.865807   12.293764    ( 0.0000,  0.0000,  0.0000)
  17 Ir     8.427826    4.865807   12.293764    ( 0.0000,  0.0000,  0.0000)
  18 Ir     1.443147    0.795217   14.597144    ( 0.0000,  0.0000,  0.0000)
  19 Pt     4.193918    0.737762   14.620513    ( 0.0000,  0.0000,  0.0000)
  20 Pt     7.033389    0.806790   14.646076    ( 0.0000,  0.0000,  0.0000)
  21 Ag     2.791275    3.269293   14.612784    ( 0.0000,  0.0000,  0.0000)
  22 Ag     5.617876    3.230746   14.631141    ( 0.0000,  0.0000,  0.0000)
  23 Ag     8.466175    3.242212   14.606941    ( 0.0000,  0.0000,  0.0000)
  24 Pt     4.239618    5.675902   14.605263    ( 0.0000,  0.0000,  0.0000)
  25 Ag     7.019612    5.619348   14.589671    ( 0.0000,  0.0000,  0.0000)
  26 Ir     9.811570    5.744537   14.536000    ( 0.0000,  0.0000,  0.0000)
  27 Ru     0.088171    1.653441   16.941566    ( 0.0000,  0.0000,  0.0000)
  28 Ir     2.745843    1.634309   16.900250    ( 0.0000,  0.0000,  0.0000)
  29 Ir     5.553618    1.606772   16.899849    ( 0.0000,  0.0000,  0.0000)
  30 Ir     1.348869    3.998703   17.030968    ( 0.0000,  0.0000,  0.0000)
  31 Ir     4.195822    3.980670   16.958602    ( 0.0000,  0.0000,  0.0000)
  32 Pt     7.129254    4.057093   16.997941    ( 0.0000,  0.0000,  0.0000)
  33 Ag     2.755675    6.471279   16.791979    ( 0.0000,  0.0000,  0.0000)
  34 Ir     5.662535    6.553002   16.871126    ( 0.0000,  0.0000,  0.0000)
  35 Ru     8.397658    6.473069   16.880238    ( 0.0000,  0.0000,  0.0000)
  36 Ir     0.003433   -0.080751   18.981925    ( 0.0000,  0.0000,  0.0000)
  37 Ir     2.794259   -0.050851   18.970168    ( 0.0000,  0.0000,  0.0000)
  38 Pt     5.615099   -0.057971   19.137597    ( 0.0000,  0.0000,  0.0000)
  39 Ag     1.420869    2.438171   19.449762    ( 0.0000,  0.0000,  0.0000)
  40 Ir     4.241116    2.394609   19.004676    ( 0.0000,  0.0000,  0.0000)
  41 Pt     6.946898    2.299057   19.110031    ( 0.0000,  0.0000,  0.0000)
  42 Ir     2.935409    4.904775   19.027987    ( 0.0000,  0.0000,  0.0000)
  43 Ir     5.522048    4.949953   19.030360    ( 0.0000,  0.0000,  0.0000)
  44 Ag     8.399593    4.877767   19.542756    ( 0.0000,  0.0000,  0.0000)
  45 O      1.374564    2.398106   21.677455    ( 0.0000,  0.0000,  0.0000)
  46 H      2.101362    3.115601   21.956107    ( 0.0000,  0.0000,  0.0000)

Unit cell:
           periodic     x           y           z      points  spacing
  1. axis:    yes    8.445283    0.000000    0.000000    35     0.2090
  2. axis:    yes    4.222641    7.313829    0.000000    35     0.2090
  3. axis:    no     0.000000    0.000000   29.175054   135     0.2161

  Lengths:   8.445283   8.445283  29.175054
  Angles:   90.000000  90.000000  60.000000

Effective grid spacing dv^(1/3) = 0.2217

                     log10-error:    total        iterations:
           time      wfs    density  energy       fermi  poisson
iter:   1  21:10:27  -2.06   +inf  -269.804105    4             
iter:   2  21:11:24  -2.21  -2.08  -289.614389    3             
iter:   3  21:12:22  -2.44  -1.47  -268.901354    3             
iter:   4  21:13:26  -3.13  -2.15  -268.160483    2             
iter:   5  21:14:24  -3.11  -2.41  -268.101338    4             
iter:   6  21:15:23  -3.95  -2.34  -267.721858    3             
iter:   7  21:16:27  -4.81  -2.86  -267.712153    2             
iter:   8  21:17:26  -4.11  -2.85  -267.760681    3             
iter:   9  21:18:24  -4.17  -2.60  -267.811627    3             
iter:  10  21:19:22  -4.41  -2.53  -267.666871    2             
iter:  11  21:20:20  -4.88  -3.07  -267.659030    2             
iter:  12  21:21:17  -5.35  -3.28  -267.655881    3             
iter:  13  21:22:15  -6.07  -3.38  -267.655264    2             
iter:  14  21:23:12  -5.56  -3.50  -267.654417    2             
iter:  15  21:24:05  -5.46  -3.53  -267.664741    2             
iter:  16  21:25:00  -5.48  -3.18  -267.654754    2             
iter:  17  21:25:53  -6.53  -3.52  -267.654840    2             
iter:  18  21:26:48  -6.49  -3.77  -267.654662    2             
iter:  19  21:27:41  -5.98  -3.79  -267.654829    2             
iter:  20  21:28:35  -6.56  -3.81  -267.654752    2             
iter:  21  21:29:31  -6.69  -3.91  -267.655473    2             
iter:  22  21:30:18  -6.39  -3.75  -267.653756    2             
iter:  23  21:31:03  -6.52  -3.62  -267.654476    2             
iter:  24  21:31:52  -7.10  -4.11  -267.654403    2             
iter:  25  21:32:41  -7.74  -4.23  -267.654347    2             

Converged after 25 iterations.

Dipole moment: (22.573132, 21.607923, -0.460195) |e|*Ang

Energy contributions relative to reference atoms: (reference = -16429291.423757)

Kinetic:       -144.988170
Potential:      +88.323208
External:        +0.000000
XC:            -203.584020
Entropy (-ST):   -2.107783
Local:           -6.351473
--------------------------
Free energy:   -268.708239
Extrapolated:  -267.654347

Fermi level: 1.14817

Showing only first 2 kpts
 Kpt  Band  Eigenvalues  Occupancy
  0   357      1.13574    0.13276
  0   358      1.15607    0.12007
  0   359      1.17979    0.10540
  0   360      1.23147    0.07575

  1   357      1.00832    0.20049
  1   358      1.06074    0.17641
  1   359      1.08276    0.16449
  1   360      1.09591    0.15694



Forces in eV/Ang:
  0 Ag   -0.41919    0.15818   -1.05023
  1 Ag    0.25253    0.22898   -0.86427
  2 Ir    0.49572   -0.17913    0.04091
  3 Ir   -0.10416    1.24227    1.39786
  4 Ir    0.42188    0.39535    0.87550
  5 Ir   -0.33384   -0.02141    1.20291
  6 Ir   -1.70952   -0.50940    0.75655
  7 Ag   -0.12261   -0.34483   -0.95981
  8 Pt    1.05254   -0.39545    0.49866
  9 Ag    0.12868    0.01676    0.20734
 10 Ir   -0.03395   -0.41437    1.01456
 11 Ir   -0.64710   -0.77677   -0.54722
 12 Ir    0.39927    0.15087    0.19495
 13 Ag   -0.01339   -0.03527    0.17238
 14 Ag    0.04946    0.06709    0.14730
 15 Pt   -0.13372   -0.03985   -0.61630
 16 Ru    0.62834    0.47277   -1.37062
 17 Ir    0.13921    0.30501   -1.25963
 18 Ir    0.01770   -0.01907    0.03959
 19 Pt    0.00112   -0.05130    0.07187
 20 Pt    0.01027    0.02017   -0.01309
 21 Ag   -0.00497   -0.00654    0.04326
 22 Ag   -0.00393   -0.00045    0.00408
 23 Ag    0.02383   -0.03039    0.03100
 24 Pt    0.01336    0.00857   -0.02453
 25 Ag    0.03382    0.06719    0.01051
 26 Ir   -0.02184    0.04432   -0.04016
 27 Ru   -0.04656   -0.06147   -0.12596
 28 Ir   -0.04033   -0.03905   -0.11810
 29 Ir    0.02137   -0.06457   -0.18414
 30 Ir    0.01342    0.09172   -0.05663
 31 Ir    0.04037    0.00147   -0.09524
 32 Pt   -0.02998   -0.01456    0.00078
 33 Ag   -0.09980    0.01064   -0.06649
 34 Ir    0.00343    0.00326   -0.15458
 35 Ru    0.01584   -0.07157   -0.04482
 36 Ir    0.00319    0.12097    0.08579
 37 Ir    0.00686   -0.03601    0.16254
 38 Pt    0.00184   -0.08660    0.01117
 39 Ag   -0.07016   -0.11881    1.03372
 40 Ir   -0.00230    0.04144    0.16693
 41 Pt    0.09487   -0.00017    0.09279
 42 Ir   -0.12235   -0.03197    0.07780
 43 Ir    0.10774   -0.08596    0.05427
 44 Ag   -0.02528   -0.08346    0.10337
 45 O     1.76757    1.77387   -0.30451
 46 H    -1.74707   -1.71492   -0.63751

System changes: positions 

Initializing position-dependent things.

Density initialized from wave functions
                                             
                                             
                                             
                                             
                                             
                                             
              H                              
            O                                
                               Ag            
                  Ir    Ir                   
            Ag    AIr     Pt    Ru           
                                             
       Ir    IIr    IPt     Pt               
         Ru    Ir     Ir                     
                     Pt     Ag     Ir        
                Ag     Ag     Ag             
                                             
           Ir    PPt    RPt    Ir            
                                             
            Ir    IAg    AAg    Pt           
       Ag    IIr    IIr    Ir                
                                             
        Ag     Ag     Ir                     
                                             
                                             
                                             
                                             
                                             

Positions:
   0 Ag     0.000000    1.621936   10.000000    ( 0.0000,  0.0000,  0.0000)
   1 Ag     2.809275    1.621936   10.000000    ( 0.0000,  0.0000,  0.0000)
   2 Ir     5.618550    1.621936   10.000000    ( 0.0000,  0.0000,  0.0000)
   3 Ir     1.404638    4.054840   10.000000    ( 0.0000,  0.0000,  0.0000)
   4 Ir     4.213913    4.054840   10.000000    ( 0.0000,  0.0000,  0.0000)
   5 Ir     7.023188    4.054840   10.000000    ( 0.0000,  0.0000,  0.0000)
   6 Ir     2.809275    6.487743   10.000000    ( 0.0000,  0.0000,  0.0000)
   7 Ag     5.618550    6.487743   10.000000    ( 0.0000,  0.0000,  0.0000)
   8 Pt     8.427826    6.487743   10.000000    ( 0.0000,  0.0000,  0.0000)
   9 Ag     0.000000    0.000000   12.293764    ( 0.0000,  0.0000,  0.0000)
  10 Ir     2.809275    0.000000   12.293764    ( 0.0000,  0.0000,  0.0000)
  11 Ir     5.618550    0.000000   12.293764    ( 0.0000,  0.0000,  0.0000)
  12 Ir     1.404638    2.432904   12.293764    ( 0.0000,  0.0000,  0.0000)
  13 Ag     4.213913    2.432904   12.293764    ( 0.0000,  0.0000,  0.0000)
  14 Ag     7.023188    2.432904   12.293764    ( 0.0000,  0.0000,  0.0000)
  15 Pt     2.809275    4.865807   12.293764    ( 0.0000,  0.0000,  0.0000)
  16 Ru     5.618550    4.865807   12.293764    ( 0.0000,  0.0000,  0.0000)
  17 Ir     8.427826    4.865807   12.293764    ( 0.0000,  0.0000,  0.0000)
  18 Ir     1.442198    0.792639   14.594658    ( 0.0000,  0.0000,  0.0000)
  19 Pt     4.193593    0.732718   14.614532    ( 0.0000,  0.0000,  0.0000)
  20 Pt     7.034295    0.804600   14.638956    ( 0.0000,  0.0000,  0.0000)
  21 Ag     2.790135    3.267844   14.609780    ( 0.0000,  0.0000,  0.0000)
  22 Ag     5.615478    3.230649   14.630263    ( 0.0000,  0.0000,  0.0000)
  23 Ag     8.465349    3.240443   14.607573    ( 0.0000,  0.0000,  0.0000)
  24 Pt     4.238031    5.675577   14.601772    ( 0.0000,  0.0000,  0.0000)
  25 Ag     7.020032    5.622728   14.589217    ( 0.0000,  0.0000,  0.0000)
  26 Ir     9.810814    5.747404   14.534991    ( 0.0000,  0.0000,  0.0000)
  27 Ru     0.088687    1.655029   16.931547    ( 0.0000,  0.0000,  0.0000)
  28 Ir     2.745825    1.630226   16.884493    ( 0.0000,  0.0000,  0.0000)
  29 Ir     5.552354    1.601223   16.893315    ( 0.0000,  0.0000,  0.0000)
  30 Ir     1.355226    4.003960   17.019642    ( 0.0000,  0.0000,  0.0000)
  31 Ir     4.197328    3.978855   16.958257    ( 0.0000,  0.0000,  0.0000)
  32 Pt     7.126810    4.056569   16.998205    ( 0.0000,  0.0000,  0.0000)
  33 Ag     2.758403    6.473484   16.798637    ( 0.0000,  0.0000,  0.0000)
  34 Ir     5.663265    6.559572   16.866785    ( 0.0000,  0.0000,  0.0000)
  35 Ru     8.398796    6.479568   16.871538    ( 0.0000,  0.0000,  0.0000)
  36 Ir     0.011373   -0.065205   18.992236    ( 0.0000,  0.0000,  0.0000)
  37 Ir     2.782969   -0.034422   18.979023    ( 0.0000,  0.0000,  0.0000)
  38 Pt     5.620777   -0.054093   19.134414    ( 0.0000,  0.0000,  0.0000)
  39 Ag     1.414902    2.429585   19.508726    ( 0.0000,  0.0000,  0.0000)
  40 Ir     4.233161    2.400027   19.013228    ( 0.0000,  0.0000,  0.0000)
  41 Pt     6.957846    2.308268   19.121762    ( 0.0000,  0.0000,  0.0000)
  42 Ir     2.926426    4.892465   19.037943    ( 0.0000,  0.0000,  0.0000)
  43 Ir     5.523530    4.950086   19.028130    ( 0.0000,  0.0000,  0.0000)
  44 Ag     8.404288    4.877131   19.538326    ( 0.0000,  0.0000,  0.0000)
  45 O      1.406802    2.423646   21.607053    ( 0.0000,  0.0000,  0.0000)
  46 H      2.066745    3.080405   21.946944    ( 0.0000,  0.0000,  0.0000)

Unit cell:
           periodic     x           y           z      points  spacing
  1. axis:    yes    8.445283    0.000000    0.000000    35     0.2090
  2. axis:    yes    4.222641    7.313829    0.000000    35     0.2090
  3. axis:    no     0.000000    0.000000   29.175054   135     0.2161

  Lengths:   8.445283   8.445283  29.175054
  Angles:   90.000000  90.000000  60.000000

Effective grid spacing dv^(1/3) = 0.2217

                     log10-error:    total        iterations:
           time      wfs    density  energy       fermi  poisson
iter:   1  21:33:47  -2.39   +inf  -271.335584    3             
iter:   2  21:34:32  -1.62  -1.84  -329.420867    37            
iter:   3  21:35:17  -1.43  -1.34  -302.150369    37            
iter:   4  21:36:03  -2.35  -1.42  -270.982296    3             
iter:   5  21:36:49  -2.96  -1.95  -268.271354    4             
iter:   6  21:37:34  -3.73  -2.39  -267.946507    3             
iter:   7  21:38:22  -4.01  -2.72  -267.866327    3             
iter:   8  21:39:20  -4.36  -2.93  -267.844507    2             
iter:   9  21:40:17  -5.01  -3.09  -267.847134    2             
iter:  10  21:41:14  -4.71  -2.92  -267.860289    3             
iter:  11  21:42:12  -4.78  -2.94  -267.832896    2             
iter:  12  21:43:10  -5.01  -3.37  -267.829275    2             
iter:  13  21:44:09  -5.49  -3.49  -267.831148    2             
iter:  14  21:45:07  -5.87  -3.36  -267.828760    2             
iter:  15  21:46:04  -5.86  -3.50  -267.826147    2             
iter:  16  21:47:02  -5.89  -3.56  -267.830569    2             
iter:  17  21:48:00  -6.08  -3.38  -267.827021    2             
iter:  18  21:48:58  -6.30  -3.76  -267.826310    2             
iter:  19  21:49:55  -7.11  -3.97  -267.826617    2             
iter:  20  21:50:52  -6.48  -3.94  -267.826324    2             
iter:  21  21:51:50  -6.61  -4.07  -267.825744    2             
iter:  22  21:52:47  -6.74  -3.82  -267.826995    2             
iter:  23  21:53:49  -6.87  -3.95  -267.826232    2             
iter:  24  21:54:42  -7.42  -4.39  -267.826139    2             

Converged after 24 iterations.

Dipole moment: (20.625349, 20.011743, -0.378774) |e|*Ang

Energy contributions relative to reference atoms: (reference = -16429291.423757)

Kinetic:       -145.636998
Potential:      +89.256576
External:        +0.000000
XC:            -204.035228
Entropy (-ST):   -2.110446
Local:           -6.355266
--------------------------
Free energy:   -268.881362
Extrapolated:  -267.826139

Fermi level: 1.18282

Showing only first 2 kpts
 Kpt  Band  Eigenvalues  Occupancy
  0   357      1.17292    0.13118
  0   358      1.19295    0.11867
  0   359      1.21302    0.10627
  0   360      1.26656    0.07552

  1   357      1.04346    0.20029
  1   358      1.09402    0.17712
  1   359      1.11989    0.16308
  1   360      1.13100    0.15668



Forces in eV/Ang:
  0 Ag   -0.41858    0.15757   -1.04985
  1 Ag    0.25238    0.22774   -0.86252
  2 Ir    0.49424   -0.17770    0.03856
  3 Ir   -0.10265    1.23918    1.39041
  4 Ir    0.42061    0.39453    0.87014
  5 Ir   -0.33391   -0.01939    1.20737
  6 Ir   -1.70901   -0.50827    0.75258
  7 Ag   -0.12098   -0.34413   -0.95788
  8 Pt    1.05326   -0.39359    0.49501
  9 Ag    0.13332    0.01570    0.18350
 10 Ir   -0.03664   -0.41361    0.99307
 11 Ir   -0.64328   -0.77929   -0.57059
 12 Ir    0.38946    0.15064    0.17877
 13 Ag   -0.01281   -0.03573    0.16116
 14 Ag    0.04975    0.07484    0.13919
 15 Pt   -0.13986   -0.03886   -0.62319
 16 Ru    0.62739    0.47159   -1.37265
 17 Ir    0.13856    0.29668   -1.26336
 18 Ir    0.01490    0.01188    0.03281
 19 Pt    0.00123    0.01935    0.06604
 20 Pt   -0.00350    0.01997    0.04225
 21 Ag    0.00764    0.00608    0.03423
 22 Ag    0.01280   -0.00267    0.00429
 23 Ag    0.01283    0.00093    0.00258
 24 Pt    0.01314    0.00696    0.01041
 25 Ag    0.00666    0.00083    0.00426
 26 Ir    0.00117   -0.00309    0.00253
 27 Ru   -0.02130   -0.03753    0.01846
 28 Ir   -0.01069    0.00628    0.04745
 29 Ir    0.01681    0.01037   -0.02296
 30 Ir   -0.03795    0.00393    0.04130
 31 Ir    0.00272    0.01200   -0.04057
 32 Pt    0.00477   -0.00022   -0.01199
 33 Ag   -0.05902   -0.01018   -0.07375
 34 Ir    0.00346   -0.03505   -0.02979
 35 Ru    0.00282   -0.06041    0.02717
 36 Ir   -0.05017   -0.06082   -0.05835
 37 Ir    0.06890   -0.11109   -0.00977
 38 Pt   -0.03427   -0.05211    0.01198
 39 Ag    0.04031    0.03986    0.10065
 40 Ir    0.03590   -0.01911    0.02113
 41 Pt   -0.04193   -0.06373   -0.05935
 42 Ir    0.01246    0.05019   -0.01654
 43 Ir    0.02240   -0.03271    0.01802
 44 Ag   -0.02103   -0.03149    0.07898
 45 O     0.02366    0.09722    0.21444
 46 H    -0.10628   -0.10000   -0.09967

System changes: positions 

Initializing position-dependent things.

Density initialized from wave functions
                                             
                                             
                                             
                                             
                                             
                                             
              H                              
            O                                
                               Ag            
                  Ir    Ir                   
            Ag    AIr     Pt    Ru           
                                             
       Ir    IIr    IPt     Pt               
         Ru    Ir     Ir                     
                     Pt     Ag     Ir        
                Ag     Ag     Ag             
                                             
           Ir    PPt    RPt    Ir            
                                             
            Ir    IAg    AAg    Pt           
       Ag    IIr    IIr    Ir                
                                             
        Ag     Ag     Ir                     
                                             
                                             
                                             
                                             
                                             

Positions:
   0 Ag     0.000000    1.621936   10.000000    ( 0.0000,  0.0000,  0.0000)
   1 Ag     2.809275    1.621936   10.000000    ( 0.0000,  0.0000,  0.0000)
   2 Ir     5.618550    1.621936   10.000000    ( 0.0000,  0.0000,  0.0000)
   3 Ir     1.404638    4.054840   10.000000    ( 0.0000,  0.0000,  0.0000)
   4 Ir     4.213913    4.054840   10.000000    ( 0.0000,  0.0000,  0.0000)
   5 Ir     7.023188    4.054840   10.000000    ( 0.0000,  0.0000,  0.0000)
   6 Ir     2.809275    6.487743   10.000000    ( 0.0000,  0.0000,  0.0000)
   7 Ag     5.618550    6.487743   10.000000    ( 0.0000,  0.0000,  0.0000)
   8 Pt     8.427826    6.487743   10.000000    ( 0.0000,  0.0000,  0.0000)
   9 Ag     0.000000    0.000000   12.293764    ( 0.0000,  0.0000,  0.0000)
  10 Ir     2.809275    0.000000   12.293764    ( 0.0000,  0.0000,  0.0000)
  11 Ir     5.618550    0.000000   12.293764    ( 0.0000,  0.0000,  0.0000)
  12 Ir     1.404638    2.432904   12.293764    ( 0.0000,  0.0000,  0.0000)
  13 Ag     4.213913    2.432904   12.293764    ( 0.0000,  0.0000,  0.0000)
  14 Ag     7.023188    2.432904   12.293764    ( 0.0000,  0.0000,  0.0000)
  15 Pt     2.809275    4.865807   12.293764    ( 0.0000,  0.0000,  0.0000)
  16 Ru     5.618550    4.865807   12.293764    ( 0.0000,  0.0000,  0.0000)
  17 Ir     8.427826    4.865807   12.293764    ( 0.0000,  0.0000,  0.0000)
  18 Ir     1.443856    0.794064   14.598368    ( 0.0000,  0.0000,  0.0000)
  19 Pt     4.193794    0.735161   14.622110    ( 0.0000,  0.0000,  0.0000)
  20 Pt     7.033863    0.807059   14.643943    ( 0.0000,  0.0000,  0.0000)
  21 Ag     2.791092    3.268618   14.613698    ( 0.0000,  0.0000,  0.0000)
  22 Ag     5.617042    3.230382   14.630747    ( 0.0000,  0.0000,  0.0000)
  23 Ag     8.466713    3.240632   14.607805    ( 0.0000,  0.0000,  0.0000)
  24 Pt     4.239620    5.676268   14.603076    ( 0.0000,  0.0000,  0.0000)
  25 Ag     7.020732    5.622574   14.589694    ( 0.0000,  0.0000,  0.0000)
  26 Ir     9.810937    5.746872   14.535314    ( 0.0000,  0.0000,  0.0000)
  27 Ru     0.086195    1.650805   16.934117    ( 0.0000,  0.0000,  0.0000)
  28 Ir     2.744613    1.631107   16.890470    ( 0.0000,  0.0000,  0.0000)
  29 Ir     5.554386    1.602581   16.891064    ( 0.0000,  0.0000,  0.0000)
  30 Ir     1.350665    4.004253   17.024896    ( 0.0000,  0.0000,  0.0000)
  31 Ir     4.197613    3.980329   16.953684    ( 0.0000,  0.0000,  0.0000)
  32 Pt     7.127470    4.056566   16.996941    ( 0.0000,  0.0000,  0.0000)
  33 Ag     2.751687    6.472295   16.790240    ( 0.0000,  0.0000,  0.0000)
  34 Ir     5.663575    6.555313   16.863693    ( 0.0000,  0.0000,  0.0000)
  35 Ru     8.399104    6.472489   16.875091    ( 0.0000,  0.0000,  0.0000)
  36 Ir     0.005396   -0.072503   18.985267    ( 0.0000,  0.0000,  0.0000)
  37 Ir     2.791253   -0.047553   18.977626    ( 0.0000,  0.0000,  0.0000)
  38 Pt     5.616670   -0.060228   19.135760    ( 0.0000,  0.0000,  0.0000)
  39 Ag     1.419459    2.434380   19.520489    ( 0.0000,  0.0000,  0.0000)
  40 Ir     4.237448    2.397633   19.015205    ( 0.0000,  0.0000,  0.0000)
  41 Pt     6.952883    2.300916   19.114606    ( 0.0000,  0.0000,  0.0000)
  42 Ir     2.927907    4.898578   19.035585    ( 0.0000,  0.0000,  0.0000)
  43 Ir     5.526210    4.946362   19.030201    ( 0.0000,  0.0000,  0.0000)
  44 Ag     8.401775    4.873604   19.547170    ( 0.0000,  0.0000,  0.0000)
  45 O      1.398333    2.423773   21.624503    ( 0.0000,  0.0000,  0.0000)
  46 H      2.066595    3.080989   21.942197    ( 0.0000,  0.0000,  0.0000)

Unit cell:
           periodic     x           y           z      points  spacing
  1. axis:    yes    8.445283    0.000000    0.000000    35     0.2090
  2. axis:    yes    4.222641    7.313829    0.000000    35     0.2090
  3. axis:    no     0.000000    0.000000   29.175054   135     0.2161

  Lengths:   8.445283   8.445283  29.175054
  Angles:   90.000000  90.000000  60.000000

Effective grid spacing dv^(1/3) = 0.2217

                     log10-error:    total        iterations:
           time      wfs    density  energy       fermi  poisson
iter:   1  21:56:02  -3.14   +inf  -268.504704    2             
iter:   2  21:56:56  -2.22  -2.23  -294.861784    3             
iter:   3  21:57:50  -2.55  -1.45  -267.983582    3             
iter:   4  21:58:45  -3.68  -2.58  -267.847977    3             
iter:   5  21:59:46  -4.81  -3.08  -267.840167    3             
iter:   6  22:00:51  -5.32  -3.35  -267.839042    2             
iter:   7  22:01:48  -5.62  -3.42  -267.837292    2             
iter:   8  22:02:40  -5.30  -3.55  -267.838212    2             
iter:   9  22:03:30  -5.57  -3.51  -267.835514    2             
iter:  10  22:04:20  -6.16  -3.60  -267.836015    2             
iter:  11  22:05:15  -6.67  -3.90  -267.835616    2             
iter:  12  22:06:18  -6.83  -3.94  -267.835269    2             
iter:  13  22:07:15  -6.45  -3.88  -267.835065    2             
iter:  14  22:08:04  -6.72  -3.99  -267.835649    2             
iter:  15  22:09:01  -7.11  -4.14  -267.835062    2             
iter:  16  22:09:58  -7.55  -4.18  -267.835349    2             

Converged after 16 iterations.

Dipole moment: (21.861448, 21.133476, -0.392244) |e|*Ang

Energy contributions relative to reference atoms: (reference = -16429291.423757)

Kinetic:       -146.060995
Potential:      +89.599403
External:        +0.000000
XC:            -203.968580
Entropy (-ST):   -2.108341
Local:           -6.351006
--------------------------
Free energy:   -268.889520
Extrapolated:  -267.835349

Fermi level: 1.17648

Showing only first 2 kpts
 Kpt  Band  Eigenvalues  Occupancy
  0   357      1.16642    0.13128
  0   358      1.18547    0.11938
  0   359      1.20740    0.10583
  0   360      1.26109    0.07506

  1   357      1.03653    0.20053
  1   358      1.08766    0.17713
  1   359      1.11333    0.16321
  1   360      1.12518    0.15638



Forces in eV/Ang:
  0 Ag   -0.41909    0.15845   -1.05307
  1 Ag    0.25279    0.22771   -0.86370
  2 Ir    0.49370   -0.18099    0.03002
  3 Ir   -0.10292    1.24146    1.39338
  4 Ir    0.42009    0.39661    0.86737
  5 Ir   -0.33308   -0.01753    1.19911
  6 Ir   -1.71061   -0.50889    0.74622
  7 Ag   -0.12059   -0.34535   -0.96183
  8 Pt    1.05387   -0.39390    0.49426
  9 Ag    0.13152    0.01950    0.20796
 10 Ir   -0.02941   -0.40783    1.01795
 11 Ir   -0.65273   -0.77828   -0.53918
 12 Ir    0.40256    0.15022    0.19353
 13 Ag   -0.01886   -0.04343    0.18199
 14 Ag    0.05134    0.07065    0.14674
 15 Pt   -0.13912   -0.04336   -0.60920
 16 Ru    0.63171    0.47417   -1.36754
 17 Ir    0.13819    0.30337   -1.25903
 18 Ir    0.01012    0.00320   -0.00081
 19 Pt   -0.01041   -0.02010    0.00829
 20 Pt    0.01847    0.01220   -0.04050
 21 Ag   -0.00982    0.00325    0.00931
 22 Ag    0.01013    0.01561   -0.02550
 23 Ag    0.02007   -0.00412    0.00762
 24 Pt    0.00755    0.00268   -0.02222
 25 Ag    0.02156    0.01214   -0.02336
 26 Ir   -0.01350    0.00840   -0.05756
 27 Ru    0.02761   -0.01638    0.01587
 28 Ir   -0.02241    0.00387    0.08676
 29 Ir   -0.04965    0.00073    0.01481
 30 Ir    0.00898   -0.03966    0.05977
 31 Ir   -0.00808   -0.01947    0.10174
 32 Pt   -0.00935   -0.02388    0.02107
 33 Ag   -0.02171   -0.03249    0.01086
 34 Ir   -0.00733    0.00072    0.03642
 35 Ru   -0.01080   -0.02874    0.01920
 36 Ir    0.05096    0.02699   -0.01158
 37 Ir   -0.04380   -0.01300   -0.01695
 38 Pt   -0.01544   -0.03621   -0.00498
 39 Ag    0.01401   -0.06672    0.11581
 40 Ir   -0.01146    0.03136   -0.06796
 41 Pt    0.04137   -0.03262    0.00393
 42 Ir    0.01109   -0.03772   -0.05002
 43 Ir   -0.01214   -0.02210   -0.00728
 44 Ag   -0.02240   -0.07841    0.07554
 45 O     0.08146    0.14917   -0.10162
 46 H    -0.07207   -0.06455   -0.04193

System changes: positions 

Initializing position-dependent things.

Density initialized from wave functions
                                             
                                             
                                             
                                             
                                             
                                             
              H                              
            O                                
                               Ag            
                  Ir    Ir                   
            Ag    AIr     Pt    Ru           
                                             
       Ir    IIr    IPt     Pt               
         Ru    Ir     Ir                     
                     Pt     Ag     Ir        
                Ag     Ag     Ag             
                                             
           Ir    PPt    RPt    Ir            
                                             
            Ir    IAg    AAg    Pt           
       Ag    IIr    IIr    Ir                
                                             
        Ag     Ag     Ir                     
                                             
                                             
                                             
                                             
                                             

Positions:
   0 Ag     0.000000    1.621936   10.000000    ( 0.0000,  0.0000,  0.0000)
   1 Ag     2.809275    1.621936   10.000000    ( 0.0000,  0.0000,  0.0000)
   2 Ir     5.618550    1.621936   10.000000    ( 0.0000,  0.0000,  0.0000)
   3 Ir     1.404638    4.054840   10.000000    ( 0.0000,  0.0000,  0.0000)
   4 Ir     4.213913    4.054840   10.000000    ( 0.0000,  0.0000,  0.0000)
   5 Ir     7.023188    4.054840   10.000000    ( 0.0000,  0.0000,  0.0000)
   6 Ir     2.809275    6.487743   10.000000    ( 0.0000,  0.0000,  0.0000)
   7 Ag     5.618550    6.487743   10.000000    ( 0.0000,  0.0000,  0.0000)
   8 Pt     8.427826    6.487743   10.000000    ( 0.0000,  0.0000,  0.0000)
   9 Ag     0.000000    0.000000   12.293764    ( 0.0000,  0.0000,  0.0000)
  10 Ir     2.809275    0.000000   12.293764    ( 0.0000,  0.0000,  0.0000)
  11 Ir     5.618550    0.000000   12.293764    ( 0.0000,  0.0000,  0.0000)
  12 Ir     1.404638    2.432904   12.293764    ( 0.0000,  0.0000,  0.0000)
  13 Ag     4.213913    2.432904   12.293764    ( 0.0000,  0.0000,  0.0000)
  14 Ag     7.023188    2.432904   12.293764    ( 0.0000,  0.0000,  0.0000)
  15 Pt     2.809275    4.865807   12.293764    ( 0.0000,  0.0000,  0.0000)
  16 Ru     5.618550    4.865807   12.293764    ( 0.0000,  0.0000,  0.0000)
  17 Ir     8.427826    4.865807   12.293764    ( 0.0000,  0.0000,  0.0000)
  18 Ir     1.445777    0.795352   14.600434    ( 0.0000,  0.0000,  0.0000)
  19 Pt     4.192935    0.734972   14.627402    ( 0.0000,  0.0000,  0.0000)
  20 Pt     7.035346    0.809774   14.643256    ( 0.0000,  0.0000,  0.0000)
  21 Ag     2.790763    3.269483   14.616913    ( 0.0000,  0.0000,  0.0000)
  22 Ag     5.619073    3.231776   14.628593    ( 0.0000,  0.0000,  0.0000)
  23 Ag     8.469414    3.240496   14.608598    ( 0.0000,  0.0000,  0.0000)
  24 Pt     4.241348    5.676884   14.601918    ( 0.0000,  0.0000,  0.0000)
  25 Ag     7.023143    5.623327   14.587710    ( 0.0000,  0.0000,  0.0000)
  26 Ir     9.809746    5.747124   14.529985    ( 0.0000,  0.0000,  0.0000)
  27 Ru     0.087496    1.646876   16.937948    ( 0.0000,  0.0000,  0.0000)
  28 Ir     2.741799    1.632321   16.903466    ( 0.0000,  0.0000,  0.0000)
  29 Ir     5.550776    1.603858   16.891941    ( 0.0000,  0.0000,  0.0000)
  30 Ir     1.348553    4.000098   17.034538    ( 0.0000,  0.0000,  0.0000)
  31 Ir     4.196855    3.979394   16.961189    ( 0.0000,  0.0000,  0.0000)
  32 Pt     7.127140    4.054294   16.998334    ( 0.0000,  0.0000,  0.0000)
  33 Ag     2.745819    6.468331   16.786343    ( 0.0000,  0.0000,  0.0000)
  34 Ir     5.662943    6.552532   16.866033    ( 0.0000,  0.0000,  0.0000)
  35 Ru     8.398125    6.465387   16.879662    ( 0.0000,  0.0000,  0.0000)
  36 Ir     0.006483   -0.075069   18.979552    ( 0.0000,  0.0000,  0.0000)
  37 Ir     2.792400   -0.057190   18.974460    ( 0.0000,  0.0000,  0.0000)
  38 Pt     5.612491   -0.067355   19.136227    ( 0.0000,  0.0000,  0.0000)
  39 Ag     1.423679    2.431186   19.533496    ( 0.0000,  0.0000,  0.0000)
  40 Ir     4.239283    2.398921   19.008845    ( 0.0000,  0.0000,  0.0000)
  41 Pt     6.953367    2.293120   19.110164    ( 0.0000,  0.0000,  0.0000)
  42 Ir     2.930482    4.899234   19.028550    ( 0.0000,  0.0000,  0.0000)
  43 Ir     5.526378    4.942238   19.030767    ( 0.0000,  0.0000,  0.0000)
  44 Ag     8.397869    4.864195   19.559473    ( 0.0000,  0.0000,  0.0000)
  45 O      1.395489    2.432639   21.626939    ( 0.0000,  0.0000,  0.0000)
  46 H      2.066248    3.081811   21.938564    ( 0.0000,  0.0000,  0.0000)

Unit cell:
           periodic     x           y           z      points  spacing
  1. axis:    yes    8.445283    0.000000    0.000000    35     0.2090
  2. axis:    yes    4.222641    7.313829    0.000000    35     0.2090
  3. axis:    no     0.000000    0.000000   29.175054   135     0.2161

  Lengths:   8.445283   8.445283  29.175054
  Angles:   90.000000  90.000000  60.000000

Effective grid spacing dv^(1/3) = 0.2217

                     log10-error:    total        iterations:
           time      wfs    density  energy       fermi  poisson
iter:   1  22:11:24  -3.21   +inf  -268.062610    3             
iter:   2  22:12:29  -2.83  -2.51  -272.882983    3             
iter:   3  22:13:28  -3.12  -1.77  -268.081295    3             
iter:   4  22:14:25  -4.02  -2.52  -267.851939    3             
iter:   5  22:15:23  -5.18  -3.26  -267.848650    2             
iter:   6  22:16:21  -5.30  -3.38  -267.845449    2             
iter:   7  22:17:26  -5.54  -3.52  -267.845008    2             
iter:   8  22:18:24  -5.40  -3.63  -267.843628    2             
iter:   9  22:19:21  -5.94  -3.59  -267.848629    2             
iter:  10  22:20:18  -6.07  -3.39  -267.844389    2             
iter:  11  22:21:16  -6.59  -3.91  -267.844397    2             
iter:  12  22:22:12  -6.78  -3.94  -267.844217    2             
iter:  13  22:23:17  -6.78  -4.03  -267.844469    2             
iter:  14  22:24:15  -6.90  -4.07  -267.844025    2             
iter:  15  22:25:13  -7.17  -4.11  -267.844655    2             
iter:  16  22:26:11  -7.40  -4.04  -267.844102    2             
iter:  17  22:27:09  -7.32  -4.24  -267.844125    2             
iter:  18  22:28:06  -7.49  -4.31  -267.844034    2             

Converged after 18 iterations.

Dipole moment: (22.413194, 21.856539, -0.387416) |e|*Ang

Energy contributions relative to reference atoms: (reference = -16429291.423757)

Kinetic:       -143.125398
Potential:      +87.038305
External:        +0.000000
XC:            -204.357790
Entropy (-ST):   -2.102336
Local:           -6.347983
--------------------------
Free energy:   -268.895202
Extrapolated:  -267.844034

Fermi level: 1.17943

Showing only first 2 kpts
 Kpt  Band  Eigenvalues  Occupancy
  0   357      1.16868    0.13172
  0   358      1.18875    0.11918
  0   359      1.21135    0.10522
  0   360      1.26422    0.07497

  1   357      1.04014    0.20026
  1   358      1.08987    0.17751
  1   359      1.11632    0.16318
  1   360      1.12857    0.15612



Forces in eV/Ang:
  0 Ag   -0.41961    0.15877   -1.05061
  1 Ag    0.25291    0.22840   -0.86292
  2 Ir    0.49348   -0.18288    0.02997
  3 Ir   -0.10459    1.23825    1.38635
  4 Ir    0.41915    0.39742    0.86510
  5 Ir   -0.33275   -0.01867    1.19390
  6 Ir   -1.70894   -0.50715    0.74940
  7 Ag   -0.12155   -0.34586   -0.96061
  8 Pt    1.05275   -0.39336    0.49301
  9 Ag    0.13717    0.02265    0.20774
 10 Ir   -0.03260   -0.39966    1.01170
 11 Ir   -0.65150   -0.76288   -0.54518
 12 Ir    0.40685    0.14763    0.19227
 13 Ag   -0.02255   -0.04851    0.18954
 14 Ag    0.05601    0.07151    0.13563
 15 Pt   -0.13154   -0.05063   -0.61893
 16 Ru    0.63116    0.47988   -1.38154
 17 Ir    0.13493    0.29458   -1.27949
 18 Ir    0.00298   -0.02384    0.00314
 19 Pt   -0.00149   -0.00061    0.00822
 20 Pt    0.00138   -0.01453   -0.00369
 21 Ag    0.01536    0.00288    0.02800
 22 Ag   -0.01364    0.00992    0.01548
 23 Ag    0.00574    0.00150    0.02292
 24 Pt    0.00090    0.00525    0.00206
 25 Ag   -0.00350    0.00597    0.01208
 26 Ir    0.01593    0.02219   -0.02978
 27 Ru   -0.00105   -0.00185   -0.01818
 28 Ir   -0.04148   -0.01706   -0.03750
 29 Ir    0.01760   -0.05305   -0.06352
 30 Ir   -0.02700   -0.02372    0.01588
 31 Ir    0.03131    0.00806   -0.16661
 32 Pt    0.00452   -0.02837   -0.00137
 33 Ag   -0.00813    0.01208   -0.01898
 34 Ir   -0.00790   -0.01914   -0.08980
 35 Ru   -0.00295   -0.03588   -0.00577
 36 Ir   -0.01418    0.02297    0.04492
 37 Ir    0.01174   -0.00996    0.06282
 38 Pt   -0.01281   -0.03041   -0.01864
 39 Ag    0.01507   -0.07801    0.00033
 40 Ir    0.00634   -0.03850    0.12217
 41 Pt    0.04095   -0.03776    0.03414
 42 Ir   -0.07022    0.00521    0.09755
 43 Ir    0.02183   -0.00181    0.03912
 44 Ag   -0.01949   -0.05779    0.05376
 45 O    -0.08771   -0.01628   -0.07286
 46 H     0.09339    0.09483    0.05308

System changes: positions 

Initializing position-dependent things.

Density initialized from wave functions
                                             
                                             
                                             
                                             
                                             
                                             
              H                              
            O                                
                               Ag            
                  Ir    Ir                   
            Ag    AIr     Pt    Ru           
                                             
       Ir    IIr    IPt     Pt               
         Ru    Ir     Ir                     
                     Pt     Ag     Ir        
                Ag     Ag     Ag             
                                             
           Ir    PPt    RPt    Ir            
                                             
            Ir    IAg    AAg    Pt           
       Ag    IIr    IIr    Ir                
                                             
        Ag     Ag     Ir                     
                                             
                                             
                                             
                                             
                                             

Positions:
   0 Ag     0.000000    1.621936   10.000000    ( 0.0000,  0.0000,  0.0000)
   1 Ag     2.809275    1.621936   10.000000    ( 0.0000,  0.0000,  0.0000)
   2 Ir     5.618550    1.621936   10.000000    ( 0.0000,  0.0000,  0.0000)
   3 Ir     1.404638    4.054840   10.000000    ( 0.0000,  0.0000,  0.0000)
   4 Ir     4.213913    4.054840   10.000000    ( 0.0000,  0.0000,  0.0000)
   5 Ir     7.023188    4.054840   10.000000    ( 0.0000,  0.0000,  0.0000)
   6 Ir     2.809275    6.487743   10.000000    ( 0.0000,  0.0000,  0.0000)
   7 Ag     5.618550    6.487743   10.000000    ( 0.0000,  0.0000,  0.0000)
   8 Pt     8.427826    6.487743   10.000000    ( 0.0000,  0.0000,  0.0000)
   9 Ag     0.000000    0.000000   12.293764    ( 0.0000,  0.0000,  0.0000)
  10 Ir     2.809275    0.000000   12.293764    ( 0.0000,  0.0000,  0.0000)
  11 Ir     5.618550    0.000000   12.293764    ( 0.0000,  0.0000,  0.0000)
  12 Ir     1.404638    2.432904   12.293764    ( 0.0000,  0.0000,  0.0000)
  13 Ag     4.213913    2.432904   12.293764    ( 0.0000,  0.0000,  0.0000)
  14 Ag     7.023188    2.432904   12.293764    ( 0.0000,  0.0000,  0.0000)
  15 Pt     2.809275    4.865807   12.293764    ( 0.0000,  0.0000,  0.0000)
  16 Ru     5.618550    4.865807   12.293764    ( 0.0000,  0.0000,  0.0000)
  17 Ir     8.427826    4.865807   12.293764    ( 0.0000,  0.0000,  0.0000)
  18 Ir     1.447596    0.794283   14.602134    ( 0.0000,  0.0000,  0.0000)
  19 Pt     4.191964    0.734441   14.631992    ( 0.0000,  0.0000,  0.0000)
  20 Pt     7.036875    0.810581   14.641720    ( 0.0000,  0.0000,  0.0000)
  21 Ag     2.791657    3.270422   14.621813    ( 0.0000,  0.0000,  0.0000)
  22 Ag     5.619532    3.233952   14.627944    ( 0.0000,  0.0000,  0.0000)
  23 Ag     8.472269    3.240506   14.611309    ( 0.0000,  0.0000,  0.0000)
  24 Pt     4.242771    5.677874   14.600918    ( 0.0000,  0.0000,  0.0000)
  25 Ag     7.024948    5.624557   14.586902    ( 0.0000,  0.0000,  0.0000)
  26 Ir     9.810075    5.749365   14.522457    ( 0.0000,  0.0000,  0.0000)
  27 Ru     0.089015    1.643692   16.939634    ( 0.0000,  0.0000,  0.0000)
  28 Ir     2.735768    1.631881   16.911504    ( 0.0000,  0.0000,  0.0000)
  29 Ir     5.548674    1.600297   16.887613    ( 0.0000,  0.0000,  0.0000)
  30 Ir     1.344829    3.994005   17.044121    ( 0.0000,  0.0000,  0.0000)
  31 Ir     4.198810    3.979027   16.954152    ( 0.0000,  0.0000,  0.0000)
  32 Pt     7.127171    4.049729   16.999622    ( 0.0000,  0.0000,  0.0000)
  33 Ag     2.740684    6.465868   16.782153    ( 0.0000,  0.0000,  0.0000)
  34 Ir     5.661634    6.548845   16.860808    ( 0.0000,  0.0000,  0.0000)
  35 Ru     8.396874    6.456686   16.882900    ( 0.0000,  0.0000,  0.0000)
  36 Ir     0.006988   -0.074718   18.979104    ( 0.0000,  0.0000,  0.0000)
  37 Ir     2.793405   -0.065249   18.977065    ( 0.0000,  0.0000,  0.0000)
  38 Pt     5.608058   -0.075629   19.134957    ( 0.0000,  0.0000,  0.0000)
  39 Ag     1.428428    2.420871   19.540642    ( 0.0000,  0.0000,  0.0000)
  40 Ir     4.241078    2.396983   19.013290    ( 0.0000,  0.0000,  0.0000)
  41 Pt     6.957819    2.283474   19.109943    ( 0.0000,  0.0000,  0.0000)
  42 Ir     2.926810    4.899636   19.030878    ( 0.0000,  0.0000,  0.0000)
  43 Ir     5.527871    4.938894   19.034481    ( 0.0000,  0.0000,  0.0000)
[...]
  33 Ag     2.731972    6.447132   16.777853    ( 0.0000,  0.0000,  0.0000)
  34 Ir     5.657545    6.528054   16.856438    ( 0.0000,  0.0000,  0.0000)
  35 Ru     8.389701    6.416810   16.899058    ( 0.0000,  0.0000,  0.0000)
  36 Ir    -0.001896   -0.098941   18.976337    ( 0.0000,  0.0000,  0.0000)
  37 Ir     2.799366   -0.122014   18.975789    ( 0.0000,  0.0000,  0.0000)
  38 Pt     5.581575   -0.115597   19.129795    ( 0.0000,  0.0000,  0.0000)
  39 Ag     1.458769    2.364160   19.549286    ( 0.0000,  0.0000,  0.0000)
  40 Ir     4.266456    2.399921   19.023138    ( 0.0000,  0.0000,  0.0000)
  41 Pt     6.964379    2.230629   19.117006    ( 0.0000,  0.0000,  0.0000)
  42 Ir     2.915857    4.883078   19.042875    ( 0.0000,  0.0000,  0.0000)
  43 Ir     5.518699    4.924200   19.044248    ( 0.0000,  0.0000,  0.0000)
  44 Ag     8.371165    4.789210   19.652277    ( 0.0000,  0.0000,  0.0000)
  45 O      1.368570    2.519360   21.631780    ( 0.0000,  0.0000,  0.0000)
  46 H      2.096908    3.117854   21.937015    ( 0.0000,  0.0000,  0.0000)

Unit cell:
           periodic     x           y           z      points  spacing
  1. axis:    yes    8.445283    0.000000    0.000000    35     0.2090
  2. axis:    yes    4.222641    7.313829    0.000000    35     0.2090
  3. axis:    no     0.000000    0.000000   29.175054   135     0.2161

  Lengths:   8.445283   8.445283  29.175054
  Angles:   90.000000  90.000000  60.000000

Effective grid spacing dv^(1/3) = 0.2217

                     log10-error:    total        iterations:
           time      wfs    density  energy       fermi  poisson
iter:   1  23:18:15  -2.82   +inf  -268.440317    3             
iter:   2  23:19:13  -2.28  -2.26  -288.300500    4             
iter:   3  23:20:10  -2.62  -1.50  -268.125535    3             
iter:   4  23:21:07  -3.61  -2.45  -267.882485    3             
iter:   5  23:22:05  -4.83  -3.06  -267.875756    2             
iter:   6  23:23:03  -5.13  -3.23  -267.871710    2             
iter:   7  23:23:58  -5.14  -3.37  -267.869623    2             
iter:   8  23:24:56  -5.21  -3.54  -267.869933    2             
iter:   9  23:25:54  -5.64  -3.62  -267.871138    2             
iter:  10  23:26:51  -5.70  -3.22  -267.869748    2             
iter:  11  23:27:48  -6.31  -3.73  -267.868699    2             
iter:  12  23:28:45  -6.27  -3.82  -267.868868    2             
iter:  13  23:29:44  -6.56  -3.89  -267.868838    2             
iter:  14  23:30:41  -6.65  -4.02  -267.868819    2             
iter:  15  23:31:39  -7.04  -4.12  -267.868479    2             
iter:  16  23:32:36  -7.22  -3.95  -267.869160    2             
iter:  17  23:33:34  -7.33  -4.08  -267.868715    2             
iter:  18  23:34:32  -7.24  -4.22  -267.868802    2             
iter:  19  23:35:29  -7.16  -4.28  -267.868891    2             
iter:  20  23:36:27  -7.64  -4.40  -267.868811    2             

Converged after 20 iterations.

Dipole moment: (27.276761, 26.214888, -0.373856) |e|*Ang

Energy contributions relative to reference atoms: (reference = -16429291.423757)

Kinetic:       -146.667772
Potential:      +89.951095
External:        +0.000000
XC:            -203.741631
Entropy (-ST):   -2.098070
Local:           -6.361468
--------------------------
Free energy:   -268.917846
Extrapolated:  -267.868811

Fermi level: 1.18715

Showing only first 2 kpts
 Kpt  Band  Eigenvalues  Occupancy
  0   357      1.18084    0.12894
  0   358      1.19508    0.12004
  0   359      1.22073    0.10421
  0   360      1.27259    0.07462

  1   357      1.04948    0.19961
  1   358      1.09663    0.17800
  1   359      1.13008    0.15973
  1   360      1.14153    0.15302



Forces in eV/Ang:
  0 Ag   -0.41869    0.15772   -1.05077
  1 Ag    0.25359    0.22851   -0.85951
  2 Ir    0.49134   -0.19534    0.02530
  3 Ir   -0.10614    1.23368    1.38912
  4 Ir    0.40980    0.40270    0.87003
  5 Ir   -0.32819   -0.01554    1.18647
  6 Ir   -1.70754   -0.50177    0.74513
  7 Ag   -0.12263   -0.34537   -0.96206
  8 Pt    1.04959   -0.39095    0.48476
  9 Ag    0.14420    0.04274    0.20895
 10 Ir   -0.03543   -0.39014    1.02900
 11 Ir   -0.65554   -0.69786   -0.57841
 12 Ir    0.42469    0.16183    0.25534
 13 Ag   -0.04200   -0.04968    0.23987
 14 Ag    0.07981    0.08413    0.16759
 15 Pt   -0.10147   -0.11945   -0.62101
 16 Ru    0.65128    0.48191   -1.38934
 17 Ir    0.12197    0.26346   -1.27569
 18 Ir   -0.02528    0.00117    0.01817
 19 Pt   -0.00339   -0.03194   -0.01303
 20 Pt    0.00209   -0.01947    0.01719
 21 Ag   -0.02078   -0.01193   -0.02203
 22 Ag   -0.00924   -0.03637    0.02699
 23 Ag   -0.01161   -0.01459   -0.01477
 24 Pt    0.00166   -0.01300    0.02214
 25 Ag   -0.02029   -0.00832    0.02152
 26 Ir   -0.00846   -0.02975    0.05863
 27 Ru    0.02969    0.00222    0.00846
 28 Ir    0.04227   -0.01063   -0.01833
 29 Ir    0.00462    0.00056    0.03092
 30 Ir   -0.00886   -0.02331   -0.05855
 31 Ir   -0.04323   -0.02375    0.08343
 32 Pt    0.00587   -0.01256    0.03451
 33 Ag    0.01973   -0.04236    0.02350
 34 Ir   -0.02761   -0.01158    0.00360
 35 Ru    0.03154    0.00297   -0.04472
 36 Ir   -0.01203   -0.04554    0.00892
 37 Ir    0.00116   -0.00923    0.02660
 38 Pt   -0.02181   -0.02233    0.02832
 39 Ag    0.02479   -0.02503   -0.04240
 40 Ir   -0.01407    0.00380   -0.04437
 41 Pt    0.01710   -0.03525    0.02889
 42 Ir    0.04157   -0.05423   -0.05558
 43 Ir   -0.04127   -0.01902   -0.01020
 44 Ag    0.02177   -0.01214   -0.00873
 45 O     0.22307    0.16897    0.06977
 46 H    -0.11333   -0.10471   -0.06939

System changes: positions 

Initializing position-dependent things.

Density initialized from wave functions
                                             
                                             
                                             
                                             
                                             
                                             
               H                             
            O                                
                        Ir     Ag            
                  Ir                         
             Ag   AIr     Pt    Ru           
                                             
       Ir    IIr    IPt    Pt                
         Ru    Ir     Ir                     
                      Pt    Ag     Ir        
                Ag     Ag     Ag             
                                             
           Ir    PPt    RPt    Ir            
                                             
            Ir     Ag    AAg    Pt           
       Ag    IIr    IIr    Ir                
                                             
        Ag     Ag     Ir                     
                                             
                                             
                                             
                                             
                                             

Positions:
   0 Ag     0.000000    1.621936   10.000000    ( 0.0000,  0.0000,  0.0000)
   1 Ag     2.809275    1.621936   10.000000    ( 0.0000,  0.0000,  0.0000)
   2 Ir     5.618550    1.621936   10.000000    ( 0.0000,  0.0000,  0.0000)
   3 Ir     1.404638    4.054840   10.000000    ( 0.0000,  0.0000,  0.0000)
   4 Ir     4.213913    4.054840   10.000000    ( 0.0000,  0.0000,  0.0000)
   5 Ir     7.023188    4.054840   10.000000    ( 0.0000,  0.0000,  0.0000)
   6 Ir     2.809275    6.487743   10.000000    ( 0.0000,  0.0000,  0.0000)
   7 Ag     5.618550    6.487743   10.000000    ( 0.0000,  0.0000,  0.0000)
   8 Pt     8.427826    6.487743   10.000000    ( 0.0000,  0.0000,  0.0000)
   9 Ag     0.000000    0.000000   12.293764    ( 0.0000,  0.0000,  0.0000)
  10 Ir     2.809275    0.000000   12.293764    ( 0.0000,  0.0000,  0.0000)
  11 Ir     5.618550    0.000000   12.293764    ( 0.0000,  0.0000,  0.0000)
  12 Ir     1.404638    2.432904   12.293764    ( 0.0000,  0.0000,  0.0000)
  13 Ag     4.213913    2.432904   12.293764    ( 0.0000,  0.0000,  0.0000)
  14 Ag     7.023188    2.432904   12.293764    ( 0.0000,  0.0000,  0.0000)
  15 Pt     2.809275    4.865807   12.293764    ( 0.0000,  0.0000,  0.0000)
  16 Ru     5.618550    4.865807   12.293764    ( 0.0000,  0.0000,  0.0000)
  17 Ir     8.427826    4.865807   12.293764    ( 0.0000,  0.0000,  0.0000)
  18 Ir     1.449583    0.787669   14.608656    ( 0.0000,  0.0000,  0.0000)
  19 Pt     4.185011    0.728008   14.642202    ( 0.0000,  0.0000,  0.0000)
  20 Pt     7.036741    0.810026   14.651279    ( 0.0000,  0.0000,  0.0000)
  21 Ag     2.788621    3.269682   14.639008    ( 0.0000,  0.0000,  0.0000)
  22 Ag     5.621681    3.228316   14.631569    ( 0.0000,  0.0000,  0.0000)
  23 Ag     8.483809    3.243370   14.626597    ( 0.0000,  0.0000,  0.0000)
  24 Pt     4.243907    5.673257   14.597886    ( 0.0000,  0.0000,  0.0000)
  25 Ag     7.031240    5.612375   14.592065    ( 0.0000,  0.0000,  0.0000)
  26 Ir     9.821461    5.758394   14.501899    ( 0.0000,  0.0000,  0.0000)
  27 Ru     0.084458    1.611340   16.938154    ( 0.0000,  0.0000,  0.0000)
  28 Ir     2.734435    1.614237   16.934657    ( 0.0000,  0.0000,  0.0000)
  29 Ir     5.540571    1.572871   16.890884    ( 0.0000,  0.0000,  0.0000)
  30 Ir     1.321425    3.971930   17.093889    ( 0.0000,  0.0000,  0.0000)
  31 Ir     4.197394    3.960606   16.963535    ( 0.0000,  0.0000,  0.0000)
  32 Pt     7.117268    4.006678   17.030421    ( 0.0000,  0.0000,  0.0000)
  33 Ag     2.731684    6.432324   16.779323    ( 0.0000,  0.0000,  0.0000)
  34 Ir     5.651852    6.519301   16.855564    ( 0.0000,  0.0000,  0.0000)
  35 Ru     8.392797    6.400255   16.899426    ( 0.0000,  0.0000,  0.0000)
  36 Ir    -0.010479   -0.114845   18.976845    ( 0.0000,  0.0000,  0.0000)
  37 Ir     2.802289   -0.148669   18.976209    ( 0.0000,  0.0000,  0.0000)
  38 Pt     5.565840   -0.136613   19.130801    ( 0.0000,  0.0000,  0.0000)
  39 Ag     1.476733    2.333356   19.546185    ( 0.0000,  0.0000,  0.0000)
  40 Ir     4.276504    2.398551   19.025469    ( 0.0000,  0.0000,  0.0000)
  41 Pt     6.969927    2.199604   19.124706    ( 0.0000,  0.0000,  0.0000)
  42 Ir     2.911042    4.866783   19.042146    ( 0.0000,  0.0000,  0.0000)
  43 Ir     5.514743    4.914481   19.051434    ( 0.0000,  0.0000,  0.0000)
  44 Ag     8.365151    4.760181   19.684164    ( 0.0000,  0.0000,  0.0000)
  45 O      1.374906    2.559994   21.631487    ( 0.0000,  0.0000,  0.0000)
  46 H      2.113429    3.137484   21.939359    ( 0.0000,  0.0000,  0.0000)

Unit cell:
           periodic     x           y           z      points  spacing
  1. axis:    yes    8.445283    0.000000    0.000000    35     0.2090
  2. axis:    yes    4.222641    7.313829    0.000000    35     0.2090
  3. axis:    no     0.000000    0.000000   29.175054   135     0.2161

  Lengths:   8.445283   8.445283  29.175054
  Angles:   90.000000  90.000000  60.000000

Effective grid spacing dv^(1/3) = 0.2217

                     log10-error:    total        iterations:
           time      wfs    density  energy       fermi  poisson
iter:   1  23:37:51  -2.61   +inf  -268.828280    3             
iter:   2  23:38:48  -2.04  -2.15  -299.078426    36            
iter:   3  23:39:39  -2.34  -1.43  -268.713002    3             
iter:   4  23:40:34  -3.23  -2.23  -267.905443    3             
iter:   5  23:41:28  -4.64  -2.94  -267.891018    3             
iter:   6  23:42:23  -4.98  -3.10  -267.883193    3             
iter:   7  23:43:16  -5.07  -3.25  -267.879010    2             
iter:   8  23:44:11  -5.39  -3.37  -267.877204    2             
iter:   9  23:45:04  -5.40  -3.38  -267.890282    2             
iter:  10  23:45:59  -5.45  -3.09  -267.877351    2             
iter:  11  23:46:51  -5.75  -3.59  -267.876968    3             
iter:  12  23:47:44  -5.65  -3.52  -267.876872    2             
iter:  13  23:48:36  -6.32  -3.74  -267.876686    2             
iter:  14  23:49:29  -6.40  -3.82  -267.876058    2             
iter:  15  23:50:32  -6.39  -3.82  -267.879126    2             
iter:  16  23:51:35  -6.42  -3.55  -267.876441    2             
iter:  17  23:52:27  -6.54  -4.00  -267.876248    2             
iter:  18  23:53:15  -7.07  -3.96  -267.876413    2             
iter:  19  23:54:04  -7.32  -4.15  -267.876465    2             
iter:  20  23:54:54  -7.32  -4.23  -267.876242    2             
iter:  21  23:55:43  -7.08  -4.25  -267.877023    2             
iter:  22  23:56:40  -7.49  -4.00  -267.876403    2             

Converged after 22 iterations.

Dipole moment: (27.819196, 27.948226, -0.368915) |e|*Ang

Energy contributions relative to reference atoms: (reference = -16429291.423757)

Kinetic:       -147.262041
Potential:      +90.460596
External:        +0.000000
XC:            -203.662017
Entropy (-ST):   -2.095371
Local:           -6.365256
--------------------------
Free energy:   -268.924088
Extrapolated:  -267.876403

Fermi level: 1.18862

Showing only first 2 kpts
 Kpt  Band  Eigenvalues  Occupancy
  0   357      1.18202    0.12913
  0   358      1.19691    0.11982
  0   359      1.22122    0.10480
  0   360      1.27450    0.07440

  1   357      1.05025    0.19990
  1   358      1.09875    0.17767
  1   359      1.13393    0.15836
  1   360      1.14361    0.15267



Forces in eV/Ang:
  0 Ag   -0.41907    0.15802   -1.05224
  1 Ag    0.25355    0.22910   -0.85895
  2 Ir    0.49175   -0.19729    0.02674
  3 Ir   -0.10675    1.23588    1.38956
  4 Ir    0.41071    0.40405    0.86807
  5 Ir   -0.32878   -0.01354    1.18571
  6 Ir   -1.70841   -0.50364    0.74297
  7 Ag   -0.12281   -0.34714   -0.96166
  8 Pt    1.05008   -0.39341    0.48577
  9 Ag    0.14348    0.04078    0.22850
 10 Ir   -0.04145   -0.39979    1.04146
 11 Ir   -0.65736   -0.71182   -0.55998
 12 Ir    0.42837    0.15518    0.25982
 13 Ag   -0.04438   -0.04918    0.25405
 14 Ag    0.08139    0.08160    0.19011
 15 Pt   -0.10058   -0.12443   -0.61433
 16 Ru    0.65682    0.48092   -1.37225
 17 Ir    0.12060    0.26717   -1.25931
 18 Ir    0.00082   -0.01632    0.00626
 19 Pt    0.00510   -0.00515    0.00130
 20 Pt    0.00845   -0.01788   -0.00825
 21 Ag    0.00920   -0.03102   -0.02766
 22 Ag   -0.01041   -0.02401    0.03144
 23 Ag   -0.05766   -0.02375   -0.02526
 24 Pt    0.00284   -0.02808   -0.01579
 25 Ag   -0.03172   -0.02374   -0.00354
 26 Ir   -0.03877   -0.03331   -0.00269
 27 Ru    0.00928   -0.01113    0.02176
 28 Ir    0.02806   -0.04397    0.00485
 29 Ir   -0.00782    0.00041   -0.01132
 30 Ir    0.03975   -0.02133   -0.05587
 31 Ir    0.02764   -0.04402   -0.01095
 32 Pt   -0.02240   -0.00043    0.01477
 33 Ag    0.00067    0.00317    0.03166
 34 Ir    0.02738   -0.01728    0.05109
 35 Ru   -0.02221    0.01087   -0.03939
 36 Ir    0.04257   -0.02864    0.02032
 37 Ir   -0.02575   -0.02783    0.00947
 38 Pt    0.00860   -0.02236    0.04063
 39 Ag    0.00243   -0.00186    0.04099
 40 Ir   -0.01216   -0.03706    0.01092
 41 Pt    0.01009   -0.01435    0.03753
 42 Ir    0.00758   -0.02285    0.03098
 43 Ir   -0.01929   -0.01207   -0.03352
 44 Ag    0.02745   -0.01735   -0.02121
 45 O     0.04301    0.02695   -0.02781
 46 H     0.02576    0.00012   -0.04675

Timing:                                      incl.     excl.
-------------------------------------------------------------------
Density initialized from wave functions:    32.609    32.608   0.2% |
 Symmetrize density:                         0.001     0.001   0.0% |
Forces:                                    176.783   176.783   1.1% |
Hamiltonian:                                30.147     0.093   0.0% |
 Atomic:                                     9.005     5.864   0.0% |
  XC Correction:                             3.141     3.141   0.0% |
 Calculate atomic Hamiltonians:             11.554    11.554   0.1% |
 Communicate:                                0.064     0.064   0.0% |
 Initialize Hamiltonian:                     0.001     0.001   0.0% |
 Poisson:                                    0.062     0.062   0.0% |
 XC 3D grid:                                 9.368     9.368   0.1% |
LCAO initialization:                        42.200     2.644   0.0% |
 LCAO eigensolver:                           4.828     0.002   0.0% |
  Calculate projections:                     0.039     0.039   0.0% |
  DenseAtomicCorrection:                     0.038     0.038   0.0% |
  Distribute overlap matrix:                 0.231     0.231   0.0% |
  Orbital Layouts:                           0.301     0.301   0.0% |
  Potential matrix:                          4.189     4.189   0.0% |
  Sum over cells:                            0.028     0.028   0.0% |
 LCAO to grid:                              33.122    33.122   0.2% |
 Set positions (LCAO WFS):                   1.606     0.612   0.0% |
  Basic WFS set positions:                   0.002     0.002   0.0% |
  Basis functions set positions:             0.000     0.000   0.0% |
  P tci:                                     0.410     0.410   0.0% |
  ST tci:                                    0.432     0.432   0.0% |
  mktci:                                     0.150     0.150   0.0% |
PWDescriptor:                                0.033     0.033   0.0% |
Redistribute:                                0.065     0.065   0.0% |
SCF-cycle:                               15033.046   588.314   3.8% |-|
 Davidson:                               13083.218  3157.147  20.5% |-------|
  Apply H:                                2066.176  1986.411  12.9% |----|
   HMM T:                                   79.765    79.765   0.5% |
  Subspace diag:                          1905.045     0.074   0.0% |
   calc_h_matrix:                         1042.443   359.190   2.3% ||
    Apply H:                               683.253   656.752   4.3% |-|
     HMM T:                                 26.501    26.501   0.2% |
   diagonalize:                             30.386    30.386   0.2% |
   rotate_psi:                             832.142   832.142   5.4% |-|
  calc. matrices:                         3789.201  2423.823  15.7% |-----|
   Apply H:                               1365.379  1312.453   8.5% |--|
    HMM T:                                  52.925    52.925   0.3% |
  diagonalize:                             489.718   489.718   3.2% ||
  rotate_psi:                             1675.932  1675.932  10.9% |---|
 Density:                                  690.144     0.014   0.0% |
  Atomic density matrices:                   4.042     4.042   0.0% |
  Mix:                                     293.970   293.970   1.9% ||
  Multipole moments:                         0.260     0.260   0.0% |
  Pseudo density:                          391.858   391.847   2.5% ||
   Symmetrize density:                       0.011     0.011   0.0% |
 Hamiltonian:                              611.506     2.042   0.0% |
  Atomic:                                  163.695    97.462   0.6% |
   XC Correction:                           66.232    66.232   0.4% |
  Calculate atomic Hamiltonians:           244.623   244.623   1.6% ||
  Communicate:                               0.786     0.786   0.0% |
  Poisson:                                   1.329     1.329   0.0% |
  XC 3D grid:                              199.030   199.030   1.3% ||
 Orthonormalize:                            59.863     0.005   0.0% |
  calc_s_matrix:                             8.161     8.161   0.1% |
  inverse-cholesky:                          0.743     0.743   0.0% |
  projections:                              31.968    31.968   0.2% |
  rotate_psi_s:                             18.986    18.986   0.1% |
Set symmetry:                                0.001     0.001   0.0% |
Other:                                      78.880    78.880   0.5% |
-------------------------------------------------------------------
Total:                                             15393.763 100.0%

Date: Thu Mar  3 23:56:55 2022
