
  ___ ___ ___ _ _ _  
 |   |   |_  | | | | 
 | | | | | . | | | | 
 |__ |  _|___|_____|  1.5.1
 |___|_|             

User:   clausen@node035.cluster
Date:   Thu Mar  3 14:06:07 2022
Arch:   x86_64
Pid:    61525
Python: 3.6.12
gpaw:   /software/kemi/gpaw/1.5.1/gpaw
_gpaw:  /software/kemi/gpaw/1.5.1/bin/gpaw-python
ase:    /software/kemi/ase/3.17.0/ase (version 3.17.0)
numpy:  /opt/rh/rh-python36/root/usr/lib64/python3.6/site-packages/numpy (version 1.13.1)
scipy:  /opt/rh/rh-python36/root/usr/lib64/python3.6/site-packages/scipy (version 0.19.1)
units:  Angstrom and eV
cores:  16

Input parameters:
  kpts: [4 4 1]
  mode: {ecut: 400.0,
         gammacentered: False,
         name: pw}
  xc: RPBE

System changes: positions, numbers, cell, pbc, initial_charges, initial_magmoms 

Initialize ...

Pd-setup:
  name: Palladium
  id: 6da19bfba079f22767af9506641940b9
  Z: 46
  valence: 16
  core: 30
  charge: 0.0
  file: /software/kemi/gpaw-setups/0.9.20000/Pd.RPBE.gz
  cutoffs: 1.19(comp), 2.38(filt), 2.28(core), lmax=2
  valence states:
                energy  radius
    5s(0.00)    -3.225   1.228
    4p(6.00)   -51.131   1.360
    5p(0.00)    -0.373   1.360
    4d(10.00)    -3.964   1.228
    *s          23.987   1.228
    *d          23.247   1.228

  Using partial waves for Pd as LCAO basis

Ir-setup:
  name: Iridium
  id: 73b603359d1d5397a85ae3c2440f9033
  Z: 77
  valence: 15
  core: 62
  charge: 0.0
  file: /software/kemi/gpaw-setups/0.9.20000/Ir.RPBE.gz
  cutoffs: 1.26(comp), 2.40(filt), 2.36(core), lmax=2
  valence states:
                energy  radius
    6s(2.00)    -6.219   1.296
    5p(6.00)   -54.684   1.328
    6p(0.00)    -1.215   1.328
    5d(7.00)    -7.118   1.286
    *s          20.992   1.296
    *d          20.093   1.286

  Using partial waves for Ir as LCAO basis

Ru-setup:
  name: Ruthenium
  id: 76477906e28f51dc1b29884d53556fe9
  Z: 44
  valence: 16
  core: 28
  charge: 0.0
  file: /software/kemi/gpaw-setups/0.9.20000/Ru.RPBE.gz
  cutoffs: 1.23(comp), 2.16(filt), 1.30(core), lmax=2
  valence states:
                energy  radius
    4s(2.00)   -76.255   1.281
    5s(1.00)    -4.126   1.281
    4p(6.00)   -46.371   1.286
    5p(0.00)    -0.913   1.286
    4d(7.00)    -5.146   1.254
    *d          22.066   1.254

  Using partial waves for Ru as LCAO basis

Pt-setup:
  name: Platinum
  id: f04f522592575c47ad794f6b4a415b4b
  Z: 78
  valence: 16
  core: 62
  charge: 0.0
  file: /software/kemi/gpaw-setups/0.9.20000/Pt.RPBE.gz
  cutoffs: 1.29(comp), 2.26(filt), 2.26(core), lmax=2
  valence states:
                energy  radius
    6s(1.00)    -5.516   1.307
    5p(6.00)   -55.971   1.371
    6p(0.00)    -0.856   1.371
    5d(9.00)    -6.087   1.307
    *s          21.695   1.307
    *d          21.125   1.307

  Using partial waves for Pt as LCAO basis

Ag-setup:
  name: Silver
  id: c05e55bab2c3858b3f9398f6d75cb77c
  Z: 47
  valence: 17
  core: 30
  charge: 0.0
  file: /software/kemi/gpaw-setups/0.9.20000/Ag.RPBE.gz
  cutoffs: 1.25(comp), 2.35(filt), 2.19(core), lmax=2
  valence states:
                energy  radius
    5s(1.00)    -4.277   1.286
    4p(6.00)   -58.523   1.328
    5p(0.00)    -0.755   1.328
    4d(10.00)    -7.386   1.180
    *s          22.934   1.286
    *d          19.826   1.180

  Using partial waves for Ag as LCAO basis

O-setup:
  name: Oxygen
  id: 08071ca1eed670e7821b24b7eb4d558c
  Z: 8
  valence: 6
  core: 2
  charge: 0.0
  file: /software/kemi/gpaw-setups/0.9.20000/O.RPBE.gz
  cutoffs: 0.67(comp), 1.17(filt), 0.83(core), lmax=2
  valence states:
                energy  radius
    2s(2.00)   -24.041   0.688
    2p(4.00)    -8.984   0.598
    *s           3.170   0.688
    *p          18.228   0.598
    *d           0.000   0.619

  Using partial waves for O as LCAO basis

H-setup:
  name: Hydrogen
  id: ea3f9156a1dc40d47a60fdce8f8bd75d
  Z: 1
  valence: 1
  core: 0
  charge: 0.0
  file: /software/kemi/gpaw-setups/0.9.20000/H.RPBE.gz
  cutoffs: 0.48(comp), 0.85(filt), 0.53(core), lmax=2
  valence states:
                energy  radius
    1s(1.00)    -6.572   0.476
    *s          20.639   0.476
    *p           0.000   0.476

  Using partial waves for H as LCAO basis

Reference energy: -12877860.274276

Spin-paired calculation

Occupation numbers:
  Fermi-Dirac: width=0.1000 eV

Convergence criteria:
  Maximum total energy change: 0.0005 eV / electron
  Maximum integral of absolute density change: 0.0001 electrons
  Maximum integral of absolute eigenstate change: 4e-08 eV^2
  Maximum number of iterations: 333

Symmetries present (total): 1

  ( 1  0  0)
  ( 0  1  0)
  ( 0  0  1)

16 k-points: 4 x 4 x 1 Monkhorst-Pack grid
8 k-points in the irreducible part of the Brillouin zone
       k-points in crystal coordinates                weights
   0:     0.12500000   -0.37500000    0.00000000          2/16
   1:     0.12500000   -0.12500000    0.00000000          2/16
   2:     0.12500000    0.12500000    0.00000000          2/16
   3:     0.12500000    0.37500000    0.00000000          2/16
   4:     0.37500000   -0.37500000    0.00000000          2/16
   5:     0.37500000   -0.12500000    0.00000000          2/16
   6:     0.37500000    0.12500000    0.00000000          2/16
   7:     0.37500000    0.37500000    0.00000000          2/16

Wave functions: Plane wave expansion
  Cutoff energy: 400.000 eV
  Number of coefficients (min, max): 32894, 32940
  Pulay-stress correction: 0.000000 eV/Ang^3 (de/decut=0.000000)
  Using FFTW library
  ScaLapack parameters: grid=1x1, blocksize=None
  Wavefunction extrapolation:
    Improved wavefunction reuse through dual PAW basis 

Eigensolver
   Davidson(niter=2, smin=None, normalize=True) 

Densities:
  Coarse grid: 35*35*135 grid
  Fine grid: 70*70*270 grid
  Total Charge: 0.000000 

Density mixing:
  Method: separate
  Backend: pulay
  Linear mixing parameter: 0.05
  Mixing with 5 old densities
  Damping of long wave oscillations: 50 

Hamiltonian:
  XC and Coulomb potentials evaluated on a 70*70*270 grid
  Using the RPBE Exchange-Correlation functional
 

XC parameters: RPBE with 2 nearest neighbor stencil

Memory estimate:
  Process memory now: 157.85 MiB
  Calculator: 554.76 MiB
    Density: 54.46 MiB
      Arrays: 16.41 MiB
      Localized functions: 31.69 MiB
      Mixer: 6.36 MiB
    Hamiltonian: 11.75 MiB
      Arrays: 10.73 MiB
      XC: 0.00 MiB
      Poisson: 0.00 MiB
      vbar: 1.03 MiB
    Wavefunctions: 488.54 MiB
      Arrays psit_nG: 220.65 MiB
      Eigensolver: 252.59 MiB
      Projections: 2.77 MiB
      Projectors: 5.91 MiB
      PW-descriptor: 6.62 MiB

Total number of cores used: 16
Parallelization over k-points: 8
Domain decomposition: 1 x 1 x 2

Number of atoms: 47
Number of atomic orbitals: 551
Number of bands in calculation: 439
Bands to converge: occupied states only
Number of valence electrons: 724

... initialized

Initializing position-dependent things.

Density initialized from atomic densities
Creating initial wave functions:
  439 bands from LCAO basis set

                                             
                                             
                                             
                                             
                                             
                                             
                                             
                                             
          H       Ag     Ir    Ir            
        O   Pd      Pd                       
                   Ru     PIr    Ir          
        Ir    Pt    PAg                      
                           Pd                
        Ir     Pd    IAg    Ir     Pt        
                                             
                Ag     Ru     Pd             
           Pt     Ag    PPd    Ir            
                                             
            Pt     Pt    PPt    Ru           
       Ag     Ag     Ag                      
              Ru    Ir     Pt                
         Pd    Ir     Ru                     
                                             
                                             
                                             
                                             
                                             

Positions:
   0 Pd     0.000000    1.624086   10.000000    ( 0.0000,  0.0000,  0.0000)
   1 Ir     2.812999    1.624086   10.000000    ( 0.0000,  0.0000,  0.0000)
   2 Ru     5.625998    1.624086   10.000000    ( 0.0000,  0.0000,  0.0000)
   3 Ru     1.406500    4.060215   10.000000    ( 0.0000,  0.0000,  0.0000)
   4 Ir     4.219499    4.060215   10.000000    ( 0.0000,  0.0000,  0.0000)
   5 Pt     7.032498    4.060215   10.000000    ( 0.0000,  0.0000,  0.0000)
   6 Pd     2.812999    6.496343   10.000000    ( 0.0000,  0.0000,  0.0000)
   7 Pd     5.625998    6.496343   10.000000    ( 0.0000,  0.0000,  0.0000)
   8 Ru     8.438997    6.496343   10.000000    ( 0.0000,  0.0000,  0.0000)
   9 Ag     0.000000    0.000000   12.296804    ( 0.0000,  0.0000,  0.0000)
  10 Ag     2.812999    0.000000   12.296804    ( 0.0000,  0.0000,  0.0000)
  11 Ag     5.625998    0.000000   12.296804    ( 0.0000,  0.0000,  0.0000)
  12 Pt     1.406500    2.436129   12.296804    ( 0.0000,  0.0000,  0.0000)
  13 Pt     4.219499    2.436129   12.296804    ( 0.0000,  0.0000,  0.0000)
  14 Pt     7.032498    2.436129   12.296804    ( 0.0000,  0.0000,  0.0000)
  15 Ru     2.812999    4.872257   12.296804    ( 0.0000,  0.0000,  0.0000)
  16 Pt     5.625998    4.872257   12.296804    ( 0.0000,  0.0000,  0.0000)
  17 Ir     8.438997    4.872257   12.296804    ( 0.0000,  0.0000,  0.0000)
  18 Pt     1.331112    0.739375   14.657283    ( 0.0000,  0.0000,  0.0000)
  19 Ag     4.181622    0.793852   14.645499    ( 0.0000,  0.0000,  0.0000)
  20 Pd     7.001587    0.862206   14.620346    ( 0.0000,  0.0000,  0.0000)
  21 Ag     2.800841    3.198617   14.645984    ( 0.0000,  0.0000,  0.0000)
  22 Ru     5.661352    3.374873   14.464570    ( 0.0000,  0.0000,  0.0000)
  23 Pd     8.454364    3.209063   14.568969    ( 0.0000,  0.0000,  0.0000)
  24 Ir     4.203312    5.613553   14.568997    ( 0.0000,  0.0000,  0.0000)
  25 Ir     7.031881    5.578044   14.561300    ( 0.0000,  0.0000,  0.0000)
  26 Pt     9.857688    5.665883   14.596939    ( 0.0000,  0.0000,  0.0000)
  27 Ir    -0.077764    1.506761   16.938800    ( 0.0000,  0.0000,  0.0000)
  28 Pd     2.746751    1.593087   16.991368    ( 0.0000,  0.0000,  0.0000)
  29 Ag     5.532334    1.594992   16.918159    ( 0.0000,  0.0000,  0.0000)
  30 Pd     1.401555    4.031321   16.973309    ( 0.0000,  0.0000,  0.0000)
  31 Pd     4.186062    4.107308   16.892321    ( 0.0000,  0.0000,  0.0000)
  32 Pd     7.007491    3.969527   16.736476    ( 0.0000,  0.0000,  0.0000)
  33 Ru     2.845276    6.541012   16.753610    ( 0.0000,  0.0000,  0.0000)
  34 Pd     5.662228    6.450069   16.794393    ( 0.0000,  0.0000,  0.0000)
  35 Ir     8.552515    6.378355   16.920371    ( 0.0000,  0.0000,  0.0000)
  36 Ir     0.061963   -0.029589   18.981657    ( 0.0000,  0.0000,  0.0000)
  37 Pt     2.802470   -0.097062   19.141410    ( 0.0000,  0.0000,  0.0000)
  38 Ag     5.661265    0.013033   19.406409    ( 0.0000,  0.0000,  0.0000)
  39 Pd     1.350042    2.376862   19.278970    ( 0.0000,  0.0000,  0.0000)
  40 Pd     4.315258    2.518491   19.256067    ( 0.0000,  0.0000,  0.0000)
  41 Ir     7.173708    2.513849   19.018418    ( 0.0000,  0.0000,  0.0000)
  42 Ag     2.809713    4.893314   19.379442    ( 0.0000,  0.0000,  0.0000)
  43 Ir     5.700233    4.913916   19.039342    ( 0.0000,  0.0000,  0.0000)
  44 Ir     8.278779    4.849064   19.000358    ( 0.0000,  0.0000,  0.0000)
  45 O      0.061963   -0.029589   21.406409    ( 0.0000,  0.0000,  0.0000)
  46 H      0.711963    0.620411   21.806409    ( 0.0000,  0.0000,  0.0000)

Unit cell:
           periodic     x           y           z      points  spacing
  1. axis:    yes    8.465341    0.000000    0.000000    35     0.2095
  2. axis:    yes    4.232670    7.331200    0.000000    35     0.2095
  3. axis:    no     0.000000    0.000000   29.187217   135     0.2162

  Lengths:   8.465341   8.465341  29.187217
  Angles:   90.000000  90.000000  60.000000

Effective grid spacing dv^(1/3) = 0.2221

                     log10-error:    total        iterations:
           time      wfs    density  energy       fermi  poisson
iter:   1  14:09:48  +0.33   +inf  -325.279768    3             
iter:   2  14:10:45  -0.56  -1.16  -403.721111    36            
iter:   3  14:11:41  -0.64  -1.08  -353.929070    3             
iter:   4  14:12:37  -1.30  -1.14  -271.087284    37            
iter:   5  14:13:34  -1.72  -1.35  -250.955199    35            
iter:   6  14:14:30  -1.90  -1.44  -246.773260    37            
iter:   7  14:15:27  -2.21  -1.49  -243.805645    3             
iter:   8  14:16:24  -2.28  -1.55  -240.626379    3             
iter:   9  14:17:19  -2.03  -1.69  -242.828316    3             
iter:  10  14:18:15  -2.52  -1.70  -239.769883    3             
iter:  11  14:19:10  -2.73  -1.88  -239.203458    3             
iter:  12  14:20:07  -2.90  -2.01  -239.036561    3             
iter:  13  14:21:03  -3.29  -2.12  -238.899171    3             
iter:  14  14:21:59  -3.72  -2.22  -239.004131    3             
iter:  15  14:22:56  -3.00  -2.21  -239.059745    3             
iter:  16  14:23:52  -3.36  -2.26  -239.175872    3             
iter:  17  14:24:48  -3.37  -2.22  -238.644146    3             
iter:  18  14:25:44  -3.97  -2.64  -238.627659    3             
iter:  19  14:26:40  -4.30  -2.71  -238.599810    2             
iter:  20  14:27:38  -4.39  -2.82  -238.601339    2             
iter:  21  14:28:34  -4.22  -2.79  -238.589853    3             
iter:  22  14:29:31  -4.73  -2.90  -238.609999    2             
iter:  23  14:30:29  -4.25  -2.79  -238.578663    2             
iter:  24  14:31:25  -5.19  -3.06  -238.577710    2             
iter:  25  14:32:17  -5.23  -3.15  -238.578419    2             
iter:  26  14:33:10  -5.45  -3.13  -238.576073    2             
iter:  27  14:34:02  -5.23  -3.23  -238.578909    2             
iter:  28  14:34:54  -5.48  -3.20  -238.576995    2             
iter:  29  14:35:46  -5.88  -3.42  -238.574482    2             
iter:  30  14:36:38  -5.87  -3.48  -238.575813    2             
iter:  31  14:37:29  -6.36  -3.59  -238.574661    2             
iter:  32  14:38:21  -6.31  -3.62  -238.574431    2             
iter:  33  14:39:14  -6.46  -3.73  -238.574436    2             
iter:  34  14:40:06  -6.05  -3.80  -238.574662    2             
iter:  35  14:40:58  -6.67  -3.84  -238.573681    2             
iter:  36  14:41:49  -6.25  -3.92  -238.574097    2             
iter:  37  14:42:42  -6.83  -4.07  -238.573793    2             
iter:  38  14:43:34  -7.15  -3.90  -238.573689    2             
iter:  39  14:44:25  -7.76  -4.22  -238.573729    2             

Converged after 39 iterations.

Dipole moment: (16.999537, 17.052211, -0.256063) |e|*Ang

Energy contributions relative to reference atoms: (reference = -12877860.274276)

Kinetic:       -231.435610
Potential:     +105.616175
External:        +0.000000
XC:            -104.731479
Entropy (-ST):   -2.254812
Local:           -6.895408
--------------------------
Free energy:   -239.701134
Extrapolated:  -238.573729

Fermi level: 0.94180

Showing only first 2 kpts
 Kpt  Band  Eigenvalues  Occupancy
  0   360      0.93584    0.12873
  0   361      0.95983    0.11376
  0   362      0.99583    0.09203
  0   363      1.00751    0.08535

  1   360      0.85877    0.17410
  1   361      0.87799    0.16358
  1   362      0.90887    0.14540
  1   363      0.93655    0.12828



Forces in eV/Ang:
  0 Pd   -0.11845    0.33660   -0.34619
  1 Ir    0.96266    0.70288    0.60756
  2 Ru   -1.09184    0.30214    0.68911
  3 Ru    0.41949    0.28635    1.62089
  4 Ir   -0.55859   -0.81761    1.17559
  5 Pt    0.15436    0.16190    0.06947
  6 Pd   -0.50211   -0.42725   -0.23076
  7 Pd    0.39135   -0.26957   -0.56877
  8 Ru    0.33811   -0.15555    0.55327
  9 Ag   -0.24413   -0.09522    0.06799
 10 Ag   -0.02296   -0.09905    0.04914
 11 Ag    0.08080   -0.17090   -0.14049
 12 Pt    0.09621    0.77371   -0.54714
 13 Pt    0.11916    0.57805   -0.73844
 14 Pt   -0.10459    0.21585   -0.18714
 15 Ru   -0.38674   -0.72884   -0.95443
 16 Pt   -0.42197    0.17016   -0.12988
 17 Ir    0.90644   -0.11457   -1.09347
 18 Pt    0.01112   -0.01094   -0.01657
 19 Ag   -0.00411   -0.05069    0.02198
 20 Pd   -0.01002   -0.04339    0.05145
 21 Ag   -0.00639   -0.00468   -0.02238
 22 Ru   -0.00296   -0.01084   -0.01082
 23 Pd   -0.05859    0.00049    0.03149
 24 Ir    0.01786   -0.03387    0.00483
 25 Ir    0.00400   -0.10386    0.04429
 26 Pt   -0.05802   -0.06200   -0.03645
 27 Ir    0.00123   -0.16391    0.02093
 28 Pd   -0.00943   -0.04061   -0.05131
 29 Ag   -0.02588   -0.01701   -0.00490
 30 Pd   -0.01621   -0.02076   -0.02195
 31 Pd    0.01165   -0.02521    0.00326
 32 Pd    0.01108   -0.04722    0.12077
 33 Ru    0.04810    0.01099    0.04868
 34 Pd   -0.15931    0.14848    0.16772
 35 Ir   -0.00142   -0.03620    0.06672
 36 Ir    0.25272    0.10331    2.12355
 37 Pt    0.24775   -0.04454   -0.09086
 38 Ag   -0.05563   -0.00032    0.00074
 39 Pd    0.04887    0.08618   -0.05395
 40 Pd   -0.02356   -0.00897    0.01022
 41 Ir   -0.12207    0.23135   -0.10108
 42 Ag   -0.05592   -0.08896   -0.00358
 43 Ir    0.15093   -0.22285   -0.09518
 44 Ir    0.01857    0.00078    0.03065
 45 O    -0.08880    0.13049   -1.60327
 46 H    -0.27575   -0.31938   -0.57313

System changes: positions 

Initializing position-dependent things.

Density initialized from wave functions
                                             
                                             
                                             
                                             
                                             
                                             
                                             
                                             
          H       Ag     Ir    Ir            
        O   Pd      Pd                       
                   Ru    PdIr    Ir          
        Ir    Pt    PAg    Pd                
                                             
        Ir     Pd    IAg    Ir     Pt        
                                             
                Ag     Ru     Pd             
           Pt     Ag    PPd    Ir            
                                             
            Pt     Pt    PPt    Ru           
       Ag     Ag     Ag                      
              Ru    Ir     Pt                
         Pd    Ir     Ru                     
                                             
                                             
                                             
                                             
                                             

Positions:
   0 Pd     0.000000    1.624086   10.000000    ( 0.0000,  0.0000,  0.0000)
   1 Ir     2.812999    1.624086   10.000000    ( 0.0000,  0.0000,  0.0000)
   2 Ru     5.625998    1.624086   10.000000    ( 0.0000,  0.0000,  0.0000)
   3 Ru     1.406500    4.060215   10.000000    ( 0.0000,  0.0000,  0.0000)
   4 Ir     4.219499    4.060215   10.000000    ( 0.0000,  0.0000,  0.0000)
   5 Pt     7.032498    4.060215   10.000000    ( 0.0000,  0.0000,  0.0000)
   6 Pd     2.812999    6.496343   10.000000    ( 0.0000,  0.0000,  0.0000)
   7 Pd     5.625998    6.496343   10.000000    ( 0.0000,  0.0000,  0.0000)
   8 Ru     8.438997    6.496343   10.000000    ( 0.0000,  0.0000,  0.0000)
   9 Ag     0.000000    0.000000   12.296804    ( 0.0000,  0.0000,  0.0000)
  10 Ag     2.812999    0.000000   12.296804    ( 0.0000,  0.0000,  0.0000)
  11 Ag     5.625998    0.000000   12.296804    ( 0.0000,  0.0000,  0.0000)
  12 Pt     1.406500    2.436129   12.296804    ( 0.0000,  0.0000,  0.0000)
  13 Pt     4.219499    2.436129   12.296804    ( 0.0000,  0.0000,  0.0000)
  14 Pt     7.032498    2.436129   12.296804    ( 0.0000,  0.0000,  0.0000)
  15 Ru     2.812999    4.872257   12.296804    ( 0.0000,  0.0000,  0.0000)
  16 Pt     5.625998    4.872257   12.296804    ( 0.0000,  0.0000,  0.0000)
  17 Ir     8.438997    4.872257   12.296804    ( 0.0000,  0.0000,  0.0000)
  18 Pt     1.332151    0.738353   14.655735    ( 0.0000,  0.0000,  0.0000)
  19 Ag     4.181239    0.789117   14.647553    ( 0.0000,  0.0000,  0.0000)
  20 Pd     7.000651    0.858153   14.625152    ( 0.0000,  0.0000,  0.0000)
  21 Ag     2.800243    3.198180   14.643894    ( 0.0000,  0.0000,  0.0000)
  22 Ru     5.661076    3.373860   14.463559    ( 0.0000,  0.0000,  0.0000)
  23 Pd     8.448891    3.209109   14.571910    ( 0.0000,  0.0000,  0.0000)
  24 Ir     4.204980    5.610388   14.569448    ( 0.0000,  0.0000,  0.0000)
  25 Ir     7.032254    5.568343   14.565437    ( 0.0000,  0.0000,  0.0000)
  26 Pt     9.852268    5.660091   14.593534    ( 0.0000,  0.0000,  0.0000)
  27 Ir    -0.077649    1.491450   16.940756    ( 0.0000,  0.0000,  0.0000)
  28 Pd     2.745870    1.589294   16.986574    ( 0.0000,  0.0000,  0.0000)
  29 Ag     5.529916    1.593402   16.917702    ( 0.0000,  0.0000,  0.0000)
  30 Pd     1.400041    4.029382   16.971259    ( 0.0000,  0.0000,  0.0000)
  31 Pd     4.187150    4.104953   16.892625    ( 0.0000,  0.0000,  0.0000)
  32 Pd     7.008526    3.965116   16.747757    ( 0.0000,  0.0000,  0.0000)
  33 Ru     2.849769    6.542039   16.758158    ( 0.0000,  0.0000,  0.0000)
  34 Pd     5.647346    6.463939   16.810061    ( 0.0000,  0.0000,  0.0000)
  35 Ir     8.552382    6.374974   16.926603    ( 0.0000,  0.0000,  0.0000)
  36 Ir     0.085570   -0.019939   19.180024    ( 0.0000,  0.0000,  0.0000)
  37 Pt     2.825613   -0.101222   19.132922    ( 0.0000,  0.0000,  0.0000)
  38 Ag     5.656068    0.013003   19.406478    ( 0.0000,  0.0000,  0.0000)
  39 Pd     1.354607    2.384912   19.273930    ( 0.0000,  0.0000,  0.0000)
  40 Pd     4.313057    2.517653   19.257021    ( 0.0000,  0.0000,  0.0000)
  41 Ir     7.162305    2.535460   19.008976    ( 0.0000,  0.0000,  0.0000)
  42 Ag     2.804489    4.885004   19.379108    ( 0.0000,  0.0000,  0.0000)
  43 Ir     5.714332    4.893100   19.030452    ( 0.0000,  0.0000,  0.0000)
  44 Ir     8.280514    4.849136   19.003221    ( 0.0000,  0.0000,  0.0000)
  45 O      0.053668   -0.017400   21.256643    ( 0.0000,  0.0000,  0.0000)
  46 H      0.686204    0.590576   21.752872    ( 0.0000,  0.0000,  0.0000)

Unit cell:
           periodic     x           y           z      points  spacing
  1. axis:    yes    8.465341    0.000000    0.000000    35     0.2095
  2. axis:    yes    4.232670    7.331200    0.000000    35     0.2095
  3. axis:    no     0.000000    0.000000   29.187217   135     0.2162

  Lengths:   8.465341   8.465341  29.187217
  Angles:   90.000000  90.000000  60.000000

Effective grid spacing dv^(1/3) = 0.2221

                     log10-error:    total        iterations:
           time      wfs    density  energy       fermi  poisson
iter:   1  14:45:49  -1.79   +inf  -243.651432    3             
iter:   2  14:46:47  -1.68  -1.93  -256.757176    36            
iter:   3  14:47:47  -1.64  -1.63  -282.895890    3             
iter:   4  14:48:49  -2.12  -1.42  -240.342024    36            
iter:   5  14:49:51  -3.34  -2.16  -239.553580    3             
iter:   6  14:50:53  -3.51  -2.39  -239.312399    3             
iter:   7  14:51:54  -4.03  -2.59  -239.287955    3             
iter:   8  14:52:53  -3.62  -2.65  -239.220192    3             
iter:   9  14:53:54  -4.06  -2.64  -239.219981    2             
iter:  10  14:54:53  -3.67  -2.62  -239.275178    2             
iter:  11  14:55:53  -4.15  -2.54  -239.125017    3             
iter:  12  14:56:52  -4.57  -3.05  -239.124128    2             
iter:  13  14:57:52  -5.08  -3.00  -239.116685    2             
iter:  14  14:58:53  -5.39  -3.24  -239.115350    2             
iter:  15  14:59:53  -5.11  -3.17  -239.118191    2             
iter:  16  15:00:54  -5.59  -3.11  -239.112888    2             
iter:  17  15:01:54  -5.49  -3.38  -239.111624    2             
iter:  18  15:02:55  -5.57  -3.38  -239.110523    2             
iter:  19  15:03:56  -5.45  -3.45  -239.113875    2             
iter:  20  15:04:57  -5.65  -3.32  -239.109803    2             
iter:  21  15:05:58  -6.07  -3.65  -239.110334    2             
iter:  22  15:06:58  -5.25  -3.61  -239.124664    2             
iter:  23  15:07:57  -5.75  -3.09  -239.109868    2             
iter:  24  15:08:57  -6.73  -4.06  -239.109832    2             
iter:  25  15:09:56  -6.85  -4.11  -239.110288    2             
iter:  26  15:10:56  -6.94  -4.09  -239.109983    2             
iter:  27  15:11:55  -7.04  -4.01  -239.110060    2             
iter:  28  15:12:55  -7.05  -4.24  -239.110049    2             
iter:  29  15:13:55  -6.61  -4.21  -239.109792    2             
iter:  30  15:14:55  -7.28  -3.88  -239.109810    2             
iter:  31  15:15:55  -7.86  -4.55  -239.109886    2             

Converged after 31 iterations.

Dipole moment: (16.646707, 15.813990, -0.016941) |e|*Ang

Energy contributions relative to reference atoms: (reference = -12877860.274276)

Kinetic:       -232.959352
Potential:     +106.752682
External:        +0.000000
XC:            -104.900910
Entropy (-ST):   -2.267712
Local:           -6.868451
--------------------------
Free energy:   -240.243742
Extrapolated:  -239.109886

Fermi level: 1.05165

Showing only first 2 kpts
 Kpt  Band  Eigenvalues  Occupancy
  0   360      1.03784    0.13361
  0   361      1.07234    0.11211
  0   362      1.10309    0.09354
  0   363      1.11793    0.08503

  1   360      0.96883    0.17399
  1   361      0.99028    0.16220
  1   362      1.02532    0.14136
  1   363      1.04924    0.12651



Forces in eV/Ang:
  0 Pd   -0.12264    0.32414   -0.35229
  1 Ir    0.96129    0.68849    0.60170
  2 Ru   -1.08695    0.28908    0.68790
  3 Ru    0.41282    0.28842    1.62400
  4 Ir   -0.56101   -0.79808    1.16802
  5 Pt    0.15674    0.16308    0.05207
  6 Pd   -0.49725   -0.41707   -0.24222
  7 Pd    0.38339   -0.26294   -0.57718
  8 Ru    0.33816   -0.14742    0.55005
  9 Ag   -0.25030   -0.09172    0.05156
 10 Ag   -0.02421   -0.10394    0.06380
 11 Ag    0.08841   -0.16348   -0.12674
 12 Pt    0.08857    0.75947   -0.53913
 13 Pt    0.11849    0.55266   -0.72203
 14 Pt   -0.09971    0.18554   -0.18387
 15 Ru   -0.37681   -0.71734   -0.96639
 16 Pt   -0.42282    0.19006   -0.13105
 17 Ir    0.91617   -0.12173   -1.03605
 18 Pt    0.02130   -0.03390    0.03577
 19 Ag   -0.01152   -0.04269    0.00464
 20 Pd   -0.00422   -0.04974    0.06192
 21 Ag   -0.01183   -0.02751   -0.00068
 22 Ru   -0.00631   -0.05209    0.03250
 23 Pd   -0.02749   -0.05284    0.04644
 24 Ir    0.01068    0.00980    0.07578
 25 Ir   -0.02744   -0.00357    0.05215
 26 Pt    0.01119    0.02447    0.04811
 27 Ir   -0.01557   -0.52498    0.61825
 28 Pd   -0.03726   -0.00083   -0.03433
 29 Ag   -0.01692   -0.02996   -0.00273
 30 Pd    0.02167   -0.02240   -0.01846
 31 Pd   -0.02999    0.00254   -0.00045
 32 Pd   -0.02511    0.03199   -0.08044
 33 Ru    0.04956   -0.00876    0.07888
 34 Pd   -0.25925    0.15949    0.33255
 35 Ir    0.02552   -0.02257   -0.01489
 36 Ir    0.39362    0.23868    0.29726
 37 Pt    0.10858    0.01164   -0.03608
 38 Ag    0.00940   -0.00271   -0.02168
 39 Pd    0.03204    0.11302   -0.08317
 40 Pd   -0.04635   -0.04071   -0.02316
 41 Ir   -0.03070    0.02633    0.03912
 42 Ag   -0.02582   -0.03965   -0.03417
 43 Ir   -0.00128   -0.08949   -0.02150
 44 Ir    0.22917    0.03987    0.01742
 45 O    -0.19954    0.18540   -0.58258
 46 H    -0.33633   -0.42643   -0.85600

System changes: positions 

Initializing position-dependent things.

Density initialized from wave functions
                                             
                                             
                                             
                                             
                                             
                                             
                                             
                                             
         H       Ag      Ir    Ir            
        O   Pd      Pd                       
                   Ru    PdIr    Ir          
        Ir    Pt    PAg    Pd                
                                             
        Ir     Pd    IAg    Ir     Pt        
                Ag            Pd             
                       Ru                    
           Pt     Ag    PPd    Ir            
                                             
            Pt     Pt    PPt    Ru           
       Ag     Ag     Ag                      
              Ru    Ir     Pt                
         Pd    Ir     Ru                     
                                             
                                             
                                             
                                             
                                             

Positions:
   0 Pd     0.000000    1.624086   10.000000    ( 0.0000,  0.0000,  0.0000)
   1 Ir     2.812999    1.624086   10.000000    ( 0.0000,  0.0000,  0.0000)
   2 Ru     5.625998    1.624086   10.000000    ( 0.0000,  0.0000,  0.0000)
   3 Ru     1.406500    4.060215   10.000000    ( 0.0000,  0.0000,  0.0000)
   4 Ir     4.219499    4.060215   10.000000    ( 0.0000,  0.0000,  0.0000)
   5 Pt     7.032498    4.060215   10.000000    ( 0.0000,  0.0000,  0.0000)
   6 Pd     2.812999    6.496343   10.000000    ( 0.0000,  0.0000,  0.0000)
   7 Pd     5.625998    6.496343   10.000000    ( 0.0000,  0.0000,  0.0000)
   8 Ru     8.438997    6.496343   10.000000    ( 0.0000,  0.0000,  0.0000)
   9 Ag     0.000000    0.000000   12.296804    ( 0.0000,  0.0000,  0.0000)
  10 Ag     2.812999    0.000000   12.296804    ( 0.0000,  0.0000,  0.0000)
  11 Ag     5.625998    0.000000   12.296804    ( 0.0000,  0.0000,  0.0000)
  12 Pt     1.406500    2.436129   12.296804    ( 0.0000,  0.0000,  0.0000)
  13 Pt     4.219499    2.436129   12.296804    ( 0.0000,  0.0000,  0.0000)
  14 Pt     7.032498    2.436129   12.296804    ( 0.0000,  0.0000,  0.0000)
  15 Ru     2.812999    4.872257   12.296804    ( 0.0000,  0.0000,  0.0000)
  16 Pt     5.625998    4.872257   12.296804    ( 0.0000,  0.0000,  0.0000)
  17 Ir     8.438997    4.872257   12.296804    ( 0.0000,  0.0000,  0.0000)
  18 Pt     1.335918    0.732687   14.660355    ( 0.0000,  0.0000,  0.0000)
  19 Ag     4.179294    0.780197   14.649319    ( 0.0000,  0.0000,  0.0000)
  20 Pd     6.999528    0.848517   14.637025    ( 0.0000,  0.0000,  0.0000)
  21 Ag     2.798142    3.193784   14.642708    ( 0.0000,  0.0000,  0.0000)
  22 Ru     5.659977    3.365441   14.467962    ( 0.0000,  0.0000,  0.0000)
  23 Pd     8.441892    3.201126   14.580471    ( 0.0000,  0.0000,  0.0000)
  24 Ir     4.207463    5.610235   14.581165    ( 0.0000,  0.0000,  0.0000)
  25 Ir     7.028289    5.562779   14.575482    ( 0.0000,  0.0000,  0.0000)
  26 Pt     9.851158    5.660801   14.599062    ( 0.0000,  0.0000,  0.0000)
  27 Ir    -0.079949    1.403966   17.035461    ( 0.0000,  0.0000,  0.0000)
  28 Pd     2.739768    1.587204   16.978891    ( 0.0000,  0.0000,  0.0000)
  29 Ag     5.526101    1.588040   16.917051    ( 0.0000,  0.0000,  0.0000)
  30 Pd     1.402541    4.024984   16.967400    ( 0.0000,  0.0000,  0.0000)
  31 Pd     4.183168    4.104119   16.892715    ( 0.0000,  0.0000,  0.0000)
  32 Pd     7.005256    3.967680   16.741408    ( 0.0000,  0.0000,  0.0000)
  33 Ru     2.859605    6.541244   16.772466    ( 0.0000,  0.0000,  0.0000)
  34 Pd     5.600353    6.495289   16.868568    ( 0.0000,  0.0000,  0.0000)
  35 Ir     8.556181    6.369804   16.927573    ( 0.0000,  0.0000,  0.0000)
  36 Ir     0.157443    0.021229   19.327770    ( 0.0000,  0.0000,  0.0000)
  37 Pt     2.854048   -0.101611   19.123061    ( 0.0000,  0.0000,  0.0000)
  38 Ag     5.654803    0.012576   19.403228    ( 0.0000,  0.0000,  0.0000)
  39 Pd     1.361826    2.406208   19.258717    ( 0.0000,  0.0000,  0.0000)
  40 Pd     4.304894    2.511049   19.254005    ( 0.0000,  0.0000,  0.0000)
  41 Ir     7.151749    2.550638   19.010016    ( 0.0000,  0.0000,  0.0000)
  42 Ag     2.797871    4.874694   19.373757    ( 0.0000,  0.0000,  0.0000)
  43 Ir     5.721438    4.868760   19.022590    ( 0.0000,  0.0000,  0.0000)
  44 Ir     8.316142    4.855216   19.007342    ( 0.0000,  0.0000,  0.0000)
  45 O      0.019134    0.017007   21.090820    ( 0.0000,  0.0000,  0.0000)
  46 H      0.621899    0.510508   21.595432    ( 0.0000,  0.0000,  0.0000)

Unit cell:
           periodic     x           y           z      points  spacing
  1. axis:    yes    8.465341    0.000000    0.000000    35     0.2095
  2. axis:    yes    4.232670    7.331200    0.000000    35     0.2095
  3. axis:    no     0.000000    0.000000   29.187217   135     0.2162

  Lengths:   8.465341   8.465341  29.187217
  Angles:   90.000000  90.000000  60.000000

Effective grid spacing dv^(1/3) = 0.2221

                     log10-error:    total        iterations:
           time      wfs    density  energy       fermi  poisson
iter:   1  15:17:23  -1.54   +inf  -276.922507    37            
iter:   2  15:18:22  +0.49  -1.42  -810.910421    36            
iter:   3  15:19:20  -0.35  -0.80  -265.900424    37            
iter:   4  15:20:22  -1.48  -1.56  -242.549150    37            
iter:   5  15:21:22  -2.26  -2.01  -242.863901    3             
iter:   6  15:22:22  -2.73  -1.88  -240.502448    3             
iter:   7  15:23:21  -2.94  -2.12  -239.554031    3             
iter:   8  15:24:20  -2.92  -2.28  -240.989735    2             
iter:   9  15:25:19  -3.31  -1.98  -239.000358    3             
iter:  10  15:26:17  -3.57  -2.48  -238.926650    3             
iter:  11  15:27:15  -3.68  -2.53  -238.793780    3             
iter:  12  15:28:15  -3.89  -2.67  -238.752433    3             
iter:  13  15:29:15  -3.89  -2.73  -238.725112    3             
iter:  14  15:30:15  -4.03  -2.76  -238.693467    3             
iter:  15  15:31:13  -4.19  -2.90  -238.747218    2             
iter:  16  15:32:12  -4.63  -2.63  -238.681755    3             
iter:  17  15:33:11  -4.70  -3.04  -238.673663    2             
iter:  18  15:34:09  -5.09  -3.14  -238.685053    2             
iter:  19  15:35:08  -4.85  -2.95  -238.676025    2             
iter:  20  15:36:07  -5.15  -3.15  -238.671053    2             
iter:  21  15:37:06  -5.24  -3.34  -238.670845    2             
iter:  22  15:38:05  -5.49  -3.35  -238.677930    2             
iter:  23  15:39:05  -5.71  -3.16  -238.670536    2             
iter:  24  15:40:04  -5.35  -3.48  -238.675627    2             
iter:  25  15:41:02  -5.75  -3.34  -238.671107    2             
iter:  26  15:42:01  -6.38  -3.47  -238.670424    2             
iter:  27  15:42:59  -6.50  -3.73  -238.670082    2             
iter:  28  15:43:58  -6.52  -3.87  -238.670843    2             
iter:  29  15:44:57  -6.54  -3.73  -238.670329    2             
iter:  30  15:45:56  -6.39  -4.06  -238.670662    2             
iter:  31  15:46:58  -6.39  -3.97  -238.670693    2             
iter:  32  15:47:59  -6.54  -3.62  -238.670324    2             
iter:  33  15:48:59  -7.13  -4.27  -238.670208    2             
iter:  34  15:49:57  -7.48  -4.27  -238.670344    2             

Converged after 34 iterations.

Dipole moment: (16.790783, 11.108308, 0.237120) |e|*Ang

Energy contributions relative to reference atoms: (reference = -12877860.274276)

Kinetic:       -209.813847
Potential:      +87.622820
External:        +0.000000
XC:            -108.400385
Entropy (-ST):   -2.258008
Local:           -6.949928
--------------------------
Free energy:   -239.799349
Extrapolated:  -238.670344

Fermi level: 1.17914

Showing only first 2 kpts
 Kpt  Band  Eigenvalues  Occupancy
  0   360      1.16578    0.13334
  0   361      1.19566    0.11470
  0   362      1.22460    0.09707
  0   363      1.25186    0.08145

  1   360      1.09614    0.17409
  1   361      1.11233    0.16527
  1   362      1.16215    0.13560
  1   363      1.18576    0.12086



Forces in eV/Ang:
  0 Pd   -0.12751    0.32072   -0.35001
  1 Ir    0.96136    0.68054    0.60099
  2 Ru   -1.08101    0.28792    0.68288
  3 Ru    0.40075    0.30093    1.65186
  4 Ir   -0.55296   -0.79063    1.17533
  5 Pt    0.15335    0.16134    0.05113
  6 Pd   -0.49502   -0.40817   -0.24299
  7 Pd    0.38212   -0.25852   -0.57369
  8 Ru    0.33174   -0.15035    0.56682
  9 Ag   -0.25283   -0.09134    0.09869
 10 Ag   -0.03266   -0.11265    0.08894
 11 Ag    0.09798   -0.16121   -0.10696
 12 Pt    0.07010    0.74302   -0.50116
 13 Pt    0.12145    0.54253   -0.70974
 14 Pt   -0.08839    0.16328   -0.14079
 15 Ru   -0.36586   -0.70927   -0.95714
 16 Pt   -0.43026    0.18565   -0.05155
 17 Ir    0.91944   -0.13503   -0.94692
 18 Pt   -0.06200   -0.09422    0.15382
 19 Ag   -0.01114   -0.01385   -0.01746
 20 Pd    0.06469   -0.02224    0.06230
 21 Ag   -0.01468   -0.00653   -0.01902
 22 Ru    0.00682   -0.01065   -0.01818
 23 Pd   -0.00265   -0.03267   -0.00066
 24 Ir    0.04799    0.02179    0.01722
 25 Ir   -0.06185    0.04144    0.00923
 26 Pt    0.08204    0.03183    0.07281
 27 Ir   -0.10451    0.18156    0.18366
 28 Pd   -0.00550    0.02046   -0.02682
 29 Ag    0.00467    0.02452    0.00165
 30 Pd   -0.02476   -0.03625   -0.08603
 31 Pd   -0.01773   -0.04644   -0.00570
 32 Pd    0.03520    0.06678    0.01176
 33 Ru   -0.27898   -0.27334   -0.12250
 34 Pd    0.10628   -0.15004    0.02431
 35 Ir   -0.01860   -0.05697   -0.06099
 36 Ir    0.42127   -0.60901   -5.84130
 37 Pt    0.10474   -0.01309    0.03818
 38 Ag    0.07656    0.01007   -0.04696
 39 Pd    0.11584    0.25608    0.01714
 40 Pd   -0.00347   -0.04047   -0.03404
 41 Ir   -0.07668    0.19021    0.15757
 42 Ag    0.06423    0.07189   -0.05474
 43 Ir    0.21409   -0.10881    0.11736
 44 Ir   -0.01850   -0.00402   -0.07285
 45 O    -3.04891   -1.78184    3.60139
 46 H     2.30745    1.77720    1.67632

System changes: positions 

Initializing position-dependent things.

Density initialized from wave functions
                                             
                                             
                                             
                                             
                                             
                                             
                                             
                                             
         H        Ag     Ir    Ir            
        O   Pd      Pd                       
                   Ru    PdIr    Ir          
        Ir    Pt    PAg    Pd                
                                             
        Ir     Pd    IAg    Ir     Pt        
                Ag                           
                       Ru     Pd             
           Pt     Ag    PPd    Ir            
                                             
            Pt     Pt    PPt    Ru           
       Ag     Ag     Ag                      
              Ru    Ir     Pt                
         Pd    Ir     Ru                     
                                             
                                             
                                             
                                             
                                             

Positions:
   0 Pd     0.000000    1.624086   10.000000    ( 0.0000,  0.0000,  0.0000)
   1 Ir     2.812999    1.624086   10.000000    ( 0.0000,  0.0000,  0.0000)
   2 Ru     5.625998    1.624086   10.000000    ( 0.0000,  0.0000,  0.0000)
   3 Ru     1.406500    4.060215   10.000000    ( 0.0000,  0.0000,  0.0000)
   4 Ir     4.219499    4.060215   10.000000    ( 0.0000,  0.0000,  0.0000)
   5 Pt     7.032498    4.060215   10.000000    ( 0.0000,  0.0000,  0.0000)
   6 Pd     2.812999    6.496343   10.000000    ( 0.0000,  0.0000,  0.0000)
   7 Pd     5.625998    6.496343   10.000000    ( 0.0000,  0.0000,  0.0000)
   8 Ru     8.438997    6.496343   10.000000    ( 0.0000,  0.0000,  0.0000)
   9 Ag     0.000000    0.000000   12.296804    ( 0.0000,  0.0000,  0.0000)
  10 Ag     2.812999    0.000000   12.296804    ( 0.0000,  0.0000,  0.0000)
  11 Ag     5.625998    0.000000   12.296804    ( 0.0000,  0.0000,  0.0000)
  12 Pt     1.406500    2.436129   12.296804    ( 0.0000,  0.0000,  0.0000)
  13 Pt     4.219499    2.436129   12.296804    ( 0.0000,  0.0000,  0.0000)
  14 Pt     7.032498    2.436129   12.296804    ( 0.0000,  0.0000,  0.0000)
  15 Ru     2.812999    4.872257   12.296804    ( 0.0000,  0.0000,  0.0000)
  16 Pt     5.625998    4.872257   12.296804    ( 0.0000,  0.0000,  0.0000)
  17 Ir     8.438997    4.872257   12.296804    ( 0.0000,  0.0000,  0.0000)
  18 Pt     1.333357    0.736539   14.657214    ( 0.0000,  0.0000,  0.0000)
  19 Ag     4.180616    0.786262   14.648118    ( 0.0000,  0.0000,  0.0000)
  20 Pd     7.000291    0.855069   14.628952    ( 0.0000,  0.0000,  0.0000)
  21 Ag     2.799571    3.196773   14.643514    ( 0.0000,  0.0000,  0.0000)
  22 Ru     5.660724    3.371166   14.464968    ( 0.0000,  0.0000,  0.0000)
  23 Pd     8.446651    3.206554   14.574650    ( 0.0000,  0.0000,  0.0000)
  24 Ir     4.205775    5.610339   14.573198    ( 0.0000,  0.0000,  0.0000)
  25 Ir     7.030985    5.566562   14.568652    ( 0.0000,  0.0000,  0.0000)
  26 Pt     9.851913    5.660318   14.595304    ( 0.0000,  0.0000,  0.0000)
  27 Ir    -0.078385    1.463450   16.971067    ( 0.0000,  0.0000,  0.0000)
  28 Pd     2.743917    1.588625   16.984115    ( 0.0000,  0.0000,  0.0000)
  29 Ag     5.528695    1.591686   16.917494    ( 0.0000,  0.0000,  0.0000)
  30 Pd     1.400841    4.027974   16.970024    ( 0.0000,  0.0000,  0.0000)
  31 Pd     4.185876    4.104686   16.892654    ( 0.0000,  0.0000,  0.0000)
  32 Pd     7.007479    3.965936   16.745725    ( 0.0000,  0.0000,  0.0000)
  33 Ru     2.852917    6.541784   16.762737    ( 0.0000,  0.0000,  0.0000)
  34 Pd     5.632305    6.473973   16.828786    ( 0.0000,  0.0000,  0.0000)
  35 Ir     8.553598    6.373319   16.926914    ( 0.0000,  0.0000,  0.0000)
  36 Ir     0.108574   -0.006763   19.227312    ( 0.0000,  0.0000,  0.0000)
  37 Pt     2.834714   -0.101346   19.129766    ( 0.0000,  0.0000,  0.0000)
  38 Ag     5.655663    0.012866   19.405438    ( 0.0000,  0.0000,  0.0000)
  39 Pd     1.356918    2.391728   19.269061    ( 0.0000,  0.0000,  0.0000)
  40 Pd     4.310444    2.515539   19.256056    ( 0.0000,  0.0000,  0.0000)
  41 Ir     7.158926    2.540318   19.009309    ( 0.0000,  0.0000,  0.0000)
  42 Ag     2.802371    4.881704   19.377395    ( 0.0000,  0.0000,  0.0000)
  43 Ir     5.716606    4.885310   19.027935    ( 0.0000,  0.0000,  0.0000)
  44 Ir     8.291917    4.851082   19.004540    ( 0.0000,  0.0000,  0.0000)
  45 O      0.042615   -0.006388   21.203570    ( 0.0000,  0.0000,  0.0000)
  46 H      0.665623    0.564949   21.702482    ( 0.0000,  0.0000,  0.0000)

Unit cell:
           periodic     x           y           z      points  spacing
  1. axis:    yes    8.465341    0.000000    0.000000    35     0.2095
  2. axis:    yes    4.232670    7.331200    0.000000    35     0.2095
  3. axis:    no     0.000000    0.000000   29.187217   135     0.2162

  Lengths:   8.465341   8.465341  29.187217
  Angles:   90.000000  90.000000  60.000000

Effective grid spacing dv^(1/3) = 0.2221

                     log10-error:    total        iterations:
           time      wfs    density  energy       fermi  poisson
iter:   1  15:51:16  -1.52   +inf  -253.392740    37            
iter:   2  15:52:08  -0.90  -1.66  -457.278946    37            
iter:   3  15:53:01  -1.36  -1.09  -243.360159    37            
iter:   4  15:53:53  -2.24  -1.89  -241.432189    3             
iter:   5  15:54:46  -2.87  -2.04  -240.186005    3             
iter:   6  15:55:39  -3.12  -2.24  -239.442510    3             
iter:   7  15:56:31  -3.59  -2.60  -239.355221    2             
iter:   8  15:57:23  -3.84  -2.62  -239.268917    3             
iter:   9  15:58:15  -4.26  -2.79  -239.314262    3             
iter:  10  15:59:01  -4.55  -2.63  -239.265211    2             
iter:  11  15:59:50  -4.12  -2.80  -239.300905    2             
iter:  12  16:00:42  -4.09  -2.65  -239.303536    3             
iter:  13  16:01:43  -4.54  -2.65  -239.230524    3             
iter:  14  16:02:43  -5.10  -2.97  -239.221803    2             
iter:  15  16:03:43  -5.49  -3.13  -239.220542    2             
iter:  16  16:04:43  -5.03  -3.16  -239.222241    2             
iter:  17  16:05:44  -5.65  -3.27  -239.216969    2             
iter:  18  16:06:45  -5.65  -3.38  -239.217520    2             
iter:  19  16:07:45  -5.93  -3.55  -239.216879    2             
iter:  20  16:08:42  -6.00  -3.48  -239.216825    2             
iter:  21  16:09:42  -6.03  -3.69  -239.216598    2             
iter:  22  16:10:41  -6.00  -3.86  -239.217421    2             
iter:  23  16:11:40  -5.85  -3.64  -239.218170    2             
iter:  24  16:12:39  -6.08  -3.39  -239.216663    2             
iter:  25  16:13:39  -6.74  -3.97  -239.216253    2             
iter:  26  16:14:38  -6.94  -3.82  -239.216405    2             
iter:  27  16:15:37  -7.09  -4.02  -239.216296    2             
iter:  28  16:16:36  -7.20  -4.20  -239.216253    2             
iter:  29  16:17:34  -6.80  -4.27  -239.216104    2             
iter:  30  16:18:33  -7.35  -4.13  -239.216371    2             
iter:  31  16:19:33  -7.03  -4.35  -239.216071    2             
iter:  32  16:20:32  -7.52  -4.42  -239.216209    2             

Converged after 32 iterations.

Dipole moment: (16.634279, 14.311390, 0.059257) |e|*Ang

Energy contributions relative to reference atoms: (reference = -12877860.274276)

Kinetic:       -228.539629
Potential:     +103.093908
External:        +0.000000
XC:            -105.756450
Entropy (-ST):   -2.267153
Local:           -6.880461
--------------------------
Free energy:   -240.349786
Extrapolated:  -239.216209

Fermi level: 1.08963

Showing only first 2 kpts
 Kpt  Band  Eigenvalues  Occupancy
  0   360      1.07312    0.13530
  0   361      1.11031    0.11212
  0   362      1.13895    0.09479
  0   363      1.15666    0.08461

  1   360      1.00730    0.17373
  1   361      1.02689    0.16298
  1   362      1.06665    0.13930
  1   363      1.09071    0.12433



Forces in eV/Ang:
  0 Pd   -0.12346    0.32544   -0.34886
  1 Ir    0.96301    0.68825    0.60507
  2 Ru   -1.08674    0.29074    0.68900
  3 Ru    0.41017    0.29135    1.63676
  4 Ir   -0.55901   -0.79805    1.17344
  5 Pt    0.15430    0.16181    0.05483
  6 Pd   -0.49682   -0.41608   -0.23954
  7 Pd    0.38443   -0.26318   -0.57436
  8 Ru    0.33496   -0.14792    0.55957
  9 Ag   -0.25072   -0.09226    0.06144
 10 Ag   -0.02716   -0.10676    0.07208
 11 Ag    0.09179   -0.16260   -0.12070
 12 Pt    0.08279    0.75659   -0.52873
 13 Pt    0.11975    0.55070   -0.72080
 14 Pt   -0.09670    0.18003   -0.17178
 15 Ru   -0.37350   -0.71637   -0.96376
 16 Pt   -0.42536    0.18703   -0.10576
 17 Ir    0.91748   -0.12756   -1.00756
 18 Pt   -0.00411   -0.05177    0.07037
 19 Ag   -0.01267   -0.03281   -0.00187
 20 Pd    0.02164   -0.03639    0.06592
 21 Ag   -0.01028   -0.02011   -0.00609
 22 Ru   -0.00532   -0.03706    0.01731
 23 Pd   -0.02083   -0.05362    0.04301
 24 Ir    0.02475    0.01359    0.05600
 25 Ir   -0.04646    0.01520    0.04685
 26 Pt    0.03763    0.02909    0.05933
 27 Ir   -0.03240   -0.32673    0.47586
 28 Pd   -0.02299    0.00620   -0.03656
 29 Ag   -0.01331   -0.01043   -0.00556
 30 Pd    0.00052   -0.02658   -0.04874
 31 Pd   -0.02565   -0.01490   -0.00819
 32 Pd    0.00148    0.03341   -0.05173
 33 Ru   -0.04660   -0.08795    0.02575
 34 Pd   -0.15741    0.07537    0.24018
 35 Ir    0.01532   -0.03625   -0.03853
 36 Ir    0.28930   -0.00418   -0.73076
 37 Pt    0.10918    0.00440   -0.00735
 38 Ag    0.03150    0.00480   -0.02864
 39 Pd    0.06030    0.16047   -0.06237
 40 Pd   -0.03681   -0.04743   -0.00958
 41 Ir   -0.03892    0.07862    0.08634
 42 Ag    0.00305   -0.00340   -0.03691
 43 Ir    0.07380   -0.08331    0.02478
 44 Ir    0.14684    0.02153    0.00570
 45 O    -0.93512   -0.42398   -0.06861
 46 H     0.38448    0.22240   -0.24751

System changes: positions 

Initializing position-dependent things.

Density initialized from wave functions
                                             
                                             
                                             
                                             
                                             
                                             
                                             
                                             
          H       Ag     Ir    Ir            
       O    Pd      Pd                       
                   Ru    PdIr    Ir          
        Ir    Pt    PAg    Pd                
                                             
        Ir     Pd    IAg    Ir     Pt        
                Ag                           
                       Ru     Pd             
           Pt     Ag    PPd    Ir            
                                             
            Pt     Pt    PPt    Ru           
       Ag     Ag     Ag                      
              Ru    Ir     Pt                
         Pd    Ir     Ru                     
                                             
                                             
                                             
                                             
                                             

Positions:
   0 Pd     0.000000    1.624086   10.000000    ( 0.0000,  0.0000,  0.0000)
   1 Ir     2.812999    1.624086   10.000000    ( 0.0000,  0.0000,  0.0000)
   2 Ru     5.625998    1.624086   10.000000    ( 0.0000,  0.0000,  0.0000)
   3 Ru     1.406500    4.060215   10.000000    ( 0.0000,  0.0000,  0.0000)
   4 Ir     4.219499    4.060215   10.000000    ( 0.0000,  0.0000,  0.0000)
   5 Pt     7.032498    4.060215   10.000000    ( 0.0000,  0.0000,  0.0000)
   6 Pd     2.812999    6.496343   10.000000    ( 0.0000,  0.0000,  0.0000)
   7 Pd     5.625998    6.496343   10.000000    ( 0.0000,  0.0000,  0.0000)
   8 Ru     8.438997    6.496343   10.000000    ( 0.0000,  0.0000,  0.0000)
   9 Ag     0.000000    0.000000   12.296804    ( 0.0000,  0.0000,  0.0000)
  10 Ag     2.812999    0.000000   12.296804    ( 0.0000,  0.0000,  0.0000)
  11 Ag     5.625998    0.000000   12.296804    ( 0.0000,  0.0000,  0.0000)
  12 Pt     1.406500    2.436129   12.296804    ( 0.0000,  0.0000,  0.0000)
  13 Pt     4.219499    2.436129   12.296804    ( 0.0000,  0.0000,  0.0000)
  14 Pt     7.032498    2.436129   12.296804    ( 0.0000,  0.0000,  0.0000)
  15 Ru     2.812999    4.872257   12.296804    ( 0.0000,  0.0000,  0.0000)
  16 Pt     5.625998    4.872257   12.296804    ( 0.0000,  0.0000,  0.0000)
  17 Ir     8.438997    4.872257   12.296804    ( 0.0000,  0.0000,  0.0000)
  18 Pt     1.334074    0.729097   14.665799    ( 0.0000,  0.0000,  0.0000)
  19 Ag     4.178625    0.779168   14.648886    ( 0.0000,  0.0000,  0.0000)
  20 Pd     7.002200    0.847587   14.640487    ( 0.0000,  0.0000,  0.0000)
  21 Ag     2.797754    3.193349   14.641981    ( 0.0000,  0.0000,  0.0000)
  22 Ru     5.659790    3.364723   14.467688    ( 0.0000,  0.0000,  0.0000)
  23 Pd     8.441161    3.198642   14.582318    ( 0.0000,  0.0000,  0.0000)
  24 Ir     4.209599    5.610972   14.582402    ( 0.0000,  0.0000,  0.0000)
  25 Ir     7.024923    5.564315   14.577428    ( 0.0000,  0.0000,  0.0000)
  26 Pt     9.854406    5.662186   14.602362    ( 0.0000,  0.0000,  0.0000)
  27 Ir    -0.082541    1.401755   17.047614    ( 0.0000,  0.0000,  0.0000)
  28 Pd     2.739642    1.587796   16.976880    ( 0.0000,  0.0000,  0.0000)
  29 Ag     5.525636    1.588806   16.916590    ( 0.0000,  0.0000,  0.0000)
  30 Pd     1.401085    4.023415   16.963075    ( 0.0000,  0.0000,  0.0000)
  31 Pd     4.182341    4.102176   16.891838    ( 0.0000,  0.0000,  0.0000)
  32 Pd     7.007146    3.969105   16.741458    ( 0.0000,  0.0000,  0.0000)
  33 Ru     2.851245    6.531996   16.770272    ( 0.0000,  0.0000,  0.0000)
  34 Pd     5.599396    6.493668   16.873950    ( 0.0000,  0.0000,  0.0000)
  35 Ir     8.556189    6.367100   16.924506    ( 0.0000,  0.0000,  0.0000)
  36 Ir     0.164590    0.005194   19.234186    ( 0.0000,  0.0000,  0.0000)
  37 Pt     2.860022   -0.102072   19.124292    ( 0.0000,  0.0000,  0.0000)
  38 Ag     5.657492    0.013296   19.401466    ( 0.0000,  0.0000,  0.0000)
  39 Pd     1.366648    2.417007   19.257065    ( 0.0000,  0.0000,  0.0000)
  40 Pd     4.303769    2.508411   19.254519    ( 0.0000,  0.0000,  0.0000)
  41 Ir     7.148951    2.558619   19.016696    ( 0.0000,  0.0000,  0.0000)
  42 Ag     2.799721    4.876614   19.371884    ( 0.0000,  0.0000,  0.0000)
  43 Ir     5.730407    4.864514   19.026436    ( 0.0000,  0.0000,  0.0000)
  44 Ir     8.317371    4.854969   19.006938    ( 0.0000,  0.0000,  0.0000)
  45 O     -0.072885   -0.042501   21.115774    ( 0.0000,  0.0000,  0.0000)
  46 H      0.686498    0.562762   21.622657    ( 0.0000,  0.0000,  0.0000)

Unit cell:
           periodic     x           y           z      points  spacing
  1. axis:    yes    8.465341    0.000000    0.000000    35     0.2095
  2. axis:    yes    4.232670    7.331200    0.000000    35     0.2095
  3. axis:    no     0.000000    0.000000   29.187217   135     0.2162

  Lengths:   8.465341   8.465341  29.187217
  Angles:   90.000000  90.000000  60.000000

Effective grid spacing dv^(1/3) = 0.2221

                     log10-error:    total        iterations:
           time      wfs    density  energy       fermi  poisson
iter:   1  16:21:59  -1.92   +inf  -242.284668    4             
iter:   2  16:22:59  -1.37  -1.89  -335.151192    36            
iter:   3  16:23:57  -1.90  -1.24  -243.857119    34            
iter:   4  16:24:57  -2.54  -1.88  -239.470058    3             
iter:   5  16:25:56  -3.42  -2.41  -239.212122    3             
iter:   6  16:26:56  -3.92  -2.74  -239.189794    3             
iter:   7  16:27:55  -3.95  -2.66  -239.172108    3             
iter:   8  16:28:55  -3.92  -2.71  -239.098552    3             
iter:   9  16:29:53  -4.30  -3.02  -239.104969    2             
iter:  10  16:30:52  -4.63  -2.91  -239.090205    3             
iter:  11  16:31:53  -4.66  -3.03  -239.087438    3             
iter:  12  16:32:53  -5.04  -3.20  -239.089506    3             
iter:  13  16:33:53  -5.32  -3.06  -239.084563    2             
iter:  14  16:34:52  -5.82  -3.25  -239.081230    2             
iter:  15  16:35:52  -5.64  -3.45  -239.081275    2             
iter:  16  16:36:52  -5.57  -3.49  -239.082454    2             
iter:  17  16:37:53  -5.60  -3.33  -239.082425    2             
iter:  18  16:38:51  -5.87  -3.51  -239.079935    2             
iter:  19  16:39:51  -5.89  -3.68  -239.082967    2             
iter:  20  16:40:49  -6.07  -3.37  -239.080388    2             
iter:  21  16:41:49  -6.35  -3.82  -239.080604    2             
iter:  22  16:42:48  -6.62  -3.75  -239.080205    2             
iter:  23  16:43:47  -6.62  -3.77  -239.080521    2             
iter:  24  16:44:47  -6.10  -3.88  -239.079784    2             
iter:  25  16:45:46  -6.54  -3.74  -239.080243    2             
iter:  26  16:46:44  -6.72  -3.75  -239.079762    2             
iter:  27  16:47:42  -7.22  -4.08  -239.079692    2             
iter:  28  16:48:35  -7.12  -4.24  -239.079583    2             
iter:  29  16:49:23  -7.14  -4.18  -239.079872    2             
iter:  30  16:50:10  -7.19  -4.09  -239.079607    2             
iter:  31  16:50:56  -6.93  -4.10  -239.080136    2             
iter:  32  16:51:44  -7.04  -3.90  -239.079816    2             
iter:  33  16:52:31  -7.43  -4.18  -239.079735    2             

Converged after 33 iterations.

Dipole moment: (22.826079, 15.740329, 0.125214) |e|*Ang

Energy contributions relative to reference atoms: (reference = -12877860.274276)

Kinetic:       -223.880294
Potential:      +98.544348
External:        +0.000000
XC:            -105.725286
Entropy (-ST):   -2.241028
Local:           -6.897989
--------------------------
Free energy:   -240.200249
Extrapolated:  -239.079735

Fermi level: 1.12622

Showing only first 2 kpts
 Kpt  Band  Eigenvalues  Occupancy
  0   360      1.10898    0.13575
  0   361      1.14326    0.11438
  0   362      1.17241    0.09663
  0   363      1.20360    0.07891

  1   360      1.04535    0.17296
  1   361      1.05830    0.16589
  1   362      1.10603    0.13758
  1   363      1.13165    0.12161



Forces in eV/Ang:
  0 Pd   -0.12382    0.32452   -0.35084
  1 Ir    0.96543    0.68497    0.59718
  2 Ru   -1.08647    0.29053    0.68537
  3 Ru    0.40321    0.30402    1.66270
  4 Ir   -0.55574   -0.79783    1.17289
  5 Pt    0.15125    0.16244    0.04901
  6 Pd   -0.49714   -0.41317   -0.24214
  7 Pd    0.38550   -0.26041   -0.57488
  8 Ru    0.32939   -0.15094    0.56794
  9 Ag   -0.24874   -0.08897    0.10118
 10 Ag   -0.03725   -0.11188    0.09262
 11 Ag    0.09997   -0.16591   -0.10061
 12 Pt    0.06614    0.74252   -0.49116
 13 Pt    0.12181    0.54595   -0.71402
 14 Pt   -0.08428    0.16130   -0.12791
 15 Ru   -0.37242   -0.71244   -0.96164
 16 Pt   -0.42612    0.18254   -0.05390
 17 Ir    0.92705   -0.13199   -0.96248
 18 Pt   -0.05452   -0.06412    0.10510
 19 Ag   -0.00417   -0.00798   -0.01869
 20 Pd    0.03832   -0.01009    0.02831
 21 Ag   -0.01426   -0.01151   -0.02854
 22 Ru    0.01115   -0.01443   -0.01598
 23 Pd   -0.00494   -0.01563   -0.01001
 24 Ir    0.03589   -0.00131   -0.00929
 25 Ir   -0.04226    0.00684    0.02340
 26 Pt    0.05474    0.00029    0.01975
 27 Ir   -0.11118    0.32008   -0.03410
 28 Pd   -0.00545    0.01034   -0.01350
 29 Ag    0.00870    0.02267   -0.00432
 30 Pd   -0.02494   -0.04191   -0.09221
 31 Pd    0.00355   -0.05773   -0.01537
 32 Pd    0.00530    0.02939    0.00940
 33 Ru   -0.21962   -0.22548   -0.07661
 34 Pd    0.09647   -0.14446    0.00163
 35 Ir   -0.01209   -0.02234   -0.05394
 36 Ir   -0.03426   -0.61962   -1.61623
 37 Pt    0.10581    0.01436    0.08180
 38 Ag    0.09541    0.01644   -0.02467
 39 Pd    0.04889    0.11510    0.06863
 40 Pd   -0.00528   -0.03576   -0.00058
 41 Ir   -0.04141    0.11305    0.11198
 42 Ag    0.07486    0.05902   -0.03303
 43 Ir    0.15101   -0.05791    0.13724
 44 Ir    0.05813    0.00544   -0.01211
 45 O     2.02505    1.91280    2.86739
 46 H    -2.16492   -1.79621   -1.50315

System changes: positions 

Initializing position-dependent things.

Density initialized from wave functions
                                             
                                             
                                             
                                             
                                             
                                             
                                             
                                             
         H        Ag     Ir    Ir            
       O    Pd      Pd                       
                   Ru    PdIr    Ir          
        Ir    Pt    PAg    Pd                
                                             
        Ir     Pd    IAg    Ir     Pt        
                Ag                           
                       Ru     Pd             
           Pt     Ag    PPd    Ir            
                                             
            Pt     Pt    PPt    Ru           
       Ag     Ag     Ag                      
              Ru    Ir     Pt                
         Pd    Ir     Ru                     
                                             
                                             
                                             
                                             
                                             

Positions:
   0 Pd     0.000000    1.624086   10.000000    ( 0.0000,  0.0000,  0.0000)
   1 Ir     2.812999    1.624086   10.000000    ( 0.0000,  0.0000,  0.0000)
   2 Ru     5.625998    1.624086   10.000000    ( 0.0000,  0.0000,  0.0000)
   3 Ru     1.406500    4.060215   10.000000    ( 0.0000,  0.0000,  0.0000)
   4 Ir     4.219499    4.060215   10.000000    ( 0.0000,  0.0000,  0.0000)
   5 Pt     7.032498    4.060215   10.000000    ( 0.0000,  0.0000,  0.0000)
   6 Pd     2.812999    6.496343   10.000000    ( 0.0000,  0.0000,  0.0000)
   7 Pd     5.625998    6.496343   10.000000    ( 0.0000,  0.0000,  0.0000)
   8 Ru     8.438997    6.496343   10.000000    ( 0.0000,  0.0000,  0.0000)
   9 Ag     0.000000    0.000000   12.296804    ( 0.0000,  0.0000,  0.0000)
  10 Ag     2.812999    0.000000   12.296804    ( 0.0000,  0.0000,  0.0000)
  11 Ag     5.625998    0.000000   12.296804    ( 0.0000,  0.0000,  0.0000)
  12 Pt     1.406500    2.436129   12.296804    ( 0.0000,  0.0000,  0.0000)
  13 Pt     4.219499    2.436129   12.296804    ( 0.0000,  0.0000,  0.0000)
  14 Pt     7.032498    2.436129   12.296804    ( 0.0000,  0.0000,  0.0000)
  15 Ru     2.812999    4.872257   12.296804    ( 0.0000,  0.0000,  0.0000)
  16 Pt     5.625998    4.872257   12.296804    ( 0.0000,  0.0000,  0.0000)
  17 Ir     8.438997    4.872257   12.296804    ( 0.0000,  0.0000,  0.0000)
  18 Pt     1.333570    0.734332   14.659760    ( 0.0000,  0.0000,  0.0000)
  19 Ag     4.180026    0.784158   14.648346    ( 0.0000,  0.0000,  0.0000)
  20 Pd     7.000858    0.852850   14.632373    ( 0.0000,  0.0000,  0.0000)
  21 Ag     2.799032    3.195758   14.643060    ( 0.0000,  0.0000,  0.0000)
  22 Ru     5.660447    3.369255   14.465775    ( 0.0000,  0.0000,  0.0000)
  23 Pd     8.445023    3.204207   14.576924    ( 0.0000,  0.0000,  0.0000)
  24 Ir     4.206909    5.610527   14.575928    ( 0.0000,  0.0000,  0.0000)
  25 Ir     7.029187    5.565896   14.571255    ( 0.0000,  0.0000,  0.0000)
  26 Pt     9.852652    5.660872   14.597397    ( 0.0000,  0.0000,  0.0000)
  27 Ir    -0.079618    1.445152   16.993770    ( 0.0000,  0.0000,  0.0000)
  28 Pd     2.742649    1.588379   16.981969    ( 0.0000,  0.0000,  0.0000)
  29 Ag     5.527788    1.590832   16.917226    ( 0.0000,  0.0000,  0.0000)
  30 Pd     1.400914    4.026622   16.967963    ( 0.0000,  0.0000,  0.0000)
  31 Pd     4.184827    4.103942   16.892412    ( 0.0000,  0.0000,  0.0000)
  32 Pd     7.007381    3.966876   16.744459    ( 0.0000,  0.0000,  0.0000)
  33 Ru     2.852421    6.538881   16.764972    ( 0.0000,  0.0000,  0.0000)
  34 Pd     5.622545    6.479814   16.842181    ( 0.0000,  0.0000,  0.0000)
  35 Ir     8.554366    6.371475   16.926200    ( 0.0000,  0.0000,  0.0000)
  36 Ir     0.125188   -0.003216   19.229351    ( 0.0000,  0.0000,  0.0000)
  37 Pt     2.842220   -0.101562   19.128142    ( 0.0000,  0.0000,  0.0000)
  38 Ag     5.656206    0.012994   19.404260    ( 0.0000,  0.0000,  0.0000)
  39 Pd     1.359804    2.399226   19.265503    ( 0.0000,  0.0000,  0.0000)
  40 Pd     4.308465    2.513425   19.255600    ( 0.0000,  0.0000,  0.0000)
  41 Ir     7.155968    2.545746   19.011500    ( 0.0000,  0.0000,  0.0000)
  42 Ag     2.801585    4.880194   19.375761    ( 0.0000,  0.0000,  0.0000)
  43 Ir     5.720699    4.879142   19.027491    ( 0.0000,  0.0000,  0.0000)
  44 Ir     8.299467    4.852235   19.005251    ( 0.0000,  0.0000,  0.0000)
  45 O      0.008359   -0.017099   21.177531    ( 0.0000,  0.0000,  0.0000)
  46 H      0.671814    0.564301   21.678806    ( 0.0000,  0.0000,  0.0000)

Unit cell:
           periodic     x           y           z      points  spacing
  1. axis:    yes    8.465341    0.000000    0.000000    35     0.2095
  2. axis:    yes    4.232670    7.331200    0.000000    35     0.2095
  3. axis:    no     0.000000    0.000000   29.187217   135     0.2162

  Lengths:   8.465341   8.465341  29.187217
  Angles:   90.000000  90.000000  60.000000

Effective grid spacing dv^(1/3) = 0.2221

                     log10-error:    total        iterations:
           time      wfs    density  energy       fermi  poisson
iter:   1  16:53:39  -2.21   +inf  -240.394370    3             
iter:   2  16:54:27  -1.99  -2.13  -276.828172    4             
iter:   3  16:55:16  -2.37  -1.43  -239.695704    4             
iter:   4  16:56:03  -3.32  -2.35  -239.428804    3             
iter:   5  16:56:50  -3.93  -2.57  -239.386207    3             
iter:   6  16:57:37  -3.83  -2.62  -239.348641    2             
iter:   7  16:58:26  -4.49  -2.65  -239.286347    2             
iter:   8  16:59:13  -4.62  -3.07  -239.275202    3             
iter:   9  17:00:00  -4.44  -3.15  -239.298152    2             
iter:  10  17:00:47  -4.51  -2.84  -239.267816    2             
iter:  11  17:01:35  -4.90  -3.11  -239.267297    3             
iter:  12  17:02:23  -5.21  -3.26  -239.261930    2             
iter:  13  17:03:10  -5.80  -3.45  -239.261428    2             
iter:  14  17:03:58  -6.23  -3.50  -239.260724    2             
iter:  15  17:04:47  -5.92  -3.69  -239.260887    2             
iter:  16  17:05:35  -5.50  -3.70  -239.261165    2             
iter:  17  17:06:23  -5.84  -3.51  -239.262516    2             
iter:  18  17:07:10  -6.06  -3.62  -239.260499    2             
iter:  19  17:07:59  -6.81  -3.89  -239.260952    2             
iter:  20  17:08:48  -6.83  -3.75  -239.260662    2             
iter:  21  17:09:35  -6.82  -4.09  -239.260897    2             
iter:  22  17:10:23  -7.35  -4.13  -239.260716    2             
iter:  23  17:11:10  -6.79  -4.15  -239.260987    2             
iter:  24  17:11:58  -7.21  -4.22  -239.260568    2             
iter:  25  17:12:45  -7.09  -4.27  -239.260793    2             
iter:  26  17:13:32  -7.55  -4.52  -239.260744    2             

Converged after 26 iterations.

Dipole moment: (18.427042, 14.748723, 0.083738) |e|*Ang

Energy contributions relative to reference atoms: (reference = -12877860.274276)

Kinetic:       -227.741239
Potential:     +102.183071
External:        +0.000000
XC:            -105.684557
Entropy (-ST):   -2.260492
Local:           -6.887772
--------------------------
Free energy:   -240.390990
Extrapolated:  -239.260744

Fermi level: 1.10222

Showing only first 2 kpts
 Kpt  Band  Eigenvalues  Occupancy
  0   360      1.08460    0.13598
  0   361      1.12228    0.11250
  0   362      1.15042    0.09545
  0   363      1.17190    0.08313

  1   360      1.02063    0.17334
  1   361      1.03790    0.16387
  1   362      1.08022    0.13870
  1   363      1.10558    0.12290



Forces in eV/Ang:
  0 Pd   -0.12420    0.32493   -0.35102
  1 Ir    0.96303    0.68656    0.59943
  2 Ru   -1.08501    0.29039    0.68368
  3 Ru    0.40746    0.29560    1.64286
  4 Ir   -0.55801   -0.79755    1.17049
  5 Pt    0.15423    0.16133    0.05151
  6 Pd   -0.49748   -0.41451   -0.24183
  7 Pd    0.38477   -0.26178   -0.57613
  8 Ru    0.33355   -0.14978    0.55914
  9 Ag   -0.24965   -0.09158    0.07194
 10 Ag   -0.03009   -0.10886    0.07791
 11 Ag    0.09405   -0.16400   -0.11563
 12 Pt    0.07743    0.75210   -0.51861
 13 Pt    0.12038    0.55002   -0.72039
 14 Pt   -0.09285    0.17459   -0.15917
 15 Ru   -0.37256   -0.71454   -0.96153
 16 Pt   -0.42581    0.18574   -0.08978
 17 Ir    0.91870   -0.12817   -0.99375
 18 Pt   -0.02236   -0.04759    0.07913
 19 Ag   -0.01086   -0.02614   -0.00911
 20 Pd    0.03115   -0.02065    0.05454
 21 Ag   -0.01247   -0.01746   -0.01425
 22 Ru    0.00132   -0.02900    0.00571
 23 Pd   -0.01592   -0.04465    0.03189
 24 Ir    0.02758    0.00811    0.03194
 25 Ir   -0.04452    0.01271    0.03723
 26 Pt    0.04138    0.02080    0.04177
 27 Ir   -0.05388   -0.14273    0.31243
 28 Pd   -0.01635    0.00826   -0.03297
 29 Ag   -0.00462   -0.00119   -0.00232
 30 Pd   -0.01143   -0.03814   -0.05964
 31 Pd   -0.01628   -0.02231   -0.00509
 32 Pd    0.00793    0.02337   -0.03213
 33 Ru   -0.09500   -0.12697    0.00416
 34 Pd   -0.07675    0.00592    0.15734
 35 Ir    0.00447   -0.02890   -0.03852
 36 Ir    0.18709   -0.18548   -0.97246
 37 Pt    0.10573    0.00106    0.02408
 38 Ag    0.05320    0.00715   -0.03911
 39 Pd    0.05289    0.13871   -0.00719
 40 Pd   -0.02712   -0.04399   -0.01612
 41 Ir   -0.04547    0.09641    0.08557
 42 Ag    0.02986    0.02093   -0.04825
 43 Ir    0.09408   -0.06871    0.04617
 44 Ir    0.11817    0.02038   -0.01286
 45 O     0.14586    0.48606    0.94511
 46 H    -0.50015   -0.56546   -0.80630

System changes: positions 

Initializing position-dependent things.

Density initialized from wave functions
                                             
                                             
                                             
                                             
                                             
                                             
                                             
                                             
         H        Ag     Ir    Ir            
       O    Pd      Pd   PdIr                
                   Ru            Ir          
        Ir    Pt    PAg    Pd                
                                             
        Ir     Pd    IAg    Ir     Pt        
                Ag     Ru     Pd             
                                             
           Pt     Ag    PPd    Ir            
                                             
             Pt    Pt    PPt    Ru           
       Ag     Ag    IAg    Pt                
                                             
         Pd    Ir     Ru                     
                                             
                                             
                                             
                                             
                                             

Positions:
   0 Pd     0.000000    1.624086   10.000000    ( 0.0000,  0.0000,  0.0000)
   1 Ir     2.812999    1.624086   10.000000    ( 0.0000,  0.0000,  0.0000)
   2 Ru     5.625998    1.624086   10.000000    ( 0.0000,  0.0000,  0.0000)
   3 Ru     1.406500    4.060215   10.000000    ( 0.0000,  0.0000,  0.0000)
   4 Ir     4.219499    4.060215   10.000000    ( 0.0000,  0.0000,  0.0000)
   5 Pt     7.032498    4.060215   10.000000    ( 0.0000,  0.0000,  0.0000)
   6 Pd     2.812999    6.496343   10.000000    ( 0.0000,  0.0000,  0.0000)
   7 Pd     5.625998    6.496343   10.000000    ( 0.0000,  0.0000,  0.0000)
   8 Ru     8.438997    6.496343   10.000000    ( 0.0000,  0.0000,  0.0000)
   9 Ag     0.000000    0.000000   12.296804    ( 0.0000,  0.0000,  0.0000)
  10 Ag     2.812999    0.000000   12.296804    ( 0.0000,  0.0000,  0.0000)
  11 Ag     5.625998    0.000000   12.296804    ( 0.0000,  0.0000,  0.0000)
  12 Pt     1.406500    2.436129   12.296804    ( 0.0000,  0.0000,  0.0000)
  13 Pt     4.219499    2.436129   12.296804    ( 0.0000,  0.0000,  0.0000)
  14 Pt     7.032498    2.436129   12.296804    ( 0.0000,  0.0000,  0.0000)
  15 Ru     2.812999    4.872257   12.296804    ( 0.0000,  0.0000,  0.0000)
  16 Pt     5.625998    4.872257   12.296804    ( 0.0000,  0.0000,  0.0000)
  17 Ir     8.438997    4.872257   12.296804    ( 0.0000,  0.0000,  0.0000)
  18 Pt     1.331294    0.722765   14.675171    ( 0.0000,  0.0000,  0.0000)
  19 Ag     4.177212    0.774799   14.648456    ( 0.0000,  0.0000,  0.0000)
  20 Pd     7.006108    0.844097   14.648571    ( 0.0000,  0.0000,  0.0000)
  21 Ag     2.796214    3.191445   14.639544    ( 0.0000,  0.0000,  0.0000)
  22 Ru     5.659804    3.361511   14.467595    ( 0.0000,  0.0000,  0.0000)
  23 Pd     8.437590    3.193527   14.586949    ( 0.0000,  0.0000,  0.0000)
  24 Ir     4.213719    5.610935   14.585754    ( 0.0000,  0.0000,  0.0000)
  25 Ir     7.019418    5.562923   14.583009    ( 0.0000,  0.0000,  0.0000)
  26 Pt     9.857944    5.662694   14.606385    ( 0.0000,  0.0000,  0.0000)
  27 Ir    -0.088879    1.384832   17.080446    ( 0.0000,  0.0000,  0.0000)
  28 Pd     2.737888    1.587580   16.971360    ( 0.0000,  0.0000,  0.0000)
  29 Ag     5.524285    1.588646   16.916041    ( 0.0000,  0.0000,  0.0000)
  30 Pd     1.398697    4.018423   16.954774    ( 0.0000,  0.0000,  0.0000)
  31 Pd     4.180945    4.098341   16.891092    ( 0.0000,  0.0000,  0.0000)
  32 Pd     7.009203    3.970308   16.742599    ( 0.0000,  0.0000,  0.0000)
  33 Ru     2.839546    6.515926   16.770853    ( 0.0000,  0.0000,  0.0000)
  34 Pd     5.587960    6.497249   16.895047    ( 0.0000,  0.0000,  0.0000)
  35 Ir     8.556424    6.362130   16.921631    ( 0.0000,  0.0000,  0.0000)
  36 Ir     0.191665   -0.018238   19.164681    ( 0.0000,  0.0000,  0.0000)
  37 Pt     2.880194   -0.103636   19.124585    ( 0.0000,  0.0000,  0.0000)
  38 Ag     5.662113    0.014308   19.396979    ( 0.0000,  0.0000,  0.0000)
  39 Pd     1.375208    2.437217   19.254575    ( 0.0000,  0.0000,  0.0000)
  40 Pd     4.300150    2.502918   19.253556    ( 0.0000,  0.0000,  0.0000)
  41 Ir     7.139582    2.578660   19.024487    ( 0.0000,  0.0000,  0.0000)
  42 Ag     2.801878    4.876934   19.366372    ( 0.0000,  0.0000,  0.0000)
  43 Ir     5.748226    4.849435   19.029741    ( 0.0000,  0.0000,  0.0000)
  44 Ir     8.328880    4.856701   19.006322    ( 0.0000,  0.0000,  0.0000)
  45 O     -0.094389   -0.012655   21.174933    ( 0.0000,  0.0000,  0.0000)
  46 H      0.653596    0.517748   21.538501    ( 0.0000,  0.0000,  0.0000)

Unit cell:
           periodic     x           y           z      points  spacing
  1. axis:    yes    8.465341    0.000000    0.000000    35     0.2095
  2. axis:    yes    4.232670    7.331200    0.000000    35     0.2095
  3. axis:    no     0.000000    0.000000   29.187217   135     0.2162

  Lengths:   8.465341   8.465341  29.187217
  Angles:   90.000000  90.000000  60.000000

Effective grid spacing dv^(1/3) = 0.2221

                     log10-error:    total        iterations:
           time      wfs    density  energy       fermi  poisson
iter:   1  17:15:00  -1.73   +inf  -253.103898    3             
iter:   2  17:15:59  -0.35  -1.58  -571.640260    38            
iter:   3  17:17:00  -1.25  -0.95  -263.585219    36            
iter:   4  17:18:00  -1.91  -1.58  -241.933951    37            
iter:   5  17:19:02  -2.69  -2.02  -239.673585    3             
iter:   6  17:20:03  -3.27  -2.48  -239.434917    3             
iter:   7  17:21:05  -3.92  -2.64  -239.414292    3             
iter:   8  17:22:05  -4.02  -2.65  -239.521231    3             
iter:   9  17:23:06  -4.09  -2.49  -239.354639    2             
iter:  10  17:24:06  -4.13  -2.82  -239.335620    2             
iter:  11  17:25:06  -4.28  -2.96  -239.341612    3             
iter:  12  17:26:06  -4.45  -3.00  -239.327245    2             
iter:  13  17:27:07  -5.06  -3.13  -239.326109    2             
iter:  14  17:28:07  -5.02  -3.24  -239.342400    2             
iter:  15  17:29:07  -5.19  -2.92  -239.326854    2             
iter:  16  17:30:07  -5.53  -3.22  -239.324171    2             
iter:  17  17:31:06  -5.68  -3.39  -239.326492    2             
iter:  18  17:32:05  -5.92  -3.32  -239.323625    2             
iter:  19  17:33:03  -5.81  -3.50  -239.325402    2             
iter:  20  17:34:03  -5.59  -3.41  -239.325807    2             
iter:  21  17:35:03  -5.73  -3.33  -239.325838    2             
iter:  22  17:36:03  -5.77  -3.44  -239.323272    2             
iter:  23  17:37:03  -6.23  -3.74  -239.323619    2             
iter:  24  17:38:02  -6.08  -3.76  -239.322734    2             
iter:  25  17:39:01  -6.58  -3.73  -239.322849    2             
iter:  26  17:40:00  -6.40  -3.99  -239.322545    2             
iter:  27  17:41:01  -6.52  -3.96  -239.323637    2             
iter:  28  17:42:01  -6.72  -3.65  -239.322631    2             
iter:  29  17:43:02  -6.93  -4.03  -239.322869    2             
iter:  30  17:44:02  -7.11  -4.02  -239.322805    2             
iter:  31  17:45:02  -6.73  -3.90  -239.323252    2             
iter:  32  17:46:02  -7.17  -4.06  -239.322911    2             
iter:  33  17:47:02  -7.35  -4.35  -239.323123    2             
iter:  34  17:48:02  -7.35  -4.13  -239.322886    2             
iter:  35  17:49:03  -7.69  -4.32  -239.322989    2             

Converged after 35 iterations.

Dipole moment: (23.049084, 14.309866, -0.010899) |e|*Ang

Energy contributions relative to reference atoms: (reference = -12877860.274276)

Kinetic:       -221.324268
Potential:      +96.747843
External:        +0.000000
XC:            -106.739097
Entropy (-ST):   -2.222671
Local:           -6.896132
--------------------------
Free energy:   -240.434324
Extrapolated:  -239.322989

Fermi level: 1.06064

Showing only first 2 kpts
 Kpt  Band  Eigenvalues  Occupancy
  0   360      1.03835    0.13888
  0   361      1.07784    0.11428
  0   362      1.10924    0.09521
  0   363      1.13943    0.07816

  1   360      0.98107    0.17227
  1   361      0.99083    0.16694
  1   362      1.03707    0.13966
  1   363      1.06534    0.12206



Forces in eV/Ang:
  0 Pd   -0.12466    0.32152   -0.35023
  1 Ir    0.96621    0.68217    0.59408
  2 Ru   -1.08232    0.29050    0.67963
  3 Ru    0.40142    0.31017    1.67621
  4 Ir   -0.55149   -0.79998    1.16912
  5 Pt    0.14686    0.16183    0.05030
  6 Pd   -0.49592   -0.40899   -0.24203
  7 Pd    0.38446   -0.25912   -0.57289
  8 Ru    0.32654   -0.15040    0.56901
  9 Ag   -0.24487   -0.08425    0.11887
 10 Ag   -0.04697   -0.11330    0.10982
 11 Ag    0.10670   -0.16681   -0.08352
 12 Pt    0.05408    0.73096   -0.46942
 13 Pt    0.12416    0.54092   -0.71385
 14 Pt   -0.07683    0.14666   -0.10605
 15 Ru   -0.37611   -0.71096   -0.95724
 16 Pt   -0.41823    0.17941   -0.04036
 17 Ir    0.92892   -0.13406   -0.95197
 18 Pt   -0.05192   -0.04280    0.05721
 19 Ag    0.00665    0.00565   -0.02109
 20 Pd    0.00827    0.00446   -0.01696
 21 Ag   -0.00566   -0.01441   -0.03237
 22 Ru    0.00793   -0.01901   -0.01387
 23 Pd    0.01265   -0.00169   -0.04229
 24 Ir    0.01335   -0.01991   -0.02967
 25 Ir   -0.02137    0.00138    0.02610
 26 Pt    0.01312   -0.04309   -0.05750
 27 Ir   -0.16488    0.64135   -0.39755
 28 Pd   -0.00221   -0.00477    0.03415
 29 Ag    0.01567    0.01922   -0.00570
 30 Pd   -0.03085   -0.05219   -0.08223
 31 Pd    0.02595   -0.07681   -0.02319
 32 Pd   -0.02192   -0.00649    0.00264
 33 Ru   -0.18740   -0.17870   -0.05963
 34 Pd    0.27642   -0.31759   -0.26897
 35 Ir   -0.00975    0.02455   -0.05087
 36 Ir   -0.52655   -0.61598    0.74951
 37 Pt    0.06075    0.02984    0.06605
 38 Ag    0.19002    0.01844    0.00054
 39 Pd   -0.05943   -0.05570    0.08405
 40 Pd    0.02579   -0.02167    0.00497
 41 Ir    0.02928   -0.05829    0.07526
 42 Ag    0.12198    0.10870   -0.00943
 43 Ir    0.02557    0.10330    0.14323
 44 Ir    0.12332    0.00399    0.00265
 45 O     0.10697    0.05506   -0.74860
 46 H     0.08933    0.02397    0.16853

System changes: positions 

Initializing position-dependent things.

Density initialized from wave functions
                                             
                                             
                                             
                                             
                                             
                                             
                                             
                                             
         H        Ag     Ir    Ir            
       O    Pd      Pd                       
                   Ru    PdIr    Ir          
        Ir    Pt    PAg    Pd                
                                             
        Ir     Pd    IAg    Ir     Pt        
                Ag            Pd             
                       Ru                    
           Pt     Ag    PPd    Ir            
                                             
             Pt    Pt    PPt    Ru           
[...]
  27 Ir    -0.104695    1.386834   17.063377    ( 0.0000,  0.0000,  0.0000)
  28 Pd     2.732216    1.561491   16.974122    ( 0.0000,  0.0000,  0.0000)
  29 Ag     5.523012    1.570646   16.911273    ( 0.0000,  0.0000,  0.0000)
  30 Pd     1.386951    3.970242   16.940689    ( 0.0000,  0.0000,  0.0000)
  31 Pd     4.189223    4.067519   16.894108    ( 0.0000,  0.0000,  0.0000)
  32 Pd     7.010686    3.951571   16.737964    ( 0.0000,  0.0000,  0.0000)
  33 Ru     2.838951    6.479267   16.754453    ( 0.0000,  0.0000,  0.0000)
  34 Pd     5.630202    6.446093   16.835826    ( 0.0000,  0.0000,  0.0000)
  35 Ir     8.568942    6.340089   16.911725    ( 0.0000,  0.0000,  0.0000)
  36 Ir     0.160972   -0.139833   19.152207    ( 0.0000,  0.0000,  0.0000)
  37 Pt     2.917273   -0.098767   19.121192    ( 0.0000,  0.0000,  0.0000)
  38 Ag     5.735587    0.001919   19.370728    ( 0.0000,  0.0000,  0.0000)
  39 Pd     1.335387    2.352958   19.253183    ( 0.0000,  0.0000,  0.0000)
  40 Pd     4.331105    2.476049   19.263756    ( 0.0000,  0.0000,  0.0000)
  41 Ir     7.121646    2.588679   19.026845    ( 0.0000,  0.0000,  0.0000)
  42 Ag     2.797959    4.811423   19.349614    ( 0.0000,  0.0000,  0.0000)
  43 Ir     5.764675    4.889260   19.035499    ( 0.0000,  0.0000,  0.0000)
  44 Ir     8.355791    4.846015   19.001992    ( 0.0000,  0.0000,  0.0000)
  45 O     -0.088595    0.025205   21.120497    ( 0.0000,  0.0000,  0.0000)
  46 H      0.727913    0.449421   21.486107    ( 0.0000,  0.0000,  0.0000)

Unit cell:
           periodic     x           y           z      points  spacing
  1. axis:    yes    8.465341    0.000000    0.000000    35     0.2095
  2. axis:    yes    4.232670    7.331200    0.000000    35     0.2095
  3. axis:    no     0.000000    0.000000   29.187217   135     0.2162

  Lengths:   8.465341   8.465341  29.187217
  Angles:   90.000000  90.000000  60.000000

Effective grid spacing dv^(1/3) = 0.2221

                     log10-error:    total        iterations:
           time      wfs    density  energy       fermi  poisson
iter:   1  19:54:41  -3.06   +inf  -239.500203    3             
iter:   2  19:55:40  -3.51  -2.78  -239.693976    3             
iter:   3  19:56:40  -3.80  -2.49  -239.705556    2             
iter:   4  19:57:40  -4.36  -2.42  -239.439452    2             
iter:   5  19:58:40  -5.41  -3.32  -239.437389    2             
iter:   6  19:59:40  -5.33  -3.49  -239.436646    2             
iter:   7  20:00:40  -5.34  -3.52  -239.436121    2             
iter:   8  20:01:40  -5.74  -3.71  -239.434918    2             
iter:   9  20:02:39  -6.04  -3.79  -239.436363    2             
iter:  10  20:03:39  -6.03  -3.69  -239.437057    2             
iter:  11  20:04:38  -6.30  -3.52  -239.435423    2             
iter:  12  20:05:37  -6.70  -3.91  -239.435340    2             
iter:  13  20:06:37  -6.87  -3.98  -239.435295    2             
iter:  14  20:07:36  -6.95  -4.13  -239.435067    2             
iter:  15  20:08:35  -6.97  -4.16  -239.435636    2             
iter:  16  20:09:35  -6.76  -4.02  -239.435410    2             
iter:  17  20:10:34  -7.30  -3.96  -239.435128    2             
iter:  18  20:11:34  -7.32  -4.31  -239.435128    2             
iter:  19  20:12:33  -7.46  -4.44  -239.435160    2             

Converged after 19 iterations.

Dipole moment: (22.288404, 14.980766, 0.011520) |e|*Ang

Energy contributions relative to reference atoms: (reference = -12877860.274276)

Kinetic:       -221.572646
Potential:      +96.974924
External:        +0.000000
XC:            -106.847093
Entropy (-ST):   -2.215283
Local:           -6.882703
--------------------------
Free energy:   -240.542801
Extrapolated:  -239.435160

Fermi level: 1.07275

Showing only first 2 kpts
 Kpt  Band  Eigenvalues  Occupancy
  0   360      1.04441    0.14260
  0   361      1.09074    0.11379
  0   362      1.12123    0.09528
  0   363      1.15145    0.07821

  1   360      0.99149    0.17317
  1   361      1.00909    0.16350
  1   362      1.03957    0.14555
  1   363      1.07143    0.12583



Forces in eV/Ang:
  0 Pd   -0.12441    0.32499   -0.34956
  1 Ir    0.96636    0.68801    0.59799
  2 Ru   -1.08275    0.29254    0.67770
  3 Ru    0.40096    0.29724    1.63792
  4 Ir   -0.54864   -0.80078    1.15834
  5 Pt    0.15405    0.16094    0.04244
  6 Pd   -0.49557   -0.41292   -0.23727
  7 Pd    0.38473   -0.26037   -0.57049
  8 Ru    0.32833   -0.15489    0.56954
  9 Ag   -0.25168   -0.10219    0.09445
 10 Ag   -0.05595   -0.12045    0.09118
 11 Ag    0.10166   -0.16573   -0.10926
 12 Pt    0.06079    0.71284   -0.53021
 13 Pt    0.11396    0.51588   -0.73179
 14 Pt   -0.08544    0.11828   -0.15616
 15 Ru   -0.36841   -0.74480   -0.96479
 16 Pt   -0.42190    0.13780   -0.09864
 17 Ir    0.91494   -0.16914   -1.00637
 18 Pt    0.01467   -0.00813    0.02698
 19 Ag    0.00006   -0.01059   -0.00871
 20 Pd    0.01776   -0.00779    0.01503
 21 Ag    0.01101   -0.00275   -0.01089
 22 Ru    0.00271   -0.01939   -0.01313
 23 Pd    0.00855   -0.00846   -0.00701
 24 Ir    0.00997    0.00888    0.01389
 25 Ir    0.00641    0.00607   -0.01110
 26 Pt    0.00345   -0.00036    0.00556
 27 Ir   -0.00380    0.00653    0.03438
 28 Pd    0.02117    0.00067   -0.00705
 29 Ag    0.01300   -0.00855   -0.01028
 30 Pd   -0.00196    0.00098   -0.00445
 31 Pd   -0.01174   -0.00087   -0.03256
 32 Pd    0.00329   -0.01505    0.02127
 33 Ru   -0.01941   -0.02692    0.01651
 34 Pd    0.00430   -0.00432    0.02043
 35 Ir    0.00693   -0.00413   -0.02871
 36 Ir   -0.00441   -0.03556    0.03270
 37 Pt   -0.01735   -0.02885    0.00346
 38 Ag   -0.01905   -0.03444    0.00969
 39 Pd    0.02433    0.03732    0.00246
 40 Pd   -0.02228   -0.04717   -0.01739
 41 Ir    0.00758   -0.00391   -0.00765
 42 Ag    0.01074    0.03533    0.02787
 43 Ir    0.00312   -0.05719    0.02049
 44 Ir   -0.03662   -0.06459    0.00015
 45 O     0.06998    0.02700   -0.07252
 46 H     0.01204   -0.05444    0.02695

System changes: positions 

Initializing position-dependent things.

Density initialized from wave functions
                                             
                                             
                                             
                                             
                                             
                                             
                                             
                                             
       O  H      Ag      Ir    Ir            
            Pd      Pd     Ir    Ir          
                   Ru    Pd                  
        Ir    PPt   PAg    Pd                
                                             
        Ir     Pd    IAg    Ir     Pt        
                Ag      Ru    Pd             
                                             
           Pt     Ag    PPd    Ir            
                                             
             Pt    Pt     Pt    Ru           
        Ag    Ag    IAg    Pt                
                                             
         Pd    Ir     Ru                     
                                             
                                             
                                             
                                             
                                             

Positions:
   0 Pd     0.000000    1.624086   10.000000    ( 0.0000,  0.0000,  0.0000)
   1 Ir     2.812999    1.624086   10.000000    ( 0.0000,  0.0000,  0.0000)
   2 Ru     5.625998    1.624086   10.000000    ( 0.0000,  0.0000,  0.0000)
   3 Ru     1.406500    4.060215   10.000000    ( 0.0000,  0.0000,  0.0000)
   4 Ir     4.219499    4.060215   10.000000    ( 0.0000,  0.0000,  0.0000)
   5 Pt     7.032498    4.060215   10.000000    ( 0.0000,  0.0000,  0.0000)
   6 Pd     2.812999    6.496343   10.000000    ( 0.0000,  0.0000,  0.0000)
   7 Pd     5.625998    6.496343   10.000000    ( 0.0000,  0.0000,  0.0000)
   8 Ru     8.438997    6.496343   10.000000    ( 0.0000,  0.0000,  0.0000)
   9 Ag     0.000000    0.000000   12.296804    ( 0.0000,  0.0000,  0.0000)
  10 Ag     2.812999    0.000000   12.296804    ( 0.0000,  0.0000,  0.0000)
  11 Ag     5.625998    0.000000   12.296804    ( 0.0000,  0.0000,  0.0000)
  12 Pt     1.406500    2.436129   12.296804    ( 0.0000,  0.0000,  0.0000)
  13 Pt     4.219499    2.436129   12.296804    ( 0.0000,  0.0000,  0.0000)
  14 Pt     7.032498    2.436129   12.296804    ( 0.0000,  0.0000,  0.0000)
  15 Ru     2.812999    4.872257   12.296804    ( 0.0000,  0.0000,  0.0000)
  16 Pt     5.625998    4.872257   12.296804    ( 0.0000,  0.0000,  0.0000)
  17 Ir     8.438997    4.872257   12.296804    ( 0.0000,  0.0000,  0.0000)
  18 Pt     1.322320    0.703201   14.669838    ( 0.0000,  0.0000,  0.0000)
  19 Ag     4.172987    0.754342   14.644439    ( 0.0000,  0.0000,  0.0000)
  20 Pd     7.000070    0.821352   14.643886    ( 0.0000,  0.0000,  0.0000)
  21 Ag     2.795680    3.167690   14.637039    ( 0.0000,  0.0000,  0.0000)
  22 Ru     5.656480    3.344139   14.460353    ( 0.0000,  0.0000,  0.0000)
  23 Pd     8.438632    3.165602   14.577197    ( 0.0000,  0.0000,  0.0000)
  24 Ir     4.209033    5.584559   14.574614    ( 0.0000,  0.0000,  0.0000)
  25 Ir     7.028200    5.539770   14.569021    ( 0.0000,  0.0000,  0.0000)
  26 Pt     9.855130    5.634085   14.589621    ( 0.0000,  0.0000,  0.0000)
  27 Ir    -0.103813    1.381258   17.068163    ( 0.0000,  0.0000,  0.0000)
  28 Pd     2.736644    1.559340   16.971143    ( 0.0000,  0.0000,  0.0000)
  29 Ag     5.525105    1.566449   16.907641    ( 0.0000,  0.0000,  0.0000)
  30 Pd     1.387267    3.963896   16.942367    ( 0.0000,  0.0000,  0.0000)
  31 Pd     4.189581    4.065985   16.890458    ( 0.0000,  0.0000,  0.0000)
  32 Pd     7.010748    3.947452   16.732868    ( 0.0000,  0.0000,  0.0000)
  33 Ru     2.839878    6.473109   16.754471    ( 0.0000,  0.0000,  0.0000)
  34 Pd     5.634476    6.445562   16.832482    ( 0.0000,  0.0000,  0.0000)
  35 Ir     8.572126    6.335686   16.909503    ( 0.0000,  0.0000,  0.0000)
  36 Ir     0.164038   -0.149057   19.153614    ( 0.0000,  0.0000,  0.0000)
  37 Pt     2.917811   -0.104231   19.118915    ( 0.0000,  0.0000,  0.0000)
  38 Ag     5.734873   -0.011125   19.368674    ( 0.0000,  0.0000,  0.0000)
  39 Pd     1.336519    2.348684   19.250370    ( 0.0000,  0.0000,  0.0000)
  40 Pd     4.333380    2.466712   19.262350    ( 0.0000,  0.0000,  0.0000)
  41 Ir     7.120683    2.583264   19.022792    ( 0.0000,  0.0000,  0.0000)
  42 Ag     2.792584    4.805857   19.353121    ( 0.0000,  0.0000,  0.0000)
  43 Ir     5.759107    4.880056   19.031099    ( 0.0000,  0.0000,  0.0000)
  44 Ir     8.348803    4.836683   19.000721    ( 0.0000,  0.0000,  0.0000)
  45 O     -0.080719    0.030776   21.117277    ( 0.0000,  0.0000,  0.0000)
  46 H      0.740551    0.433896   21.493289    ( 0.0000,  0.0000,  0.0000)

Unit cell:
           periodic     x           y           z      points  spacing
  1. axis:    yes    8.465341    0.000000    0.000000    35     0.2095
  2. axis:    yes    4.232670    7.331200    0.000000    35     0.2095
  3. axis:    no     0.000000    0.000000   29.187217   135     0.2162

  Lengths:   8.465341   8.465341  29.187217
  Angles:   90.000000  90.000000  60.000000

Effective grid spacing dv^(1/3) = 0.2221

                     log10-error:    total        iterations:
           time      wfs    density  energy       fermi  poisson
iter:   1  20:13:57  -3.27   +inf  -239.724014    3             
iter:   2  20:14:57  -2.49  -2.43  -253.740696    3             
iter:   3  20:15:56  -2.78  -1.61  -239.454039    3             
iter:   4  20:16:55  -4.07  -3.16  -239.443660    3             
iter:   5  20:17:54  -5.02  -3.35  -239.444207    2             
iter:   6  20:18:53  -5.50  -3.39  -239.440575    2             
iter:   7  20:19:52  -5.72  -3.63  -239.440680    2             
iter:   8  20:20:51  -5.83  -3.63  -239.443715    2             
iter:   9  20:21:49  -5.63  -3.29  -239.441021    2             
iter:  10  20:22:48  -6.14  -3.59  -239.440005    2             
iter:  11  20:23:43  -6.35  -3.71  -239.440236    2             
iter:  12  20:24:40  -6.53  -3.87  -239.439507    2             
iter:  13  20:25:35  -6.78  -3.92  -239.439571    2             
iter:  14  20:26:31  -6.32  -4.05  -239.439742    2             
iter:  15  20:27:27  -6.66  -3.65  -239.439493    2             
iter:  16  20:28:24  -7.36  -4.07  -239.439245    2             
iter:  17  20:29:19  -7.54  -4.33  -239.439386    2             

Converged after 17 iterations.

Dipole moment: (22.303770, 15.306440, 0.017741) |e|*Ang

Energy contributions relative to reference atoms: (reference = -12877860.274276)

Kinetic:       -220.797452
Potential:      +96.326704
External:        +0.000000
XC:            -106.977793
Entropy (-ST):   -2.213236
Local:           -6.884227
--------------------------
Free energy:   -240.546004
Extrapolated:  -239.439386

Fermi level: 1.07567

Showing only first 2 kpts
 Kpt  Band  Eigenvalues  Occupancy
  0   360      1.04662    0.14303
  0   361      1.09371    0.11376
  0   362      1.12446    0.09510
  0   363      1.15394    0.07844

  1   360      0.99405    0.17336
  1   361      1.01199    0.16351
  1   362      1.04214    0.14576
  1   363      1.07454    0.12571



Forces in eV/Ang:
  0 Pd   -0.12421    0.32585   -0.34994
  1 Ir    0.96469    0.68937    0.59834
  2 Ru   -1.08270    0.29514    0.67977
  3 Ru    0.40097    0.29842    1.63942
  4 Ir   -0.54861   -0.79992    1.16089
  5 Pt    0.15538    0.16116    0.04555
  6 Pd   -0.49578   -0.41409   -0.23513
  7 Pd    0.38491   -0.26086   -0.56961
  8 Ru    0.32900   -0.15847    0.57456
  9 Ag   -0.25354   -0.10324    0.09113
 10 Ag   -0.05729   -0.11995    0.07699
 11 Ag    0.10574   -0.17380   -0.10805
 12 Pt    0.06383    0.71060   -0.53801
 13 Pt    0.11086    0.50923   -0.74476
 14 Pt   -0.08170    0.10791   -0.16280
 15 Ru   -0.36821   -0.74203   -0.96589
 16 Pt   -0.42891    0.13520   -0.11221
 17 Ir    0.92874   -0.17323   -1.00988
 18 Pt   -0.00331    0.01617    0.03373
 19 Ag    0.00979    0.00136   -0.00591
 20 Pd    0.03177    0.00534    0.02471
 21 Ag    0.00634   -0.00653   -0.01275
 22 Ru    0.02163   -0.00030    0.00801
 23 Pd   -0.00267    0.00106    0.00550
 24 Ir    0.00647   -0.00314    0.00287
 25 Ir   -0.00713   -0.00740    0.00996
 26 Pt    0.00870   -0.00481   -0.03863
 27 Ir    0.01191   -0.01878   -0.03332
 28 Pd    0.00115   -0.00399    0.01344
 29 Ag    0.00697   -0.00533   -0.00351
 30 Pd   -0.00943    0.01270   -0.01954
 31 Pd   -0.00883   -0.01621   -0.02308
 32 Pd    0.00325    0.00396    0.02404
 33 Ru   -0.00361    0.01095    0.02333
 34 Pd   -0.00278   -0.03197    0.04803
 35 Ir   -0.02996   -0.01537    0.02390
 36 Ir   -0.00571   -0.02575   -0.00184
 37 Pt   -0.00952   -0.05486   -0.00833
 38 Ag   -0.02454   -0.00327    0.01453
 39 Pd    0.02707    0.03628    0.02972
 40 Pd   -0.04627   -0.04105   -0.01469
 41 Ir   -0.02629   -0.04088    0.04760
 42 Ag    0.03640    0.02184    0.02427
 43 Ir    0.01463    0.00401    0.02252
 44 Ir    0.00819    0.01361   -0.00759
 45 O     0.02061   -0.01360   -0.01415
 46 H     0.06394   -0.05062    0.01906

Timing:                                      incl.     excl.
-------------------------------------------------------------------
Density initialized from wave functions:    40.851    40.850   0.2% |
 Symmetrize density:                         0.001     0.001   0.0% |
Forces:                                    213.796   213.796   0.9% |
Hamiltonian:                                36.197     0.109   0.0% |
 Atomic:                                    10.971     7.078   0.0% |
  XC Correction:                             3.894     3.894   0.0% |
 Calculate atomic Hamiltonians:             13.309    13.309   0.1% |
 Communicate:                                0.379     0.379   0.0% |
 Initialize Hamiltonian:                     0.001     0.001   0.0% |
 Poisson:                                    0.074     0.074   0.0% |
 XC 3D grid:                                11.353    11.353   0.0% |
LCAO initialization:                        49.567     3.693   0.0% |
 LCAO eigensolver:                           4.668     0.001   0.0% |
  Calculate projections:                     0.044     0.044   0.0% |
  DenseAtomicCorrection:                     0.045     0.045   0.0% |
  Distribute overlap matrix:                 0.069     0.069   0.0% |
  Orbital Layouts:                           0.294     0.294   0.0% |
  Potential matrix:                          4.184     4.184   0.0% |
  Sum over cells:                            0.029     0.029   0.0% |
 LCAO to grid:                              39.740    39.740   0.2% |
 Set positions (LCAO WFS):                   1.466     0.421   0.0% |
  Basic WFS set positions:                   0.002     0.002   0.0% |
  Basis functions set positions:             0.000     0.000   0.0% |
  P tci:                                     0.481     0.481   0.0% |
  ST tci:                                    0.415     0.415   0.0% |
  mktci:                                     0.147     0.147   0.0% |
PWDescriptor:                                0.040     0.040   0.0% |
Redistribute:                                0.152     0.152   0.0% |
SCF-cycle:                               22471.520  1730.054   7.5% |--|
 Davidson:                               18741.856  4563.812  19.8% |-------|
  Apply H:                                2859.641  2747.108  11.9% |----|
   HMM T:                                  112.532   112.532   0.5% |
  Subspace diag:                          2713.934     0.119   0.0% |
   calc_h_matrix:                         1478.367   527.270   2.3% ||
    Apply H:                               951.097   913.637   4.0% |-|
     HMM T:                                 37.460    37.460   0.2% |
   diagonalize:                             41.773    41.773   0.2% |
   rotate_psi:                            1193.676  1193.676   5.2% |-|
  calc. matrices:                         5454.627  3573.887  15.5% |-----|
   Apply H:                               1880.740  1806.464   7.9% |--|
    HMM T:                                  74.276    74.276   0.3% |
  diagonalize:                             734.191   734.191   3.2% ||
  rotate_psi:                             2415.650  2415.650  10.5% |---|
 Density:                                 1032.383     0.022   0.0% |
  Atomic density matrices:                   5.674     5.674   0.0% |
  Mix:                                     409.278   409.278   1.8% ||
  Multipole moments:                         0.363     0.363   0.0% |
  Pseudo density:                          617.046   617.025   2.7% ||
   Symmetrize density:                       0.021     0.021   0.0% |
 Hamiltonian:                              892.881     2.890   0.0% |
  Atomic:                                  254.204   155.797   0.7% |
   XC Correction:                           98.406    98.406   0.4% |
  Calculate atomic Hamiltonians:           338.658   338.658   1.5% ||
  Communicate:                               5.189     5.189   0.0% |
  Poisson:                                   1.908     1.908   0.0% |
  XC 3D grid:                              290.031   290.031   1.3% ||
 Orthonormalize:                            74.347     0.006   0.0% |
  calc_s_matrix:                            10.315    10.315   0.0% |
  inverse-cholesky:                          0.771     0.771   0.0% |
  projections:                              40.116    40.116   0.2% |
  rotate_psi_s:                             23.139    23.139   0.1% |
Set symmetry:                                0.001     0.001   0.0% |
Other:                                     195.884   195.884   0.9% |
-------------------------------------------------------------------
Total:                                             23008.008 100.0%

Date: Thu Mar  3 20:29:35 2022
