
  ___ ___ ___ _ _ _  
 |   |   |_  | | | | 
 | | | | | . | | | | 
 |__ |  _|___|_____|  1.5.1
 |___|_|             

User:   clausen@node506.cluster
Date:   Thu Mar  3 14:35:40 2022
Arch:   x86_64
Pid:    40718
Python: 3.6.12
gpaw:   /software/kemi/gpaw/1.5.1/gpaw
_gpaw:  /software/kemi/gpaw/1.5.1/bin/gpaw-python
ase:    /software/kemi/ase/3.17.0/ase (version 3.17.0)
numpy:  /opt/rh/rh-python36/root/usr/lib64/python3.6/site-packages/numpy (version 1.13.1)
scipy:  /opt/rh/rh-python36/root/usr/lib64/python3.6/site-packages/scipy (version 0.19.1)
units:  Angstrom and eV
cores:  16

Input parameters:
  kpts: [4 4 1]
  mode: {ecut: 400.0,
         gammacentered: False,
         name: pw}
  xc: RPBE

System changes: positions, numbers, cell, pbc, initial_charges, initial_magmoms 

Initialize ...

Pd-setup:
  name: Palladium
  id: 6da19bfba079f22767af9506641940b9
  Z: 46
  valence: 16
  core: 30
  charge: 0.0
  file: /software/kemi/gpaw-setups/0.9.20000/Pd.RPBE.gz
  cutoffs: 1.19(comp), 2.38(filt), 2.28(core), lmax=2
  valence states:
                energy  radius
    5s(0.00)    -3.225   1.228
    4p(6.00)   -51.131   1.360
    5p(0.00)    -0.373   1.360
    4d(10.00)    -3.964   1.228
    *s          23.987   1.228
    *d          23.247   1.228

  Using partial waves for Pd as LCAO basis

Ir-setup:
  name: Iridium
  id: 73b603359d1d5397a85ae3c2440f9033
  Z: 77
  valence: 15
  core: 62
  charge: 0.0
  file: /software/kemi/gpaw-setups/0.9.20000/Ir.RPBE.gz
  cutoffs: 1.26(comp), 2.40(filt), 2.36(core), lmax=2
  valence states:
                energy  radius
    6s(2.00)    -6.219   1.296
    5p(6.00)   -54.684   1.328
    6p(0.00)    -1.215   1.328
    5d(7.00)    -7.118   1.286
    *s          20.992   1.296
    *d          20.093   1.286

  Using partial waves for Ir as LCAO basis

Ru-setup:
  name: Ruthenium
  id: 76477906e28f51dc1b29884d53556fe9
  Z: 44
  valence: 16
  core: 28
  charge: 0.0
  file: /software/kemi/gpaw-setups/0.9.20000/Ru.RPBE.gz
  cutoffs: 1.23(comp), 2.16(filt), 1.30(core), lmax=2
  valence states:
                energy  radius
    4s(2.00)   -76.255   1.281
    5s(1.00)    -4.126   1.281
    4p(6.00)   -46.371   1.286
    5p(0.00)    -0.913   1.286
    4d(7.00)    -5.146   1.254
    *d          22.066   1.254

  Using partial waves for Ru as LCAO basis

Pt-setup:
  name: Platinum
  id: f04f522592575c47ad794f6b4a415b4b
  Z: 78
  valence: 16
  core: 62
  charge: 0.0
  file: /software/kemi/gpaw-setups/0.9.20000/Pt.RPBE.gz
  cutoffs: 1.29(comp), 2.26(filt), 2.26(core), lmax=2
  valence states:
                energy  radius
    6s(1.00)    -5.516   1.307
    5p(6.00)   -55.971   1.371
    6p(0.00)    -0.856   1.371
    5d(9.00)    -6.087   1.307
    *s          21.695   1.307
    *d          21.125   1.307

  Using partial waves for Pt as LCAO basis

Ag-setup:
  name: Silver
  id: c05e55bab2c3858b3f9398f6d75cb77c
  Z: 47
  valence: 17
  core: 30
  charge: 0.0
  file: /software/kemi/gpaw-setups/0.9.20000/Ag.RPBE.gz
  cutoffs: 1.25(comp), 2.35(filt), 2.19(core), lmax=2
  valence states:
                energy  radius
    5s(1.00)    -4.277   1.286
    4p(6.00)   -58.523   1.328
    5p(0.00)    -0.755   1.328
    4d(10.00)    -7.386   1.180
    *s          22.934   1.286
    *d          19.826   1.180

  Using partial waves for Ag as LCAO basis

O-setup:
  name: Oxygen
  id: 08071ca1eed670e7821b24b7eb4d558c
  Z: 8
  valence: 6
  core: 2
  charge: 0.0
  file: /software/kemi/gpaw-setups/0.9.20000/O.RPBE.gz
  cutoffs: 0.67(comp), 1.17(filt), 0.83(core), lmax=2
  valence states:
                energy  radius
    2s(2.00)   -24.041   0.688
    2p(4.00)    -8.984   0.598
    *s           3.170   0.688
    *p          18.228   0.598
    *d           0.000   0.619

  Using partial waves for O as LCAO basis

Reference energy: -12877847.605335

Spin-paired calculation

Occupation numbers:
  Fermi-Dirac: width=0.1000 eV

Convergence criteria:
  Maximum total energy change: 0.0005 eV / electron
  Maximum integral of absolute density change: 0.0001 electrons
  Maximum integral of absolute eigenstate change: 4e-08 eV^2
  Maximum number of iterations: 333

Symmetries present (total): 1

  ( 1  0  0)
  ( 0  1  0)
  ( 0  0  1)

16 k-points: 4 x 4 x 1 Monkhorst-Pack grid
8 k-points in the irreducible part of the Brillouin zone
       k-points in crystal coordinates                weights
   0:     0.12500000   -0.37500000    0.00000000          2/16
   1:     0.12500000   -0.12500000    0.00000000          2/16
   2:     0.12500000    0.12500000    0.00000000          2/16
   3:     0.12500000    0.37500000    0.00000000          2/16
   4:     0.37500000   -0.37500000    0.00000000          2/16
   5:     0.37500000   -0.12500000    0.00000000          2/16
   6:     0.37500000    0.12500000    0.00000000          2/16
   7:     0.37500000    0.37500000    0.00000000          2/16

Wave functions: Plane wave expansion
  Cutoff energy: 400.000 eV
  Number of coefficients (min, max): 32894, 32940
  Pulay-stress correction: 0.000000 eV/Ang^3 (de/decut=0.000000)
  Using FFTW library
  ScaLapack parameters: grid=1x1, blocksize=None
  Wavefunction extrapolation:
    Improved wavefunction reuse through dual PAW basis 

Eigensolver
   Davidson(niter=2, smin=None, normalize=True) 

Densities:
  Coarse grid: 35*35*135 grid
  Fine grid: 70*70*270 grid
  Total Charge: 0.000000 

Density mixing:
  Method: separate
  Backend: pulay
  Linear mixing parameter: 0.05
  Mixing with 5 old densities
  Damping of long wave oscillations: 50 

Hamiltonian:
  XC and Coulomb potentials evaluated on a 70*70*270 grid
  Using the RPBE Exchange-Correlation functional
 

XC parameters: RPBE with 2 nearest neighbor stencil

Memory estimate:
  Process memory now: 157.09 MiB
  Calculator: 549.89 MiB
    Density: 51.27 MiB
      Arrays: 16.41 MiB
      Localized functions: 28.50 MiB
      Mixer: 6.36 MiB
    Hamiltonian: 11.63 MiB
      Arrays: 10.73 MiB
      XC: 0.00 MiB
      Poisson: 0.00 MiB
      vbar: 0.90 MiB
    Wavefunctions: 487.00 MiB
      Arrays psit_nG: 220.15 MiB
      Eigensolver: 251.95 MiB
      Projections: 2.75 MiB
      Projectors: 5.53 MiB
      PW-descriptor: 6.62 MiB

Total number of cores used: 16
Parallelization over k-points: 8
Domain decomposition: 1 x 1 x 2

Number of atoms: 46
Number of atomic orbitals: 550
Number of bands in calculation: 438
Bands to converge: occupied states only
Number of valence electrons: 723

... initialized

Initializing position-dependent things.

Density initialized from atomic densities
Creating initial wave functions:
  438 bands from LCAO basis set

                                             
                                             
                                             
                                             
                                   O         
                                             
                  Ag                         
                         Ir    Ir            
            Pd      Pd     Ir                
                   Ru     Pd     Ir          
        Ir    Pt    PAg    Pd                
                                             
        Ir     Pd    IAg    Ir     Pt        
                Ag     Ru     Pd             
                                             
           Pt     Ag    PPd    Ir            
                                             
            Pt     Pt    PPt    Ru           
       Ag     Ag     Ag                      
              Ru    Ir     Pt                
         Pd    Ir     Ru                     
                                             
                                             
                                             
                                             
                                             

Positions:
   0 Pd     0.000000    1.624086   10.000000    ( 0.0000,  0.0000,  0.0000)
   1 Ir     2.812999    1.624086   10.000000    ( 0.0000,  0.0000,  0.0000)
   2 Ru     5.625998    1.624086   10.000000    ( 0.0000,  0.0000,  0.0000)
   3 Ru     1.406500    4.060215   10.000000    ( 0.0000,  0.0000,  0.0000)
   4 Ir     4.219499    4.060215   10.000000    ( 0.0000,  0.0000,  0.0000)
   5 Pt     7.032498    4.060215   10.000000    ( 0.0000,  0.0000,  0.0000)
   6 Pd     2.812999    6.496343   10.000000    ( 0.0000,  0.0000,  0.0000)
   7 Pd     5.625998    6.496343   10.000000    ( 0.0000,  0.0000,  0.0000)
   8 Ru     8.438997    6.496343   10.000000    ( 0.0000,  0.0000,  0.0000)
   9 Ag     0.000000    0.000000   12.296804    ( 0.0000,  0.0000,  0.0000)
  10 Ag     2.812999    0.000000   12.296804    ( 0.0000,  0.0000,  0.0000)
  11 Ag     5.625998    0.000000   12.296804    ( 0.0000,  0.0000,  0.0000)
  12 Pt     1.406500    2.436129   12.296804    ( 0.0000,  0.0000,  0.0000)
  13 Pt     4.219499    2.436129   12.296804    ( 0.0000,  0.0000,  0.0000)
  14 Pt     7.032498    2.436129   12.296804    ( 0.0000,  0.0000,  0.0000)
  15 Ru     2.812999    4.872257   12.296804    ( 0.0000,  0.0000,  0.0000)
  16 Pt     5.625998    4.872257   12.296804    ( 0.0000,  0.0000,  0.0000)
  17 Ir     8.438997    4.872257   12.296804    ( 0.0000,  0.0000,  0.0000)
  18 Pt     1.331112    0.739375   14.657283    ( 0.0000,  0.0000,  0.0000)
  19 Ag     4.181622    0.793852   14.645499    ( 0.0000,  0.0000,  0.0000)
  20 Pd     7.001587    0.862206   14.620346    ( 0.0000,  0.0000,  0.0000)
  21 Ag     2.800841    3.198617   14.645984    ( 0.0000,  0.0000,  0.0000)
  22 Ru     5.661352    3.374873   14.464570    ( 0.0000,  0.0000,  0.0000)
  23 Pd     8.454364    3.209063   14.568969    ( 0.0000,  0.0000,  0.0000)
  24 Ir     4.203312    5.613553   14.568997    ( 0.0000,  0.0000,  0.0000)
  25 Ir     7.031881    5.578044   14.561300    ( 0.0000,  0.0000,  0.0000)
  26 Pt     9.857688    5.665883   14.596939    ( 0.0000,  0.0000,  0.0000)
  27 Ir    -0.077764    1.506761   16.938800    ( 0.0000,  0.0000,  0.0000)
  28 Pd     2.746751    1.593087   16.991368    ( 0.0000,  0.0000,  0.0000)
  29 Ag     5.532334    1.594992   16.918159    ( 0.0000,  0.0000,  0.0000)
  30 Pd     1.401555    4.031321   16.973309    ( 0.0000,  0.0000,  0.0000)
  31 Pd     4.186062    4.107308   16.892321    ( 0.0000,  0.0000,  0.0000)
  32 Pd     7.007491    3.969527   16.736476    ( 0.0000,  0.0000,  0.0000)
  33 Ru     2.845276    6.541012   16.753610    ( 0.0000,  0.0000,  0.0000)
  34 Pd     5.662228    6.450069   16.794393    ( 0.0000,  0.0000,  0.0000)
  35 Ir     8.552515    6.378355   16.920371    ( 0.0000,  0.0000,  0.0000)
  36 Ir     0.061963   -0.029589   18.981657    ( 0.0000,  0.0000,  0.0000)
  37 Pt     2.802470   -0.097062   19.141410    ( 0.0000,  0.0000,  0.0000)
  38 Ag     5.661265    0.013033   19.406409    ( 0.0000,  0.0000,  0.0000)
  39 Pd     1.350042    2.376862   19.278970    ( 0.0000,  0.0000,  0.0000)
  40 Pd     4.315258    2.518491   19.256067    ( 0.0000,  0.0000,  0.0000)
  41 Ir     7.173708    2.513849   19.018418    ( 0.0000,  0.0000,  0.0000)
  42 Ag     2.809713    4.893314   19.379442    ( 0.0000,  0.0000,  0.0000)
  43 Ir     5.700233    4.913916   19.039342    ( 0.0000,  0.0000,  0.0000)
  44 Ir     8.278779    4.849064   19.000358    ( 0.0000,  0.0000,  0.0000)
  45 O      9.815923    5.695537   20.706409    ( 0.0000,  0.0000,  0.0000)

Unit cell:
           periodic     x           y           z      points  spacing
  1. axis:    yes    8.465341    0.000000    0.000000    35     0.2095
  2. axis:    yes    4.232670    7.331200    0.000000    35     0.2095
  3. axis:    no     0.000000    0.000000   29.187217   135     0.2162

  Lengths:   8.465341   8.465341  29.187217
  Angles:   90.000000  90.000000  60.000000

Effective grid spacing dv^(1/3) = 0.2221

                     log10-error:    total        iterations:
           time      wfs    density  energy       fermi  poisson
iter:   1  14:38:38  +0.32   +inf  -321.053789    2             
iter:   2  14:40:05  -0.55  -1.16  -400.773402    33            
iter:   3  14:41:32  -0.62  -1.08  -351.320662    3             
iter:   4  14:43:00  -1.24  -1.14  -269.761116    36            
iter:   5  14:44:17  -1.76  -1.34  -245.036591    37            
iter:   6  14:45:30  -1.94  -1.46  -241.279608    35            
iter:   7  14:46:43  -2.19  -1.51  -238.982194    3             
iter:   8  14:47:58  -2.30  -1.56  -236.026164    3             
iter:   9  14:49:12  -1.81  -1.69  -244.193614    3             
iter:  10  14:50:25  -2.39  -1.60  -234.528894    3             
iter:  11  14:51:39  -2.87  -1.98  -234.161398    3             
iter:  12  14:52:52  -3.23  -2.10  -234.221910    3             
iter:  13  14:54:06  -3.43  -2.15  -234.268948    3             
iter:  14  14:55:20  -3.46  -2.17  -234.149192    3             
iter:  15  14:56:34  -3.16  -2.27  -233.925923    3             
iter:  16  14:57:47  -3.37  -2.48  -234.402948    3             
iter:  17  14:59:01  -3.47  -2.22  -233.866395    3             
iter:  18  15:00:15  -3.97  -2.66  -233.857104    3             
iter:  19  15:01:29  -4.09  -2.67  -233.849185    3             
iter:  20  15:02:42  -4.48  -2.69  -233.825224    2             
iter:  21  15:03:57  -4.38  -2.78  -233.801755    3             
iter:  22  15:05:11  -4.91  -2.97  -233.808272    2             
iter:  23  15:06:26  -4.45  -2.94  -233.800237    2             
iter:  24  15:07:41  -5.29  -3.05  -233.799102    2             
iter:  25  15:08:54  -4.71  -3.14  -233.823666    2             
iter:  26  15:10:07  -5.23  -2.86  -233.797300    2             
iter:  27  15:11:22  -5.15  -3.19  -233.795062    2             
iter:  28  15:12:35  -5.35  -3.30  -233.794257    2             
iter:  29  15:13:49  -5.73  -3.48  -233.793114    2             
iter:  30  15:15:03  -5.31  -3.53  -233.795307    2             
iter:  31  15:16:16  -6.17  -3.54  -233.792988    2             
iter:  32  15:17:31  -6.30  -3.64  -233.793967    2             
iter:  33  15:18:45  -6.19  -3.55  -233.793029    2             
iter:  34  15:19:59  -6.35  -3.86  -233.793153    2             
iter:  35  15:21:13  -6.84  -3.93  -233.792922    2             
iter:  36  15:22:26  -6.61  -4.00  -233.792979    2             
iter:  37  15:23:41  -6.25  -4.16  -233.792584    2             
iter:  38  15:24:54  -6.97  -3.75  -233.792722    2             
iter:  39  15:26:07  -7.41  -4.39  -233.792754    2             

Converged after 39 iterations.

Dipole moment: (23.604682, 15.920290, -0.316334) |e|*Ang

Energy contributions relative to reference atoms: (reference = -12877847.605335)

Kinetic:       -225.317433
Potential:     +101.560817
External:        +0.000000
XC:            -101.996282
Entropy (-ST):   -2.313760
Local:           -6.882975
--------------------------
Free energy:   -234.949634
Extrapolated:  -233.792754

Fermi level: 0.90218

Showing only first 2 kpts
 Kpt  Band  Eigenvalues  Occupancy
  0   359      0.88364    0.13655
  0   360      0.89760    0.12786
  0   361      0.91992    0.11394
  0   362      0.95709    0.09152

  1   359      0.80926    0.17923
  1   360      0.84174    0.16166
  1   361      0.86268    0.14937
  1   362      0.88159    0.13782



Forces in eV/Ang:
  0 Pd   -0.11639    0.32990   -0.35468
  1 Ir    0.96004    0.70383    0.61709
  2 Ru   -1.08844    0.29524    0.69428
  3 Ru    0.41954    0.28698    1.61320
  4 Ir   -0.56652   -0.80207    1.17247
  5 Pt    0.14827    0.15642    0.05451
  6 Pd   -0.49795   -0.42528   -0.23955
  7 Pd    0.38618   -0.26553   -0.57503
  8 Ru    0.34065   -0.15523    0.55339
  9 Ag   -0.24546   -0.09737    0.05957
 10 Ag   -0.02516   -0.10981    0.05948
 11 Ag    0.08311   -0.17019   -0.13331
 12 Pt    0.09503    0.76530   -0.53553
 13 Pt    0.10838    0.55683   -0.74702
 14 Pt   -0.09554    0.20095   -0.18477
 15 Ru   -0.40026   -0.73449   -0.95284
 16 Pt   -0.39418    0.18812   -0.13924
 17 Ir    0.90718   -0.09171   -1.04263
 18 Pt   -0.00237   -0.01437   -0.00361
 19 Ag    0.00392   -0.04663    0.02956
 20 Pd   -0.01648   -0.02389    0.01893
 21 Ag   -0.01138   -0.00083   -0.00437
 22 Ru   -0.10578   -0.03399   -0.05194
 23 Pd   -0.06214   -0.03657    0.05360
 24 Ir    0.04201   -0.04464   -0.00567
 25 Ir   -0.04885   -0.03204    0.03439
 26 Pt    0.01650    0.00177    0.00064
 27 Ir    0.06199   -0.00273   -0.02572
 28 Pd    0.02465   -0.04045   -0.04948
 29 Ag   -0.02951   -0.06919    0.05884
 30 Pd    0.00474   -0.04761   -0.19135
 31 Pd   -0.03031    0.01600    0.10944
 32 Pd    0.20301    0.14048    0.26803
 33 Ru   -0.05062   -0.03943   -0.05331
 34 Pd    0.02964    0.04660   -0.03663
 35 Ir   -0.01952   -0.09149   -0.24653
 36 Ir    0.23057    0.04221   -0.13303
 37 Pt   -0.22702    0.15992   -0.12598
 38 Ag    0.14708    1.00829   -0.12642
 39 Pd   -0.03560   -0.18420   -0.04634
 40 Pd    0.04220    0.00799   -0.09362
 41 Ir   -0.12399   -0.08761   -0.09891
 42 Ag    0.71759   -0.35569   -0.02324
 43 Ir    0.03328   -0.08265   -0.17700
 44 Ir    0.72542    0.38627    1.94599
 45 O    -1.62699   -1.25117   -0.75338

System changes: positions 

Initializing position-dependent things.

Density initialized from wave functions
                                             
                                             
                                             
                                             
                                   O         
                                             
                  Ag                         
                         Ir    Ir            
            Pd      Pd     Ir   Ir           
                   Ru     Pd                 
        Ir    Pt    PAg    Pd                
                                             
        Ir     Pd    IAg    Ir     Pt        
                Ag     Ru     Pd             
                                             
           Pt     Ag    PPd    Ir            
                                             
            Pt     Pt    PPt    Ru           
       Ag     Ag    IAg    Pt                
                                             
         Pd    Ir     Ru                     
                                             
                                             
                                             
                                             
                                             

Positions:
   0 Pd     0.000000    1.624086   10.000000    ( 0.0000,  0.0000,  0.0000)
   1 Ir     2.812999    1.624086   10.000000    ( 0.0000,  0.0000,  0.0000)
   2 Ru     5.625998    1.624086   10.000000    ( 0.0000,  0.0000,  0.0000)
   3 Ru     1.406500    4.060215   10.000000    ( 0.0000,  0.0000,  0.0000)
   4 Ir     4.219499    4.060215   10.000000    ( 0.0000,  0.0000,  0.0000)
   5 Pt     7.032498    4.060215   10.000000    ( 0.0000,  0.0000,  0.0000)
   6 Pd     2.812999    6.496343   10.000000    ( 0.0000,  0.0000,  0.0000)
   7 Pd     5.625998    6.496343   10.000000    ( 0.0000,  0.0000,  0.0000)
   8 Ru     8.438997    6.496343   10.000000    ( 0.0000,  0.0000,  0.0000)
   9 Ag     0.000000    0.000000   12.296804    ( 0.0000,  0.0000,  0.0000)
  10 Ag     2.812999    0.000000   12.296804    ( 0.0000,  0.0000,  0.0000)
  11 Ag     5.625998    0.000000   12.296804    ( 0.0000,  0.0000,  0.0000)
  12 Pt     1.406500    2.436129   12.296804    ( 0.0000,  0.0000,  0.0000)
  13 Pt     4.219499    2.436129   12.296804    ( 0.0000,  0.0000,  0.0000)
  14 Pt     7.032498    2.436129   12.296804    ( 0.0000,  0.0000,  0.0000)
  15 Ru     2.812999    4.872257   12.296804    ( 0.0000,  0.0000,  0.0000)
  16 Pt     5.625998    4.872257   12.296804    ( 0.0000,  0.0000,  0.0000)
  17 Ir     8.438997    4.872257   12.296804    ( 0.0000,  0.0000,  0.0000)
  18 Pt     1.330895    0.738060   14.656953    ( 0.0000,  0.0000,  0.0000)
  19 Ag     4.181981    0.789586   14.648204    ( 0.0000,  0.0000,  0.0000)
  20 Pd     7.000079    0.860020   14.622078    ( 0.0000,  0.0000,  0.0000)
  21 Ag     2.799799    3.198542   14.645584    ( 0.0000,  0.0000,  0.0000)
  22 Ru     5.651676    3.371764   14.459819    ( 0.0000,  0.0000,  0.0000)
  23 Pd     8.448680    3.205717   14.573872    ( 0.0000,  0.0000,  0.0000)
  24 Ir     4.207156    5.609469   14.568478    ( 0.0000,  0.0000,  0.0000)
  25 Ir     7.027412    5.575114   14.564445    ( 0.0000,  0.0000,  0.0000)
  26 Pt     9.859198    5.666044   14.596998    ( 0.0000,  0.0000,  0.0000)
  27 Ir    -0.072093    1.506512   16.936448    ( 0.0000,  0.0000,  0.0000)
  28 Pd     2.749005    1.589387   16.986841    ( 0.0000,  0.0000,  0.0000)
  29 Ag     5.529635    1.588662   16.923542    ( 0.0000,  0.0000,  0.0000)
  30 Pd     1.401989    4.026965   16.955806    ( 0.0000,  0.0000,  0.0000)
  31 Pd     4.183290    4.108771   16.902332    ( 0.0000,  0.0000,  0.0000)
  32 Pd     7.026062    3.982378   16.760995    ( 0.0000,  0.0000,  0.0000)
  33 Ru     2.840645    6.537406   16.748733    ( 0.0000,  0.0000,  0.0000)
  34 Pd     5.664939    6.454332   16.791042    ( 0.0000,  0.0000,  0.0000)
  35 Ir     8.550729    6.369986   16.897820    ( 0.0000,  0.0000,  0.0000)
  36 Ir     0.083054   -0.025728   18.969488    ( 0.0000,  0.0000,  0.0000)
  37 Pt     2.781703   -0.082432   19.129886    ( 0.0000,  0.0000,  0.0000)
  38 Ag     5.674719    0.105268   19.394845    ( 0.0000,  0.0000,  0.0000)
  39 Pd     1.346786    2.360011   19.274731    ( 0.0000,  0.0000,  0.0000)
  40 Pd     4.319119    2.519222   19.247503    ( 0.0000,  0.0000,  0.0000)
  41 Ir     7.162366    2.505835   19.009370    ( 0.0000,  0.0000,  0.0000)
  42 Ag     2.875355    4.860777   19.377316    ( 0.0000,  0.0000,  0.0000)
  43 Ir     5.703277    4.906356   19.023151    ( 0.0000,  0.0000,  0.0000)
  44 Ir     8.345138    4.884398   19.178372    ( 0.0000,  0.0000,  0.0000)
  45 O      9.667091    5.581084   20.637493    ( 0.0000,  0.0000,  0.0000)

Unit cell:
           periodic     x           y           z      points  spacing
  1. axis:    yes    8.465341    0.000000    0.000000    35     0.2095
  2. axis:    yes    4.232670    7.331200    0.000000    35     0.2095
  3. axis:    no     0.000000    0.000000   29.187217   135     0.2162

  Lengths:   8.465341   8.465341  29.187217
  Angles:   90.000000  90.000000  60.000000

Effective grid spacing dv^(1/3) = 0.2221

                     log10-error:    total        iterations:
           time      wfs    density  energy       fermi  poisson
iter:   1  15:27:54  -1.66   +inf  -237.100444    3             
iter:   2  15:29:08  -1.82  -2.02  -278.530453    36            
iter:   3  15:30:06  -2.16  -1.43  -236.457104    37            
iter:   4  15:31:04  -2.72  -2.07  -235.345041    4             
iter:   5  15:32:03  -3.57  -2.32  -234.997513    3             
iter:   6  15:33:01  -3.74  -2.58  -234.912320    3             
iter:   7  15:33:59  -3.67  -2.74  -234.849652    2             
iter:   8  15:34:57  -3.29  -2.78  -235.591422    2             
iter:   9  15:35:56  -3.83  -2.18  -234.793152    3             
iter:  10  15:36:54  -4.34  -2.91  -234.797443    3             
iter:  11  15:37:53  -4.99  -2.91  -234.783386    3             
iter:  12  15:38:51  -4.90  -2.99  -234.774996    2             
iter:  13  15:39:49  -4.87  -3.15  -234.767403    2             
iter:  14  15:40:47  -4.83  -3.31  -234.765797    2             
iter:  15  15:41:45  -4.98  -3.45  -234.773680    2             
iter:  16  15:42:55  -5.51  -3.07  -234.764673    2             
iter:  17  15:44:23  -5.47  -3.60  -234.764759    2             
iter:  18  15:45:51  -5.76  -3.41  -234.763301    2             
iter:  19  15:47:19  -6.23  -3.73  -234.764069    2             
iter:  20  15:48:47  -6.18  -3.61  -234.763717    2             
iter:  21  15:50:15  -6.72  -3.78  -234.763376    2             
iter:  22  15:51:43  -5.93  -3.81  -234.764027    2             
iter:  23  15:53:11  -6.48  -3.85  -234.762913    2             
iter:  24  15:54:39  -6.30  -3.97  -234.763906    2             
iter:  25  15:56:07  -7.18  -3.87  -234.763427    2             
iter:  26  15:57:35  -7.19  -4.19  -234.763372    2             
iter:  27  15:58:47  -7.28  -4.14  -234.763349    2             
iter:  28  16:00:01  -7.52  -4.29  -234.763245    2             

Converged after 28 iterations.

Dipole moment: (16.748557, 11.416423, -0.225892) |e|*Ang

Energy contributions relative to reference atoms: (reference = -12877847.605335)

Kinetic:       -233.491021
Potential:     +108.451815
External:        +0.000000
XC:            -101.709227
Entropy (-ST):   -2.279891
Local:           -6.874867
--------------------------
Free energy:   -235.903191
Extrapolated:  -234.763245

Fermi level: 0.94795

Showing only first 2 kpts
 Kpt  Band  Eigenvalues  Occupancy
  0   359      0.92664    0.13827
  0   360      0.95196    0.12249
  0   361      0.97097    0.11067
  0   362      0.99645    0.09527

  1   359      0.85525    0.17912
  1   360      0.88629    0.16236
  1   361      0.90369    0.15222
  1   362      0.92333    0.14031



Forces in eV/Ang:
  0 Pd   -0.12415    0.32549   -0.35685
  1 Ir    0.97335    0.69984    0.61779
  2 Ru   -1.08405    0.28420    0.68469
  3 Ru    0.41871    0.29209    1.61344
  4 Ir   -0.56912   -0.80335    1.17073
  5 Pt    0.14764    0.15360    0.05522
  6 Pd   -0.50070   -0.41823   -0.24116
  7 Pd    0.38147   -0.26596   -0.57226
  8 Ru    0.34793   -0.15097    0.54635
  9 Ag   -0.24981   -0.09343    0.05721
 10 Ag   -0.02202   -0.11402    0.05825
 11 Ag    0.08215   -0.16830   -0.13415
 12 Pt    0.07577    0.76480   -0.52587
 13 Pt    0.09957    0.54393   -0.72133
 14 Pt   -0.08268    0.19394   -0.18137
 15 Ru   -0.40638   -0.73946   -0.96381
 16 Pt   -0.39281    0.20218   -0.17959
 17 Ir    0.90704   -0.10972   -1.03739
 18 Pt   -0.02076    0.02887   -0.05190
 19 Ag    0.00300   -0.02920    0.00217
 20 Pd   -0.00973   -0.00526   -0.00572
 21 Ag   -0.01216   -0.01423   -0.00282
 22 Ru    0.00199   -0.03588    0.05726
 23 Pd   -0.06308   -0.02704    0.03759
 24 Ir   -0.00073   -0.01307    0.01169
 25 Ir   -0.01438   -0.09070    0.13846
 26 Pt    0.04578   -0.03919   -0.08386
 27 Ir   -0.02704    0.06714   -0.09335
 28 Pd    0.02390    0.00484   -0.06558
 29 Ag    0.01677    0.06379   -0.13666
 30 Pd   -0.19052    0.07964    0.19799
 31 Pd    0.09963   -0.01510   -0.09174
 32 Pd    0.22458    0.15725    0.26154
 33 Ru   -0.05504   -0.07203    0.01697
 34 Pd    0.05932   -0.04609   -0.08746
 35 Ir   -0.10048   -0.30246    0.33464
 36 Ir    0.02261   -0.08517   -0.01582
 37 Pt    0.00282    0.09240   -0.08708
 38 Ag    0.28883    0.09482    0.12667
 39 Pd   -0.00526   -0.05147   -0.06108
 40 Pd   -0.01170    0.00755   -0.03597
 41 Ir    0.20087    0.48608    0.06230
 42 Ag    0.24262    0.10063    0.07815
 43 Ir    0.56135   -0.09099   -0.03568
 44 Ir    0.48263    0.22046    1.12511
 45 O    -1.82342   -1.10809   -1.66777

System changes: positions 

Initializing position-dependent things.

Density initialized from wave functions
                                             
                                             
                                             
                                             
                                  O          
                                             
                  Ag           Ir            
                         Ir                  
            Pd      Pd     Ir   Ir           
                   RuAg   Pd                 
        Ir   PPt    Pd     Pd                
               Pd                            
        Ir           IAg    Ir     Pt        
                Ag     Ru     Pd             
                                             
           Pt    RAg    PPd    Ir            
                                             
            Pt     Pt    PPt    Ru           
       Ag     Ag    IAg    Pt                
                                             
        Pd     Ir     Ru                     
                                             
                                             
                                             
                                             
                                             

Positions:
   0 Pd     0.000000    1.624086   10.000000    ( 0.0000,  0.0000,  0.0000)
   1 Ir     2.812999    1.624086   10.000000    ( 0.0000,  0.0000,  0.0000)
   2 Ru     5.625998    1.624086   10.000000    ( 0.0000,  0.0000,  0.0000)
   3 Ru     1.406500    4.060215   10.000000    ( 0.0000,  0.0000,  0.0000)
   4 Ir     4.219499    4.060215   10.000000    ( 0.0000,  0.0000,  0.0000)
   5 Pt     7.032498    4.060215   10.000000    ( 0.0000,  0.0000,  0.0000)
   6 Pd     2.812999    6.496343   10.000000    ( 0.0000,  0.0000,  0.0000)
   7 Pd     5.625998    6.496343   10.000000    ( 0.0000,  0.0000,  0.0000)
   8 Ru     8.438997    6.496343   10.000000    ( 0.0000,  0.0000,  0.0000)
   9 Ag     0.000000    0.000000   12.296804    ( 0.0000,  0.0000,  0.0000)
  10 Ag     2.812999    0.000000   12.296804    ( 0.0000,  0.0000,  0.0000)
  11 Ag     5.625998    0.000000   12.296804    ( 0.0000,  0.0000,  0.0000)
  12 Pt     1.406500    2.436129   12.296804    ( 0.0000,  0.0000,  0.0000)
  13 Pt     4.219499    2.436129   12.296804    ( 0.0000,  0.0000,  0.0000)
  14 Pt     7.032498    2.436129   12.296804    ( 0.0000,  0.0000,  0.0000)
  15 Ru     2.812999    4.872257   12.296804    ( 0.0000,  0.0000,  0.0000)
  16 Pt     5.625998    4.872257   12.296804    ( 0.0000,  0.0000,  0.0000)
  17 Ir     8.438997    4.872257   12.296804    ( 0.0000,  0.0000,  0.0000)
  18 Pt     1.330678    0.736745   14.656623    ( 0.0000,  0.0000,  0.0000)
  19 Ag     4.182340    0.785320   14.650908    ( 0.0000,  0.0000,  0.0000)
  20 Pd     6.998572    0.857835   14.623810    ( 0.0000,  0.0000,  0.0000)
  21 Ag     2.798758    3.198466   14.645184    ( 0.0000,  0.0000,  0.0000)
  22 Ru     5.642000    3.368655   14.455068    ( 0.0000,  0.0000,  0.0000)
  23 Pd     8.442995    3.202372   14.578776    ( 0.0000,  0.0000,  0.0000)
  24 Ir     4.210999    5.605386   14.567959    ( 0.0000,  0.0000,  0.0000)
  25 Ir     7.022944    5.572183   14.567591    ( 0.0000,  0.0000,  0.0000)
  26 Pt     9.860707    5.666206   14.597057    ( 0.0000,  0.0000,  0.0000)
  27 Ir    -0.066423    1.506262   16.934095    ( 0.0000,  0.0000,  0.0000)
  28 Pd     2.751260    1.585687   16.982315    ( 0.0000,  0.0000,  0.0000)
  29 Ag     5.526936    1.582333   16.928925    ( 0.0000,  0.0000,  0.0000)
  30 Pd     1.402422    4.022610   16.938302    ( 0.0000,  0.0000,  0.0000)
  31 Pd     4.180517    4.110235   16.912344    ( 0.0000,  0.0000,  0.0000)
  32 Pd     7.044633    3.995228   16.785514    ( 0.0000,  0.0000,  0.0000)
  33 Ru     2.836014    6.533799   16.743856    ( 0.0000,  0.0000,  0.0000)
  34 Pd     5.667650    6.458595   16.787691    ( 0.0000,  0.0000,  0.0000)
  35 Ir     8.548944    6.361617   16.875268    ( 0.0000,  0.0000,  0.0000)
  36 Ir     0.104146   -0.021867   18.957319    ( 0.0000,  0.0000,  0.0000)
  37 Pt     2.760936   -0.067803   19.118362    ( 0.0000,  0.0000,  0.0000)
  38 Ag     5.688173    0.197503   19.383281    ( 0.0000,  0.0000,  0.0000)
  39 Pd     1.343529    2.343161   19.270492    ( 0.0000,  0.0000,  0.0000)
  40 Pd     4.322979    2.519953   19.238939    ( 0.0000,  0.0000,  0.0000)
  41 Ir     7.151024    2.497820   19.000322    ( 0.0000,  0.0000,  0.0000)
  42 Ag     2.940998    4.828240   19.375190    ( 0.0000,  0.0000,  0.0000)
  43 Ir     5.706321    4.898795   19.006959    ( 0.0000,  0.0000,  0.0000)
  44 Ir     8.411497    4.919733   19.356385    ( 0.0000,  0.0000,  0.0000)
  45 O      9.518258    5.466632   20.568576    ( 0.0000,  0.0000,  0.0000)

Unit cell:
           periodic     x           y           z      points  spacing
  1. axis:    yes    8.465341    0.000000    0.000000    35     0.2095
  2. axis:    yes    4.232670    7.331200    0.000000    35     0.2095
  3. axis:    no     0.000000    0.000000   29.187217   135     0.2162

  Lengths:   8.465341   8.465341  29.187217
  Angles:   90.000000  90.000000  60.000000

Effective grid spacing dv^(1/3) = 0.2221

                     log10-error:    total        iterations:
           time      wfs    density  energy       fermi  poisson
iter:   1  16:01:47  -1.68   +inf  -238.673062    4             
iter:   2  16:03:01  -1.96  -2.07  -251.795189    34            
iter:   3  16:04:15  -1.80  -1.60  -264.483119    2             
iter:   4  16:05:28  -2.46  -1.50  -235.945354    34            
iter:   5  16:06:42  -3.26  -2.27  -235.697847    3             
iter:   6  16:07:55  -3.40  -2.31  -235.431456    3             
iter:   7  16:09:08  -3.53  -2.32  -235.074851    3             
iter:   8  16:10:23  -3.94  -2.65  -235.006906    2             
iter:   9  16:11:36  -3.85  -2.73  -235.281856    2             
iter:  10  16:12:49  -3.76  -2.33  -235.114604    3             
iter:  11  16:14:03  -3.94  -2.47  -234.946696    3             
iter:  12  16:15:16  -3.77  -2.70  -234.922501    3             
iter:  13  16:16:30  -4.30  -2.81  -234.885559    3             
iter:  14  16:17:43  -4.95  -2.99  -234.880264    2             
iter:  15  16:18:57  -4.45  -3.02  -234.932682    2             
iter:  16  16:20:10  -4.78  -2.70  -234.874116    2             
iter:  17  16:21:11  -4.85  -3.11  -234.866210    3             
iter:  18  16:22:10  -5.57  -3.22  -234.864497    3             
iter:  19  16:23:10  -5.46  -3.37  -234.864794    2             
iter:  20  16:24:07  -5.24  -3.29  -234.862952    2             
iter:  21  16:25:04  -5.27  -3.43  -234.862556    2             
iter:  22  16:26:02  -5.63  -3.56  -234.865426    2             
iter:  23  16:27:00  -6.17  -3.39  -234.862316    2             
iter:  24  16:27:57  -6.46  -3.69  -234.861933    2             
iter:  25  16:28:54  -6.00  -3.85  -234.862566    2             
iter:  26  16:29:52  -6.51  -3.81  -234.861937    2             
iter:  27  16:30:50  -6.82  -4.00  -234.862040    2             
iter:  28  16:31:46  -6.74  -3.98  -234.861805    2             
iter:  29  16:32:42  -6.31  -4.09  -234.862595    2             
iter:  30  16:33:41  -6.66  -3.60  -234.861528    2             
iter:  31  16:34:37  -6.77  -4.07  -234.862186    2             
iter:  32  16:35:35  -6.86  -4.08  -234.861633    2             
iter:  33  16:36:32  -7.29  -4.15  -234.861671    2             
iter:  34  16:37:29  -7.47  -4.45  -234.861603    2             

Converged after 34 iterations.

Dipole moment: (10.781222, 7.671712, -0.056289) |e|*Ang

Energy contributions relative to reference atoms: (reference = -12877847.605335)

Kinetic:       -215.686473
Potential:      +93.074972
External:        +0.000000
XC:            -104.129544
Entropy (-ST):   -2.246175
Local:           -6.997471
--------------------------
Free energy:   -235.984690
Extrapolated:  -234.861603

Fermi level: 1.03845

Showing only first 2 kpts
 Kpt  Band  Eigenvalues  Occupancy
  0   359      1.02371    0.13420
  0   360      1.03828    0.12511
  0   361      1.07081    0.10495
  0   362      1.08010    0.09934

  1   359      0.93205    0.18587
  1   360      0.96157    0.17082
  1   361      0.97893    0.16114
  1   362      1.02012    0.13642



Forces in eV/Ang:
  0 Pd   -0.12832    0.32855   -0.35432
  1 Ir    0.98637    0.70339    0.62142
  2 Ru   -1.08817    0.28307    0.68710
  3 Ru    0.42286    0.29209    1.61780
  4 Ir   -0.57553   -0.81032    1.17113
  5 Pt    0.14446    0.15185    0.05801
  6 Pd   -0.50274   -0.41949   -0.23770
  7 Pd    0.38290   -0.26790   -0.56829
  8 Ru    0.35099   -0.14731    0.54286
  9 Ag   -0.25208   -0.09336    0.05963
 10 Ag   -0.02137   -0.12174    0.06499
 11 Ag    0.08170   -0.16979   -0.13208
 12 Pt    0.05590    0.76789   -0.51422
 13 Pt    0.08960    0.53960   -0.71849
 14 Pt   -0.07115    0.19655   -0.16937
 15 Ru   -0.40831   -0.74166   -0.97534
 16 Pt   -0.39242    0.21248   -0.20302
 17 Ir    0.90770   -0.12884   -1.01914
 18 Pt   -0.03138    0.06360   -0.09886
 19 Ag   -0.00472    0.00221   -0.03696
 20 Pd   -0.00297    0.00571   -0.02106
 21 Ag   -0.00699   -0.02933   -0.01712
 22 Ru    0.11805   -0.03459    0.15108
 23 Pd   -0.06189   -0.01048    0.00549
 24 Ir   -0.03996    0.00714    0.02037
 25 Ir    0.00867   -0.12729    0.19122
 26 Pt    0.07988   -0.07161   -0.17298
 27 Ir   -0.14323    0.09229   -0.15815
 28 Pd    0.04300    0.05197   -0.09762
 29 Ag    0.05035    0.17822   -0.36343
 30 Pd   -0.23112    0.12745    0.45405
 31 Pd    0.21110   -0.06226   -0.32402
 32 Pd    0.11667    0.09258    0.11904
 33 Ru   -0.04018   -0.09168    0.06614
 34 Pd    0.06112   -0.13387   -0.16322
 35 Ir   -0.11635   -0.24373    0.59382
 36 Ir   -0.21982   -0.22066    0.15457
 37 Pt    0.27896   -0.00370   -0.00469
 38 Ag    0.31784   -0.47783    0.06987
 39 Pd    0.09057    0.04104   -0.07113
 40 Pd   -0.10428   -0.00363    0.03997
 41 Ir    0.51760    1.01692    0.25519
 42 Ag   -0.02398    0.37359   -0.03375
 43 Ir    0.96592   -0.10415    0.21688
 44 Ir   -3.08720   -1.52590   -3.08519
 45 O     1.26291    0.54187    2.29805

System changes: positions 

Initializing position-dependent things.

Density initialized from wave functions
                                             
                                             
                                             
                                             
                                   O         
                                             
                  Ag                         
                         Ir    Ir            
            Pd      Pd     Ir   Ir           
                   Ru     Pd                 
        Ir   PPt    PAg    Pd                
                                             
        Ir     Pd    IAg    Ir     Pt        
                Ag     Ru     Pd             
                                             
           Pt     Ag    PPd    Ir            
                                             
            Pt     Pt    PPt    Ru           
       Ag     Ag    IAg    Pt                
                                             
        Pd     Ir     Ru                     
                                             
                                             
                                             
                                             
                                             

Positions:
   0 Pd     0.000000    1.624086   10.000000    ( 0.0000,  0.0000,  0.0000)
   1 Ir     2.812999    1.624086   10.000000    ( 0.0000,  0.0000,  0.0000)
   2 Ru     5.625998    1.624086   10.000000    ( 0.0000,  0.0000,  0.0000)
   3 Ru     1.406500    4.060215   10.000000    ( 0.0000,  0.0000,  0.0000)
   4 Ir     4.219499    4.060215   10.000000    ( 0.0000,  0.0000,  0.0000)
   5 Pt     7.032498    4.060215   10.000000    ( 0.0000,  0.0000,  0.0000)
   6 Pd     2.812999    6.496343   10.000000    ( 0.0000,  0.0000,  0.0000)
   7 Pd     5.625998    6.496343   10.000000    ( 0.0000,  0.0000,  0.0000)
   8 Ru     8.438997    6.496343   10.000000    ( 0.0000,  0.0000,  0.0000)
   9 Ag     0.000000    0.000000   12.296804    ( 0.0000,  0.0000,  0.0000)
  10 Ag     2.812999    0.000000   12.296804    ( 0.0000,  0.0000,  0.0000)
  11 Ag     5.625998    0.000000   12.296804    ( 0.0000,  0.0000,  0.0000)
  12 Pt     1.406500    2.436129   12.296804    ( 0.0000,  0.0000,  0.0000)
  13 Pt     4.219499    2.436129   12.296804    ( 0.0000,  0.0000,  0.0000)
  14 Pt     7.032498    2.436129   12.296804    ( 0.0000,  0.0000,  0.0000)
  15 Ru     2.812999    4.872257   12.296804    ( 0.0000,  0.0000,  0.0000)
  16 Pt     5.625998    4.872257   12.296804    ( 0.0000,  0.0000,  0.0000)
  17 Ir     8.438997    4.872257   12.296804    ( 0.0000,  0.0000,  0.0000)
  18 Pt     1.330815    0.737572   14.656831    ( 0.0000,  0.0000,  0.0000)
  19 Ag     4.182114    0.788001   14.649208    ( 0.0000,  0.0000,  0.0000)
  20 Pd     6.999520    0.859209   14.622721    ( 0.0000,  0.0000,  0.0000)
  21 Ag     2.799413    3.198514   14.645435    ( 0.0000,  0.0000,  0.0000)
  22 Ru     5.648083    3.370610   14.458055    ( 0.0000,  0.0000,  0.0000)
  23 Pd     8.446569    3.204475   14.575693    ( 0.0000,  0.0000,  0.0000)
  24 Ir     4.208583    5.607953   14.568285    ( 0.0000,  0.0000,  0.0000)
  25 Ir     7.025753    5.574025   14.565614    ( 0.0000,  0.0000,  0.0000)
  26 Pt     9.859758    5.666104   14.597020    ( 0.0000,  0.0000,  0.0000)
  27 Ir    -0.069987    1.506419   16.935574    ( 0.0000,  0.0000,  0.0000)
  28 Pd     2.749843    1.588013   16.985160    ( 0.0000,  0.0000,  0.0000)
  29 Ag     5.528633    1.586312   16.925541    ( 0.0000,  0.0000,  0.0000)
  30 Pd     1.402150    4.025348   16.949305    ( 0.0000,  0.0000,  0.0000)
  31 Pd     4.182260    4.109315   16.906050    ( 0.0000,  0.0000,  0.0000)
  32 Pd     7.032958    3.987150   16.770101    ( 0.0000,  0.0000,  0.0000)
  33 Ru     2.838925    6.536066   16.746922    ( 0.0000,  0.0000,  0.0000)
  34 Pd     5.665946    6.455915   16.789798    ( 0.0000,  0.0000,  0.0000)
  35 Ir     8.550066    6.366878   16.889445    ( 0.0000,  0.0000,  0.0000)
  36 Ir     0.090887   -0.024294   18.964969    ( 0.0000,  0.0000,  0.0000)
  37 Pt     2.773991   -0.076999   19.125607    ( 0.0000,  0.0000,  0.0000)
  38 Ag     5.679716    0.139521   19.390551    ( 0.0000,  0.0000,  0.0000)
  39 Pd     1.345576    2.353754   19.273157    ( 0.0000,  0.0000,  0.0000)
  40 Pd     4.320552    2.519493   19.244322    ( 0.0000,  0.0000,  0.0000)
  41 Ir     7.158154    2.502859   19.006010    ( 0.0000,  0.0000,  0.0000)
  42 Ag     2.899733    4.848694   19.376527    ( 0.0000,  0.0000,  0.0000)
  43 Ir     5.704407    4.903548   19.017138    ( 0.0000,  0.0000,  0.0000)
  44 Ir     8.369782    4.897520   19.244479    ( 0.0000,  0.0000,  0.0000)
  45 O      9.611820    5.538581   20.611899    ( 0.0000,  0.0000,  0.0000)

Unit cell:
           periodic     x           y           z      points  spacing
  1. axis:    yes    8.465341    0.000000    0.000000    35     0.2095
  2. axis:    yes    4.232670    7.331200    0.000000    35     0.2095
  3. axis:    no     0.000000    0.000000   29.187217   135     0.2162

  Lengths:   8.465341   8.465341  29.187217
  Angles:   90.000000  90.000000  60.000000

Effective grid spacing dv^(1/3) = 0.2221

                     log10-error:    total        iterations:
           time      wfs    density  energy       fermi  poisson
iter:   1  16:38:54  -1.55   +inf  -246.769674    32            
iter:   2  16:39:52  -0.98  -1.72  -437.162453    37            
iter:   3  16:40:49  -1.35  -1.10  -238.183063    36            
iter:   4  16:41:46  -2.12  -1.99  -241.526762    3             
iter:   5  16:42:45  -2.68  -1.75  -235.716904    3             
iter:   6  16:43:41  -3.40  -2.32  -235.410525    3             
iter:   7  16:44:39  -3.67  -2.41  -235.172490    2             
iter:   8  16:45:37  -3.74  -2.66  -235.096092    3             
iter:   9  16:46:34  -4.38  -2.78  -235.082798    3             
iter:  10  16:47:31  -3.79  -2.82  -235.063322    3             
iter:  11  16:49:00  -3.84  -2.78  -235.181900    3             
iter:  12  16:50:28  -4.40  -2.51  -235.024723    3             
iter:  13  16:51:55  -4.97  -3.03  -235.021613    3             
iter:  14  16:53:23  -5.37  -3.04  -235.018022    2             
iter:  15  16:54:51  -4.94  -3.10  -235.016544    2             
iter:  16  16:56:19  -5.51  -3.29  -235.011667    3             
iter:  17  16:57:47  -5.96  -3.47  -235.013783    2             
iter:  18  16:59:15  -5.61  -3.27  -235.012623    2             
iter:  19  17:00:43  -5.78  -3.55  -235.011614    2             
iter:  20  17:02:11  -5.83  -3.63  -235.012447    2             
iter:  21  17:03:29  -5.83  -3.65  -235.013153    2             
iter:  22  17:04:42  -5.97  -3.55  -235.010914    2             
iter:  23  17:05:55  -5.49  -3.77  -235.022006    2             
iter:  24  17:07:09  -5.76  -3.11  -235.011378    2             
iter:  25  17:08:23  -6.74  -3.97  -235.011042    2             
iter:  26  17:09:36  -7.28  -4.08  -235.011133    2             
iter:  27  17:10:49  -7.13  -4.23  -235.011104    2             
iter:  28  17:12:03  -7.24  -4.31  -235.010928    2             
iter:  29  17:13:17  -6.80  -4.33  -235.011035    2             
iter:  30  17:14:29  -6.94  -4.22  -235.011489    2             
iter:  31  17:15:44  -6.92  -3.93  -235.011000    2             
iter:  32  17:16:57  -7.63  -4.67  -235.011057    2             

Converged after 32 iterations.

Dipole moment: (14.393731, 9.910569, -0.174957) |e|*Ang

Energy contributions relative to reference atoms: (reference = -12877847.605335)

Kinetic:       -230.704059
Potential:     +105.954302
External:        +0.000000
XC:            -102.237434
Entropy (-ST):   -2.269845
Local:           -6.888944
--------------------------
Free energy:   -236.145979
Extrapolated:  -235.011057

Fermi level: 0.97539

Showing only first 2 kpts
 Kpt  Band  Eigenvalues  Occupancy
  0   359      0.95405    0.13828
  0   360      0.97909    0.12269
  0   361      1.00283    0.10796
  0   362      1.02115    0.09689

  1   359      0.87937    0.18079
  1   360      0.90862    0.16525
  1   361      0.92647    0.15498
  1   362      0.95215    0.13946



Forces in eV/Ang:
  0 Pd   -0.12580    0.32636   -0.35465
  1 Ir    0.97802    0.70071    0.62014
  2 Ru   -1.08545    0.28367    0.68632
  3 Ru    0.42012    0.29199    1.61549
  4 Ir   -0.57045   -0.80607    1.17182
  5 Pt    0.14531    0.15316    0.05692
  6 Pd   -0.50065   -0.41821   -0.23917
  7 Pd    0.38189   -0.26715   -0.56975
  8 Ru    0.34874   -0.14903    0.54590
  9 Ag   -0.25109   -0.09331    0.05957
 10 Ag   -0.02210   -0.11637    0.06163
 11 Ag    0.08253   -0.16837   -0.13204
 12 Pt    0.06892    0.76522   -0.51997
 13 Pt    0.09647    0.54280   -0.71648
 14 Pt   -0.07903    0.19396   -0.17621
 15 Ru   -0.40593   -0.74136   -0.96519
 16 Pt   -0.39452    0.20474   -0.18710
 17 Ir    0.90676   -0.11730   -1.03006
 18 Pt   -0.02484    0.04121   -0.06515
 19 Ag    0.00040   -0.02473   -0.00632
 20 Pd   -0.00669   -0.00354   -0.01156
 21 Ag   -0.01203   -0.01810   -0.00477
 22 Ru    0.04673   -0.03065    0.09400
 23 Pd   -0.06148   -0.02018    0.02405
 24 Ir   -0.01507   -0.00440    0.01682
 25 Ir   -0.00459   -0.10597    0.16760
 26 Pt    0.05664   -0.04957   -0.11176
 27 Ir   -0.06372    0.06011   -0.12135
 28 Pd    0.03022    0.02194   -0.07703
 29 Ag    0.02807    0.10542   -0.21469
 30 Pd   -0.19589    0.10233    0.30061
 31 Pd    0.14203   -0.02988   -0.16912
 32 Pd    0.16610    0.12416    0.18670
 33 Ru   -0.04610   -0.07682    0.03180
 34 Pd    0.05123   -0.07074   -0.12007
 35 Ir   -0.09998   -0.27702    0.44287
 36 Ir   -0.05255   -0.12937    0.03201
 37 Pt    0.09234    0.08421   -0.05285
 38 Ag    0.29946   -0.13418    0.12278
 39 Pd    0.03451   -0.02294   -0.06132
 40 Pd   -0.04528    0.00316   -0.00827
 41 Ir    0.30942    0.67172    0.15403
 42 Ag    0.11873    0.20288    0.05570
 43 Ir    0.70333   -0.09921    0.06095
 44 Ir   -0.04416   -0.05863    0.44325
 45 O    -1.36766   -0.82719   -1.22141

System changes: positions 

Initializing position-dependent things.

Density initialized from wave functions
                                             
                                             
                                             
                                             
                                             
                                  O          
                  Ag           Ir            
                         Ir                  
            Pd     RPd    PIr   Ir           
                     Ag                      
        Ir   PPt    Pd     Pd                
               Pd                            
        Ir           IAg    Ir     Pt        
                Ag     Ru     Pd             
                                             
           Pt     Ag    PPd    Ir            
                                             
            Pt     Pt    PPt    Ru           
       Ag     Ag    IAg    Pt                
                                             
        Pd     Ir     Ru                     
                                             
                                             
                                             
                                             
                                             

Positions:
   0 Pd     0.000000    1.624086   10.000000    ( 0.0000,  0.0000,  0.0000)
   1 Ir     2.812999    1.624086   10.000000    ( 0.0000,  0.0000,  0.0000)
   2 Ru     5.625998    1.624086   10.000000    ( 0.0000,  0.0000,  0.0000)
   3 Ru     1.406500    4.060215   10.000000    ( 0.0000,  0.0000,  0.0000)
   4 Ir     4.219499    4.060215   10.000000    ( 0.0000,  0.0000,  0.0000)
   5 Pt     7.032498    4.060215   10.000000    ( 0.0000,  0.0000,  0.0000)
   6 Pd     2.812999    6.496343   10.000000    ( 0.0000,  0.0000,  0.0000)
   7 Pd     5.625998    6.496343   10.000000    ( 0.0000,  0.0000,  0.0000)
   8 Ru     8.438997    6.496343   10.000000    ( 0.0000,  0.0000,  0.0000)
   9 Ag     0.000000    0.000000   12.296804    ( 0.0000,  0.0000,  0.0000)
  10 Ag     2.812999    0.000000   12.296804    ( 0.0000,  0.0000,  0.0000)
  11 Ag     5.625998    0.000000   12.296804    ( 0.0000,  0.0000,  0.0000)
  12 Pt     1.406500    2.436129   12.296804    ( 0.0000,  0.0000,  0.0000)
  13 Pt     4.219499    2.436129   12.296804    ( 0.0000,  0.0000,  0.0000)
  14 Pt     7.032498    2.436129   12.296804    ( 0.0000,  0.0000,  0.0000)
  15 Ru     2.812999    4.872257   12.296804    ( 0.0000,  0.0000,  0.0000)
  16 Pt     5.625998    4.872257   12.296804    ( 0.0000,  0.0000,  0.0000)
  17 Ir     8.438997    4.872257   12.296804    ( 0.0000,  0.0000,  0.0000)
  18 Pt     1.329335    0.739268   14.653058    ( 0.0000,  0.0000,  0.0000)
  19 Ag     4.182299    0.784693   14.650082    ( 0.0000,  0.0000,  0.0000)
  20 Pd     6.998464    0.858022   14.622864    ( 0.0000,  0.0000,  0.0000)
  21 Ag     2.798272    3.197473   14.644989    ( 0.0000,  0.0000,  0.0000)
  22 Ru     5.646298    3.367497   14.461130    ( 0.0000,  0.0000,  0.0000)
  23 Pd     8.440574    3.201837   14.579253    ( 0.0000,  0.0000,  0.0000)
  24 Ir     4.209486    5.605858   14.568986    ( 0.0000,  0.0000,  0.0000)
  25 Ir     7.023473    5.566804   14.576360    ( 0.0000,  0.0000,  0.0000)
  26 Pt     9.863592    5.663421   14.590831    ( 0.0000,  0.0000,  0.0000)
  27 Ir    -0.070962    1.509649   16.927759    ( 0.0000,  0.0000,  0.0000)
  28 Pd     2.752545    1.587556   16.978825    ( 0.0000,  0.0000,  0.0000)
  29 Ag     5.528971    1.589306   16.916041    ( 0.0000,  0.0000,  0.0000)
  30 Pd     1.391452    4.029065   16.958092    ( 0.0000,  0.0000,  0.0000)
  31 Pd     4.188902    4.108316   16.901181    ( 0.0000,  0.0000,  0.0000)
  32 Pd     7.050611    3.999878   16.791593    ( 0.0000,  0.0000,  0.0000)
  33 Ru     2.834263    6.530160   16.746481    ( 0.0000,  0.0000,  0.0000)
  34 Pd     5.670023    6.453913   16.781602    ( 0.0000,  0.0000,  0.0000)
  35 Ir     8.543697    6.347680   16.903856    ( 0.0000,  0.0000,  0.0000)
  36 Ir     0.097521   -0.029739   18.961235    ( 0.0000,  0.0000,  0.0000)
  37 Pt     2.769716   -0.065687   19.117446    ( 0.0000,  0.0000,  0.0000)
  38 Ag     5.702465    0.173851   19.392139    ( 0.0000,  0.0000,  0.0000)
  39 Pd     1.346020    2.344843   19.267826    ( 0.0000,  0.0000,  0.0000)
  40 Pd     4.319784    2.520000   19.239982    ( 0.0000,  0.0000,  0.0000)
  41 Ir     7.170222    2.536583   19.010476    ( 0.0000,  0.0000,  0.0000)
  42 Ag     2.936079    4.845234   19.378661    ( 0.0000,  0.0000,  0.0000)
  43 Ir     5.744901    4.894605   19.013191    ( 0.0000,  0.0000,  0.0000)
  44 Ir     8.397394    4.910270   19.349789    ( 0.0000,  0.0000,  0.0000)
  45 O      9.468322    5.440718   20.512746    ( 0.0000,  0.0000,  0.0000)

Unit cell:
           periodic     x           y           z      points  spacing
  1. axis:    yes    8.465341    0.000000    0.000000    35     0.2095
  2. axis:    yes    4.232670    7.331200    0.000000    35     0.2095
  3. axis:    no     0.000000    0.000000   29.187217   135     0.2162

  Lengths:   8.465341   8.465341  29.187217
  Angles:   90.000000  90.000000  60.000000

Effective grid spacing dv^(1/3) = 0.2221

                     log10-error:    total        iterations:
           time      wfs    density  energy       fermi  poisson
iter:   1  17:18:43  -1.90   +inf  -245.915514    4             
iter:   2  17:19:57  -0.95  -1.74  -387.513803    35            
iter:   3  17:21:11  -1.33  -1.15  -249.120061    38            
iter:   4  17:22:25  -2.21  -1.65  -238.103925    34            
iter:   5  17:23:38  -2.97  -1.97  -236.098020    2             
iter:   6  17:24:51  -3.06  -2.18  -235.071719    3             
iter:   7  17:26:06  -3.64  -2.55  -234.938392    2             
iter:   8  17:27:13  -3.81  -2.70  -234.904268    3             
iter:   9  17:28:11  -4.18  -2.68  -234.931636    2             
iter:  10  17:29:09  -4.16  -2.62  -234.916587    2             
iter:  11  17:30:07  -3.93  -2.59  -234.849384    3             
iter:  12  17:31:05  -4.23  -2.80  -234.807752    3             
iter:  13  17:32:03  -4.22  -2.96  -234.815456    3             
iter:  14  17:33:02  -4.85  -2.87  -234.794579    2             
iter:  15  17:34:00  -5.12  -3.07  -234.791847    2             
iter:  16  17:34:58  -4.83  -3.09  -234.794437    3             
iter:  17  17:35:56  -5.45  -3.08  -234.785346    2             
iter:  18  17:36:54  -5.46  -3.35  -234.782483    3             
iter:  19  17:37:52  -5.95  -3.52  -234.783289    2             
iter:  20  17:38:50  -5.43  -3.59  -234.783864    2             
iter:  21  17:39:49  -5.87  -3.43  -234.782653    2             
iter:  22  17:40:47  -6.26  -3.63  -234.782767    2             
iter:  23  17:41:47  -6.02  -3.71  -234.783269    2             
iter:  24  17:42:46  -6.80  -3.84  -234.782513    2             
iter:  25  17:43:45  -5.98  -3.95  -234.782933    2             
iter:  26  17:45:09  -6.52  -4.08  -234.782555    2             
iter:  27  17:46:37  -7.16  -4.27  -234.782634    2             
iter:  28  17:48:06  -7.23  -4.30  -234.782477    2             
iter:  29  17:49:34  -7.61  -4.45  -234.782540    2             

Converged after 29 iterations.

Dipole moment: (11.460693, 8.421805, -0.001409) |e|*Ang

Energy contributions relative to reference atoms: (reference = -12877847.605335)

Kinetic:       -208.069455
Potential:      +86.483543
External:        +0.000000
XC:            -105.075856
Entropy (-ST):   -2.225048
Local:           -7.008248
--------------------------
Free energy:   -235.895064
Extrapolated:  -234.782540

Fermi level: 1.06620

Showing only first 2 kpts
 Kpt  Band  Eigenvalues  Occupancy
  0   359      1.05047    0.13481
  0   360      1.06532    0.12555
  0   361      1.09829    0.10511
  0   362      1.10674    0.10001

  1   359      0.95596    0.18768
  1   360      0.98892    0.17103
  1   361      1.00717    0.16086
  1   362      1.04952    0.13540



Forces in eV/Ang:
  0 Pd   -0.12916    0.32928   -0.35734
  1 Ir    0.99049    0.70662    0.61560
  2 Ru   -1.08624    0.28068    0.68121
  3 Ru    0.42371    0.28932    1.61232
  4 Ir   -0.58037   -0.80771    1.17216
  5 Pt    0.14487    0.15043    0.05385
  6 Pd   -0.50538   -0.41897   -0.23904
  7 Pd    0.38321   -0.26708   -0.57031
  8 Ru    0.35134   -0.14718    0.54352
  9 Ag   -0.25519   -0.10031    0.05121
 10 Ag   -0.01784   -0.13685    0.07682
 11 Ag    0.07768   -0.16630   -0.14821
 12 Pt    0.05646    0.76849   -0.52540
 13 Pt    0.09896    0.54616   -0.72095
 14 Pt   -0.07844    0.20093   -0.17973
 15 Ru   -0.40125   -0.74260   -0.97890
 16 Pt   -0.37615    0.19877   -0.16897
 17 Ir    0.89902   -0.12221   -1.01330
 18 Pt   -0.01760    0.03826   -0.07406
 19 Ag   -0.01524   -0.07541   -0.00482
 20 Pd   -0.00729   -0.03026   -0.03459
 21 Ag   -0.03076   -0.00899    0.00713
 22 Ru    0.07230   -0.02060    0.07541
 23 Pd   -0.02365    0.00226    0.01945
 24 Ir   -0.03754    0.00812   -0.00739
 25 Ir    0.01338   -0.07685    0.07537
 26 Pt    0.00947   -0.04404   -0.04212
 27 Ir   -0.10991   -0.01638    0.03346
 28 Pd    0.01656    0.04207   -0.07470
 29 Ag    0.08214    0.11935   -0.14151
 30 Pd   -0.05219    0.04615    0.31402
 31 Pd    0.16445   -0.04076   -0.17553
 32 Pd    0.06093    0.02735   -0.03869
 33 Ru   -0.03298   -0.05385    0.08597
 34 Pd   -0.00691   -0.03075   -0.04013
 35 Ir   -0.00489   -0.02723    0.33682
 36 Ir   -0.06985   -0.12596   -0.02558
 37 Pt    0.16314    0.14978   -0.05151
 38 Ag    0.34241   -0.03162   -0.11782
 39 Pd    0.17404   -0.07154   -0.08840
 40 Pd   -0.01569   -0.02762   -0.02186
 41 Ir    0.22027    0.60391    0.13636
 42 Ag    0.25335    0.21196   -0.18309
 43 Ir    0.52292   -0.11107    0.15930
 44 Ir   -4.75404   -2.43099   -5.03980
 45 O     2.97350    1.40521    4.92692

System changes: positions 

Initializing position-dependent things.

Density initialized from wave functions
                                             
                                             
                                             
                                             
                                  O          
                                             
                  Ag           Ir            
                         Ir                  
            Pd      Pd     Ir   Ir           
                   RuAg   Pd                 
        Ir   PPt    Pd     Pd                
               Pd                            
        Ir           IAg    Ir     Pt        
                Ag     Ru     Pd             
                                             
           Pt     Ag    PPd    Ir            
                                             
            Pt     Pt    PPt    Ru           
       Ag     Ag    IAg    Pt                
                                             
        Pd     Ir     Ru                     
                                             
                                             
                                             
                                             
                                             

Positions:
   0 Pd     0.000000    1.624086   10.000000    ( 0.0000,  0.0000,  0.0000)
   1 Ir     2.812999    1.624086   10.000000    ( 0.0000,  0.0000,  0.0000)
   2 Ru     5.625998    1.624086   10.000000    ( 0.0000,  0.0000,  0.0000)
   3 Ru     1.406500    4.060215   10.000000    ( 0.0000,  0.0000,  0.0000)
   4 Ir     4.219499    4.060215   10.000000    ( 0.0000,  0.0000,  0.0000)
   5 Pt     7.032498    4.060215   10.000000    ( 0.0000,  0.0000,  0.0000)
   6 Pd     2.812999    6.496343   10.000000    ( 0.0000,  0.0000,  0.0000)
   7 Pd     5.625998    6.496343   10.000000    ( 0.0000,  0.0000,  0.0000)
   8 Ru     8.438997    6.496343   10.000000    ( 0.0000,  0.0000,  0.0000)
   9 Ag     0.000000    0.000000   12.296804    ( 0.0000,  0.0000,  0.0000)
  10 Ag     2.812999    0.000000   12.296804    ( 0.0000,  0.0000,  0.0000)
  11 Ag     5.625998    0.000000   12.296804    ( 0.0000,  0.0000,  0.0000)
  12 Pt     1.406500    2.436129   12.296804    ( 0.0000,  0.0000,  0.0000)
  13 Pt     4.219499    2.436129   12.296804    ( 0.0000,  0.0000,  0.0000)
  14 Pt     7.032498    2.436129   12.296804    ( 0.0000,  0.0000,  0.0000)
  15 Ru     2.812999    4.872257   12.296804    ( 0.0000,  0.0000,  0.0000)
  16 Pt     5.625998    4.872257   12.296804    ( 0.0000,  0.0000,  0.0000)
  17 Ir     8.438997    4.872257   12.296804    ( 0.0000,  0.0000,  0.0000)
  18 Pt     1.330225    0.738248   14.655327    ( 0.0000,  0.0000,  0.0000)
  19 Ag     4.182188    0.786683   14.649556    ( 0.0000,  0.0000,  0.0000)
  20 Pd     6.999099    0.858735   14.622778    ( 0.0000,  0.0000,  0.0000)
  21 Ag     2.798958    3.198099   14.645258    ( 0.0000,  0.0000,  0.0000)
  22 Ru     5.647371    3.369369   14.459280    ( 0.0000,  0.0000,  0.0000)
  23 Pd     8.444179    3.203423   14.577112    ( 0.0000,  0.0000,  0.0000)
  24 Ir     4.208943    5.607118   14.568564    ( 0.0000,  0.0000,  0.0000)
  25 Ir     7.024844    5.571147   14.569898    ( 0.0000,  0.0000,  0.0000)
  26 Pt     9.861287    5.665034   14.594553    ( 0.0000,  0.0000,  0.0000)
  27 Ir    -0.070376    1.507707   16.932459    ( 0.0000,  0.0000,  0.0000)
  28 Pd     2.750920    1.587831   16.982635    ( 0.0000,  0.0000,  0.0000)
  29 Ag     5.528768    1.587505   16.921754    ( 0.0000,  0.0000,  0.0000)
  30 Pd     1.397885    4.026830   16.952808    ( 0.0000,  0.0000,  0.0000)
  31 Pd     4.184908    4.108917   16.904109    ( 0.0000,  0.0000,  0.0000)
  32 Pd     7.039995    3.992224   16.778668    ( 0.0000,  0.0000,  0.0000)
  33 Ru     2.837066    6.533712   16.746746    ( 0.0000,  0.0000,  0.0000)
  34 Pd     5.667571    6.455117   16.786531    ( 0.0000,  0.0000,  0.0000)
  35 Ir     8.547527    6.359225   16.895190    ( 0.0000,  0.0000,  0.0000)
  36 Ir     0.093532   -0.026465   18.963480    ( 0.0000,  0.0000,  0.0000)
  37 Pt     2.772287   -0.072490   19.122353    ( 0.0000,  0.0000,  0.0000)
  38 Ag     5.688784    0.153206   19.391184    ( 0.0000,  0.0000,  0.0000)
  39 Pd     1.345753    2.350202   19.271032    ( 0.0000,  0.0000,  0.0000)
  40 Pd     4.320246    2.519695   19.242592    ( 0.0000,  0.0000,  0.0000)
  41 Ir     7.162965    2.516302   19.007790    ( 0.0000,  0.0000,  0.0000)
  42 Ag     2.914222    4.847315   19.377378    ( 0.0000,  0.0000,  0.0000)
  43 Ir     5.720549    4.899983   19.015564    ( 0.0000,  0.0000,  0.0000)
  44 Ir     8.380789    4.902603   19.286460    ( 0.0000,  0.0000,  0.0000)
  45 O      9.554616    5.499570   20.572373    ( 0.0000,  0.0000,  0.0000)

Unit cell:
           periodic     x           y           z      points  spacing
  1. axis:    yes    8.465341    0.000000    0.000000    35     0.2095
  2. axis:    yes    4.232670    7.331200    0.000000    35     0.2095
  3. axis:    no     0.000000    0.000000   29.187217   135     0.2162

  Lengths:   8.465341   8.465341  29.187217
  Angles:   90.000000  90.000000  60.000000

Effective grid spacing dv^(1/3) = 0.2221

                     log10-error:    total        iterations:
           time      wfs    density  energy       fermi  poisson
iter:   1  17:51:41  -1.71   +inf  -243.091376    37            
iter:   2  17:53:09  -1.50  -1.89  -324.942605    3             
iter:   3  17:54:37  -1.58  -1.26  -242.036181    37            
iter:   4  17:56:05  -2.37  -1.76  -239.844350    3             
iter:   5  17:57:33  -2.64  -1.87  -235.877661    3             
iter:   6  17:59:01  -3.41  -2.44  -235.479286    3             
iter:   7  18:00:29  -3.74  -2.52  -235.299722    3             
iter:   8  18:01:46  -3.71  -2.74  -235.212119    3             
iter:   9  18:02:59  -4.29  -2.89  -235.208353    2             
iter:  10  18:04:12  -4.14  -2.85  -235.443456    3             
iter:  11  18:05:26  -4.16  -2.41  -235.184584    3             
iter:  12  18:06:40  -4.24  -2.91  -235.185961    2             
iter:  13  18:07:52  -4.72  -2.84  -235.165986    3             
iter:  14  18:09:06  -4.99  -3.06  -235.159043    3             
iter:  15  18:10:19  -5.10  -3.14  -235.154988    2             
iter:  16  18:11:32  -5.50  -3.37  -235.157459    2             
iter:  17  18:12:46  -5.61  -3.18  -235.153251    2             
iter:  18  18:13:59  -6.09  -3.55  -235.152182    2             
iter:  19  18:15:13  -5.58  -3.62  -235.155831    2             
iter:  20  18:16:27  -6.18  -3.42  -235.152460    2             
iter:  21  18:17:41  -5.89  -3.69  -235.153914    2             
iter:  22  18:18:53  -5.77  -3.52  -235.156128    2             
iter:  23  18:20:07  -5.85  -3.32  -235.152884    2             
iter:  24  18:21:21  -6.51  -3.73  -235.152285    2             
iter:  25  18:22:33  -6.77  -3.86  -235.152417    2             
iter:  26  18:23:46  -6.20  -3.93  -235.151911    2             
iter:  27  18:25:00  -6.90  -3.75  -235.152090    2             
iter:  28  18:26:08  -6.62  -4.15  -235.152092    2             
iter:  29  18:27:05  -6.69  -3.92  -235.152228    2             
iter:  30  18:28:04  -6.46  -3.89  -235.151874    2             
iter:  31  18:29:01  -7.07  -4.24  -235.151912    2             
iter:  32  18:29:59  -7.42  -4.34  -235.151883    2             

Converged after 32 iterations.

Dipole moment: (13.187966, 9.294586, -0.112921) |e|*Ang

Energy contributions relative to reference atoms: (reference = -12877847.605335)

Kinetic:       -224.643300
Potential:     +100.656447
External:        +0.000000
XC:            -103.094654
Entropy (-ST):   -2.254823
Local:           -6.942964
--------------------------
Free energy:   -236.279295
Extrapolated:  -235.151883

Fermi level: 1.00853

Showing only first 2 kpts
 Kpt  Band  Eigenvalues  Occupancy
  0   359      0.99021    0.13642
  0   360      1.01031    0.12389
  0   361      1.03757    0.10697
  0   362      1.05220    0.09813

  1   359      0.90762    0.18321
  1   360      0.93717    0.16780
  1   361      0.95519    0.15757
  1   362      0.98802    0.13777



Forces in eV/Ang:
  0 Pd   -0.12640    0.32851   -0.35181
  1 Ir    0.98266    0.70336    0.62391
  2 Ru   -1.08623    0.28332    0.69107
  3 Ru    0.42063    0.29106    1.61756
  4 Ir   -0.57378   -0.80594    1.17676
  5 Pt    0.14505    0.15290    0.05910
  6 Pd   -0.50286   -0.41980   -0.23548
  7 Pd    0.38276   -0.26827   -0.56680
  8 Ru    0.34893   -0.14900    0.54894
  9 Ag   -0.25302   -0.09598    0.05631
 10 Ag   -0.02066   -0.12373    0.06678
 11 Ag    0.08095   -0.16799   -0.13790
 12 Pt    0.06372    0.76762   -0.52033
 13 Pt    0.09736    0.54532   -0.71589
 14 Pt   -0.07829    0.19706   -0.17660
 15 Ru   -0.40490   -0.74348   -0.96866
 16 Pt   -0.38846    0.20173   -0.18115
 17 Ir    0.90534   -0.12172   -1.02378
 18 Pt   -0.02337    0.04232   -0.06278
 19 Ag   -0.00571   -0.04355   -0.00139
 20 Pd   -0.00618   -0.01220   -0.01720
 21 Ag   -0.01905   -0.01366    0.00301
 22 Ru    0.05690   -0.02493    0.09248
 23 Pd   -0.04764   -0.01202    0.02642
 24 Ir   -0.02458   -0.00104    0.01183
 25 Ir    0.00167   -0.09936    0.14270
 26 Pt    0.03865   -0.05073   -0.08184
 27 Ir   -0.07954    0.02975   -0.06263
 28 Pd    0.02544    0.02954   -0.07614
 29 Ag    0.04922    0.11659   -0.18411
 30 Pd   -0.13859    0.08021    0.30278
 31 Pd    0.15827   -0.03643   -0.17138
 32 Pd    0.11924    0.08618    0.09843
 33 Ru   -0.03776   -0.06782    0.05102
 34 Pd    0.03073   -0.05573   -0.08705
 35 Ir   -0.06651   -0.17797    0.39960
 36 Ir   -0.04439   -0.12065   -0.00236
 37 Pt    0.11885    0.11287   -0.04676
 38 Ag    0.30263   -0.11452    0.03864
 39 Pd    0.08369   -0.03227   -0.06345
 40 Pd   -0.03129   -0.00740   -0.01929
 41 Ir    0.27240    0.65635    0.15605
 42 Ag    0.14071    0.20072   -0.02864
 43 Ir    0.64594   -0.11248    0.09753
 44 Ir   -0.98915   -0.56225   -0.69678
 45 O    -0.45348   -0.36462    0.07866

System changes: positions 

Initializing position-dependent things.

Density initialized from wave functions
                                            
                                            
                                            
                                            
                                 O          
                                            
                 Ag     Ir    Ir            
                                            
            Pd    RPd    PIr    Ir          
       Ir    PPt     Ag                     
                    Pd     Pd               
        Ir     Pd     Ag          Pt        
                     Ir     Ir              
                Ag     Ru     Pd            
           Pt     Ag     Pd                 
                 Ru     Pt     Ir           
            Pt     Pt     Pt                
                  Pd     Pd    Ru           
       Ag    RAg    IAg    Pt               
        Pd     Ir     Ru                    
                                            
                                            
                                            
                                            
                                            

Positions:
   0 Pd     0.000000    1.624086   10.000000    ( 0.0000,  0.0000,  0.0000)
   1 Ir     2.812999    1.624086   10.000000    ( 0.0000,  0.0000,  0.0000)
   2 Ru     5.625998    1.624086   10.000000    ( 0.0000,  0.0000,  0.0000)
   3 Ru     1.406500    4.060215   10.000000    ( 0.0000,  0.0000,  0.0000)
   4 Ir     4.219499    4.060215   10.000000    ( 0.0000,  0.0000,  0.0000)
   5 Pt     7.032498    4.060215   10.000000    ( 0.0000,  0.0000,  0.0000)
   6 Pd     2.812999    6.496343   10.000000    ( 0.0000,  0.0000,  0.0000)
   7 Pd     5.625998    6.496343   10.000000    ( 0.0000,  0.0000,  0.0000)
   8 Ru     8.438997    6.496343   10.000000    ( 0.0000,  0.0000,  0.0000)
   9 Ag     0.000000    0.000000   12.296804    ( 0.0000,  0.0000,  0.0000)
  10 Ag     2.812999    0.000000   12.296804    ( 0.0000,  0.0000,  0.0000)
  11 Ag     5.625998    0.000000   12.296804    ( 0.0000,  0.0000,  0.0000)
  12 Pt     1.406500    2.436129   12.296804    ( 0.0000,  0.0000,  0.0000)
  13 Pt     4.219499    2.436129   12.296804    ( 0.0000,  0.0000,  0.0000)
  14 Pt     7.032498    2.436129   12.296804    ( 0.0000,  0.0000,  0.0000)
  15 Ru     2.812999    4.872257   12.296804    ( 0.0000,  0.0000,  0.0000)
  16 Pt     5.625998    4.872257   12.296804    ( 0.0000,  0.0000,  0.0000)
  17 Ir     8.438997    4.872257   12.296804    ( 0.0000,  0.0000,  0.0000)
  18 Pt     1.327702    0.742125   14.648641    ( 0.0000,  0.0000,  0.0000)
  19 Ag     4.181672    0.780061   14.650635    ( 0.0000,  0.0000,  0.0000)
  20 Pd     6.997809    0.856414   14.621656    ( 0.0000,  0.0000,  0.0000)
  21 Ag     2.796431    3.196689   14.645493    ( 0.0000,  0.0000,  0.0000)
  22 Ru     5.649281    3.365489   14.466897    ( 0.0000,  0.0000,  0.0000)
  23 Pd     8.436909    3.200821   14.582018    ( 0.0000,  0.0000,  0.0000)
  24 Ir     4.207911    5.605290   14.569519    ( 0.0000,  0.0000,  0.0000)
  25 Ir     7.023169    5.559562   14.585892    ( 0.0000,  0.0000,  0.0000)
  26 Pt     9.865767    5.659780   14.586370    ( 0.0000,  0.0000,  0.0000)
  27 Ir    -0.076450    1.510350   16.925593    ( 0.0000,  0.0000,  0.0000)
  28 Pd     2.754496    1.589421   16.972726    ( 0.0000,  0.0000,  0.0000)
  29 Ag     5.533011    1.597118   16.905166    ( 0.0000,  0.0000,  0.0000)
  30 Pd     1.384250    4.033085   16.976990    ( 0.0000,  0.0000,  0.0000)
  31 Pd     4.200476    4.105654   16.890454    ( 0.0000,  0.0000,  0.0000)
  32 Pd     7.059915    4.006325   16.798475    ( 0.0000,  0.0000,  0.0000)
  33 Ru     2.831219    6.525166   16.750217    ( 0.0000,  0.0000,  0.0000)
  34 Pd     5.671710    6.451299   16.776370    ( 0.0000,  0.0000,  0.0000)
  35 Ir     8.540196    6.338177   16.926789    ( 0.0000,  0.0000,  0.0000)
  36 Ir     0.098067   -0.037327   18.957580    ( 0.0000,  0.0000,  0.0000)
  37 Pt     2.776102   -0.054030   19.112568    ( 0.0000,  0.0000,  0.0000)
  38 Ag     5.726297    0.181180   19.389240    ( 0.0000,  0.0000,  0.0000)
  39 Pd     1.353700    2.339454   19.262539    ( 0.0000,  0.0000,  0.0000)
  40 Pd     4.318801    2.519109   19.236753    ( 0.0000,  0.0000,  0.0000)
  41 Ir     7.186151    2.581374   19.020253    ( 0.0000,  0.0000,  0.0000)
  42 Ag     2.957488    4.854286   19.372453    ( 0.0000,  0.0000,  0.0000)
  43 Ir     5.788792    4.884793   19.019238    ( 0.0000,  0.0000,  0.0000)
  44 Ir     8.294500    4.852930   19.276532    ( 0.0000,  0.0000,  0.0000)
  45 O      9.453996    5.417646   20.566502    ( 0.0000,  0.0000,  0.0000)

Unit cell:
           periodic     x           y           z      points  spacing
  1. axis:    yes    8.465341    0.000000    0.000000    35     0.2095
  2. axis:    yes    4.232670    7.331200    0.000000    35     0.2095
  3. axis:    no     0.000000    0.000000   29.187217   135     0.2162

  Lengths:   8.465341   8.465341  29.187217
  Angles:   90.000000  90.000000  60.000000

Effective grid spacing dv^(1/3) = 0.2221

                     log10-error:    total        iterations:
           time      wfs    density  energy       fermi  poisson
iter:   1  18:31:23  -1.81   +inf  -245.563911    4             
iter:   2  18:32:21  -0.89  -1.72  -412.632874    37            
iter:   3  18:33:19  -1.45  -1.12  -243.607700    35            
iter:   4  18:34:17  -2.10  -1.76  -236.004976    33            
iter:   5  18:35:15  -3.20  -2.32  -235.647783    3             
iter:   6  18:36:14  -3.69  -2.50  -235.477986    2             
iter:   7  18:37:12  -3.90  -2.69  -235.413353    3             
iter:   8  18:38:10  -4.15  -2.85  -235.401527    2             
iter:   9  18:39:07  -4.04  -2.80  -235.447801    3             
iter:  10  18:40:30  -4.35  -2.69  -235.371724    3             
iter:  11  18:41:58  -4.36  -2.98  -235.375165    3             
iter:  12  18:43:26  -4.71  -2.97  -235.361317    2             
iter:  13  18:44:54  -5.15  -3.20  -235.361878    2             
iter:  14  18:46:22  -5.51  -3.19  -235.358915    2             
iter:  15  18:47:50  -5.01  -3.29  -235.363448    2             
iter:  16  18:49:18  -4.78  -3.17  -235.373221    3             
iter:  17  18:50:46  -5.11  -2.98  -235.358903    3             
iter:  18  18:52:14  -5.74  -3.41  -235.355975    2             
iter:  19  18:53:42  -6.34  -3.69  -235.355376    2             
iter:  20  18:55:10  -6.25  -3.78  -235.355284    2             
iter:  21  18:56:38  -6.18  -3.74  -235.354724    2             
iter:  22  18:58:06  -6.06  -3.91  -235.354509    2             
iter:  23  18:59:19  -5.93  -3.88  -235.355931    2             
iter:  24  19:00:33  -6.60  -3.85  -235.354657    2             
iter:  25  19:01:46  -7.23  -4.11  -235.354703    2             
iter:  26  19:02:59  -7.20  -4.37  -235.354806    2             
iter:  27  19:04:13  -7.31  -4.32  -235.354882    2             
iter:  28  19:05:27  -7.24  -4.30  -235.354814    2             
iter:  29  19:06:41  -7.75  -4.64  -235.354843    1             

Converged after 29 iterations.

Dipole moment: (9.412598, 7.716485, -0.113274) |e|*Ang

Energy contributions relative to reference atoms: (reference = -12877847.605335)

Kinetic:       -217.647632
Potential:      +94.402862
External:        +0.000000
XC:            -104.049386
Entropy (-ST):   -2.231111
Local:           -6.945132
--------------------------
Free energy:   -236.470398
Extrapolated:  -235.354843

Fermi level: 1.00885

Showing only first 2 kpts
 Kpt  Band  Eigenvalues  Occupancy
  0   359      0.99335    0.13467
  0   360      1.01121    0.12353
  0   361      1.03299    0.10998
  0   362      1.05446    0.09698

  1   359      0.90891    0.18274
  1   360      0.93479    0.16928
  1   361      0.95685    0.15679
  1   362      0.98958    0.13701



Forces in eV/Ang:
  0 Pd   -0.12552    0.32712   -0.35682
  1 Ir    0.98341    0.70524    0.61543
  2 Ru   -1.08139    0.28278    0.69052
  3 Ru    0.41763    0.28022    1.61707
  4 Ir   -0.57366   -0.79973    1.18043
  5 Pt    0.14326    0.15190    0.05512
  6 Pd   -0.49856   -0.41773   -0.23840
  7 Pd    0.38010   -0.26628   -0.56992
  8 Ru    0.34184   -0.14700    0.55363
  9 Ag   -0.25886   -0.10687    0.04627
 10 Ag   -0.01873   -0.15056    0.09849
 11 Ag    0.07520   -0.16274   -0.14778
 12 Pt    0.05169    0.76964   -0.51816
 13 Pt    0.10569    0.54207   -0.70052
 14 Pt   -0.08286    0.20110   -0.17739
 15 Ru   -0.39911   -0.74498   -0.96937
 16 Pt   -0.35752    0.18507   -0.12993
 17 Ir    0.89226   -0.12522   -1.00367
 18 Pt   -0.01281    0.01244   -0.02583
 19 Ag   -0.02045   -0.10072    0.01393
 20 Pd   -0.00902   -0.05283   -0.02417
 21 Ag   -0.03182   -0.00793    0.02724
 22 Ru    0.02177   -0.00365    0.03508
 23 Pd    0.00219   -0.00074    0.01873
 24 Ir   -0.03273    0.01398   -0.00871
 25 Ir    0.01179   -0.03200   -0.05600
 26 Pt   -0.04690   -0.03298    0.04590
 27 Ir   -0.02847   -0.08029    0.10754
 28 Pd    0.00959    0.05527   -0.07751
 29 Ag    0.08443    0.06154   -0.02402
 30 Pd    0.12391    0.00474    0.18826
 31 Pd    0.09263   -0.02670   -0.07992
 32 Pd    0.01321   -0.04880   -0.29101
 33 Ru   -0.03724   -0.00942    0.09919
 34 Pd   -0.05052    0.03960    0.02183
 35 Ir    0.11423    0.17194    0.16799
 36 Ir   -0.00979   -0.06703   -0.08126
 37 Pt    0.19509    0.12355   -0.01408
 38 Ag    0.21144   -0.34821    0.05367
 39 Pd    0.15509   -0.03008   -0.03138
 40 Pd   -0.00937   -0.06085   -0.04320
 41 Ir   -0.13589   -0.33659    0.03012
 42 Ag   -0.16068    0.27706    0.02604
 43 Ir   -0.53579    0.10835    0.08764
 44 Ir    0.43345    0.08302   -0.36619
 45 O    -0.40277   -0.22538   -0.02424

System changes: positions 

Initializing position-dependent things.

Density initialized from wave functions
                                            
                                            
                                            
                                            
                                 O          
                                            
                 Ag     Ir    Ir            
                                            
            Pd    RPd    PIr    Ir          
       Ir    PPt     Ag                     
                    Pd     Pd               
        Ir     Pd     Ag          Pt        
                     Ir     Ir              
                Ag     Ru     Pd            
           Pt     Ag     Pd                 
                 Ru     Pt     Ir           
            Pt     Pt     Pt                
                  Pd     Pd     Ru          
       Ag    RAg    IAg    Pt               
        Pd     Ir     Ru                    
                                            
                                            
                                            
                                            
                                            

Positions:
   0 Pd     0.000000    1.624086   10.000000    ( 0.0000,  0.0000,  0.0000)
   1 Ir     2.812999    1.624086   10.000000    ( 0.0000,  0.0000,  0.0000)
   2 Ru     5.625998    1.624086   10.000000    ( 0.0000,  0.0000,  0.0000)
   3 Ru     1.406500    4.060215   10.000000    ( 0.0000,  0.0000,  0.0000)
   4 Ir     4.219499    4.060215   10.000000    ( 0.0000,  0.0000,  0.0000)
   5 Pt     7.032498    4.060215   10.000000    ( 0.0000,  0.0000,  0.0000)
   6 Pd     2.812999    6.496343   10.000000    ( 0.0000,  0.0000,  0.0000)
   7 Pd     5.625998    6.496343   10.000000    ( 0.0000,  0.0000,  0.0000)
   8 Ru     8.438997    6.496343   10.000000    ( 0.0000,  0.0000,  0.0000)
   9 Ag     0.000000    0.000000   12.296804    ( 0.0000,  0.0000,  0.0000)
  10 Ag     2.812999    0.000000   12.296804    ( 0.0000,  0.0000,  0.0000)
  11 Ag     5.625998    0.000000   12.296804    ( 0.0000,  0.0000,  0.0000)
  12 Pt     1.406500    2.436129   12.296804    ( 0.0000,  0.0000,  0.0000)
  13 Pt     4.219499    2.436129   12.296804    ( 0.0000,  0.0000,  0.0000)
  14 Pt     7.032498    2.436129   12.296804    ( 0.0000,  0.0000,  0.0000)
  15 Ru     2.812999    4.872257   12.296804    ( 0.0000,  0.0000,  0.0000)
  16 Pt     5.625998    4.872257   12.296804    ( 0.0000,  0.0000,  0.0000)
  17 Ir     8.438997    4.872257   12.296804    ( 0.0000,  0.0000,  0.0000)
  18 Pt     1.325800    0.744414   14.644321    ( 0.0000,  0.0000,  0.0000)
  19 Ag     4.179629    0.768841   14.652257    ( 0.0000,  0.0000,  0.0000)
  20 Pd     6.996608    0.850882   14.619104    ( 0.0000,  0.0000,  0.0000)
  21 Ag     2.792750    3.195583   14.648077    ( 0.0000,  0.0000,  0.0000)
  22 Ru     5.651863    3.364028   14.472322    ( 0.0000,  0.0000,  0.0000)
  23 Pd     8.435010    3.200023   14.585209    ( 0.0000,  0.0000,  0.0000)
[...]
  21 Ag     2.789867    3.193130   14.641970    ( 0.0000,  0.0000,  0.0000)
  22 Ru     5.637966    3.354462   14.460715    ( 0.0000,  0.0000,  0.0000)
  23 Pd     8.440125    3.185691   14.580303    ( 0.0000,  0.0000,  0.0000)
  24 Ir     4.194151    5.605186   14.561836    ( 0.0000,  0.0000,  0.0000)
  25 Ir     7.017404    5.542451   14.556527    ( 0.0000,  0.0000,  0.0000)
  26 Pt     9.843608    5.644965   14.605206    ( 0.0000,  0.0000,  0.0000)
  27 Ir    -0.064391    1.491520   16.932736    ( 0.0000,  0.0000,  0.0000)
  28 Pd     2.766913    1.593412   16.938190    ( 0.0000,  0.0000,  0.0000)
  29 Ag     5.553026    1.608393   16.887388    ( 0.0000,  0.0000,  0.0000)
  30 Pd     1.424386    4.037064   17.016172    ( 0.0000,  0.0000,  0.0000)
  31 Pd     4.222128    4.102921   16.866130    ( 0.0000,  0.0000,  0.0000)
  32 Pd     7.075148    3.999468   16.757573    ( 0.0000,  0.0000,  0.0000)
  33 Ru     2.838288    6.519970   16.769250    ( 0.0000,  0.0000,  0.0000)
  34 Pd     5.693622    6.456197   16.757434    ( 0.0000,  0.0000,  0.0000)
  35 Ir     8.585271    6.357582   16.973625    ( 0.0000,  0.0000,  0.0000)
  36 Ir     0.145268   -0.062861   18.956063    ( 0.0000,  0.0000,  0.0000)
  37 Pt     2.845155   -0.029569   19.095842    ( 0.0000,  0.0000,  0.0000)
  38 Ag     5.801100    0.111440   19.413619    ( 0.0000,  0.0000,  0.0000)
  39 Pd     1.377640    2.318867   19.244966    ( 0.0000,  0.0000,  0.0000)
  40 Pd     4.323862    2.492776   19.215360    ( 0.0000,  0.0000,  0.0000)
  41 Ir     7.173604    2.536767   19.006495    ( 0.0000,  0.0000,  0.0000)
  42 Ag     2.939615    4.883845   19.398646    ( 0.0000,  0.0000,  0.0000)
  43 Ir     5.740968    4.911461   18.998484    ( 0.0000,  0.0000,  0.0000)
  44 Ir     8.276747    4.819971   19.166953    ( 0.0000,  0.0000,  0.0000)
  45 O      9.293828    5.259890   20.581401    ( 0.0000,  0.0000,  0.0000)

Unit cell:
           periodic     x           y           z      points  spacing
  1. axis:    yes    8.465341    0.000000    0.000000    35     0.2095
  2. axis:    yes    4.232670    7.331200    0.000000    35     0.2095
  3. axis:    no     0.000000    0.000000   29.187217   135     0.2162

  Lengths:   8.465341   8.465341  29.187217
  Angles:   90.000000  90.000000  60.000000

Effective grid spacing dv^(1/3) = 0.2221

                     log10-error:    total        iterations:
           time      wfs    density  energy       fermi  poisson
iter:   1  21:31:04  -3.33   +inf  -236.340974    3             
iter:   2  21:32:32  -2.01  -2.20  -272.016982    3             
iter:   3  21:34:00  -2.32  -1.44  -235.813432    4             
iter:   4  21:35:27  -3.44  -2.49  -235.549280    3             
iter:   5  21:36:41  -4.61  -3.07  -235.540588    3             
iter:   6  21:37:54  -5.07  -3.14  -235.530401    2             
iter:   7  21:39:07  -5.21  -3.40  -235.526383    2             
iter:   8  21:40:20  -6.00  -3.67  -235.526529    2             
iter:   9  21:41:33  -5.91  -3.63  -235.528039    2             
iter:  10  21:42:48  -6.09  -3.55  -235.526109    2             
iter:  11  21:44:00  -6.24  -3.80  -235.526419    2             
iter:  12  21:45:13  -6.37  -3.88  -235.526000    2             
iter:  13  21:46:27  -6.74  -4.11  -235.526020    2             
iter:  14  21:47:40  -6.99  -4.18  -235.525778    2             
iter:  15  21:48:53  -7.24  -4.26  -235.526043    2             
iter:  16  21:50:07  -7.08  -4.11  -235.525622    2             
iter:  17  21:51:21  -7.40  -4.25  -235.525874    2             
iter:  18  21:52:34  -7.58  -4.25  -235.525707    2             

Converged after 18 iterations.

Dipole moment: (8.511493, 9.488084, -0.106510) |e|*Ang

Energy contributions relative to reference atoms: (reference = -12877847.605335)

Kinetic:       -215.172573
Potential:      +92.279353
External:        +0.000000
XC:            -104.578809
Entropy (-ST):   -2.201673
Local:           -6.952843
--------------------------
Free energy:   -236.626544
Extrapolated:  -235.525707

Fermi level: 1.01411

Showing only first 2 kpts
 Kpt  Band  Eigenvalues  Occupancy
  0   359      0.99577    0.13643
  0   360      1.01898    0.12195
  0   361      1.03184    0.11395
  0   362      1.06808    0.09206

  1   359      0.90880    0.18534
  1   360      0.94153    0.16847
  1   361      0.96419    0.15556
  1   362      0.99330    0.13795



Forces in eV/Ang:
  0 Pd   -0.12582    0.32778   -0.35920
  1 Ir    0.98767    0.70925    0.62261
  2 Ru   -1.07900    0.28870    0.68564
  3 Ru    0.41396    0.28511    1.59976
  4 Ir   -0.56793   -0.78918    1.18835
  5 Pt    0.15614    0.15566    0.04978
  6 Pd   -0.50128   -0.41698   -0.24177
  7 Pd    0.38260   -0.26478   -0.57235
  8 Ru    0.34733   -0.15520    0.55539
  9 Ag   -0.27593   -0.11207   -0.00880
 10 Ag   -0.01571   -0.13917    0.03310
 11 Ag    0.07249   -0.19414   -0.13330
 12 Pt    0.04813    0.76547   -0.56392
 13 Pt    0.09020    0.50316   -0.71793
 14 Pt   -0.09517    0.16148   -0.18555
 15 Ru   -0.42009   -0.74184   -0.96307
 16 Pt   -0.43316    0.16255   -0.19436
 17 Ir    0.92012   -0.13107   -1.00902
 18 Pt    0.00241   -0.00311    0.00028
 19 Ag    0.00070   -0.00584    0.00849
 20 Pd    0.01821   -0.00382    0.00323
 21 Ag   -0.00294   -0.00543    0.01146
 22 Ru    0.00338    0.00538   -0.00159
 23 Pd    0.01240   -0.00821   -0.01301
 24 Ir    0.02077   -0.00029    0.00045
 25 Ir    0.02110    0.00606   -0.01320
 26 Pt    0.01660    0.00437    0.00018
 27 Ir    0.01065    0.02537   -0.04811
 28 Pd    0.01192    0.00255    0.00785
 29 Ag   -0.00250   -0.02440   -0.00890
 30 Pd   -0.02712   -0.01443   -0.01394
 31 Pd    0.00324   -0.01189   -0.00701
 32 Pd    0.00902   -0.01748    0.03490
 33 Ru   -0.03742   -0.03544   -0.01426
 34 Pd    0.03029   -0.02213    0.00633
 35 Ir    0.01118   -0.01570    0.03323
 36 Ir   -0.00421   -0.08364    0.02195
 37 Pt   -0.01825   -0.02965   -0.00495
 38 Ag   -0.01373   -0.01800   -0.01071
 39 Pd    0.01128   -0.03188   -0.00463
 40 Pd    0.01034   -0.02688   -0.00089
 41 Ir   -0.00808   -0.00555   -0.00684
 42 Ag    0.00670   -0.01264    0.00250
 43 Ir    0.00401    0.01400   -0.00218
 44 Ir   -0.05165   -0.04104   -0.08347
 45 O     0.06970   -0.05545    0.17795

System changes: positions 

Initializing position-dependent things.

Density initialized from wave functions
                                             
                                             
                                             
                                             
                                             
                                  O          
                  Ag                         
                         Ir    Ir            
            Pd      Pd     Ir    Ir          
                   Ru Ag  Pd                 
        Ir    Pt    Pd     Pd                
                                             
        Ir     Pd    IAg    Ir     Pt        
                Ag     Ru     Pd             
                                             
           Pt     Ag    PPd    Ir            
                                             
            Pt     Pt    PPt    Ru           
       Ag     Ag    IAg    Pt                
                                             
        Pd     Ir     Ru                     
                                             
                                             
                                             
                                             
                                             

Positions:
   0 Pd     0.000000    1.624086   10.000000    ( 0.0000,  0.0000,  0.0000)
   1 Ir     2.812999    1.624086   10.000000    ( 0.0000,  0.0000,  0.0000)
   2 Ru     5.625998    1.624086   10.000000    ( 0.0000,  0.0000,  0.0000)
   3 Ru     1.406500    4.060215   10.000000    ( 0.0000,  0.0000,  0.0000)
   4 Ir     4.219499    4.060215   10.000000    ( 0.0000,  0.0000,  0.0000)
   5 Pt     7.032498    4.060215   10.000000    ( 0.0000,  0.0000,  0.0000)
   6 Pd     2.812999    6.496343   10.000000    ( 0.0000,  0.0000,  0.0000)
   7 Pd     5.625998    6.496343   10.000000    ( 0.0000,  0.0000,  0.0000)
   8 Ru     8.438997    6.496343   10.000000    ( 0.0000,  0.0000,  0.0000)
   9 Ag     0.000000    0.000000   12.296804    ( 0.0000,  0.0000,  0.0000)
  10 Ag     2.812999    0.000000   12.296804    ( 0.0000,  0.0000,  0.0000)
  11 Ag     5.625998    0.000000   12.296804    ( 0.0000,  0.0000,  0.0000)
  12 Pt     1.406500    2.436129   12.296804    ( 0.0000,  0.0000,  0.0000)
  13 Pt     4.219499    2.436129   12.296804    ( 0.0000,  0.0000,  0.0000)
  14 Pt     7.032498    2.436129   12.296804    ( 0.0000,  0.0000,  0.0000)
  15 Ru     2.812999    4.872257   12.296804    ( 0.0000,  0.0000,  0.0000)
  16 Pt     5.625998    4.872257   12.296804    ( 0.0000,  0.0000,  0.0000)
  17 Ir     8.438997    4.872257   12.296804    ( 0.0000,  0.0000,  0.0000)
  18 Pt     1.325090    0.734180   14.635024    ( 0.0000,  0.0000,  0.0000)
  19 Ag     4.176014    0.752612   14.651150    ( 0.0000,  0.0000,  0.0000)
  20 Pd     6.995451    0.833694   14.620737    ( 0.0000,  0.0000,  0.0000)
  21 Ag     2.789617    3.191913   14.642247    ( 0.0000,  0.0000,  0.0000)
  22 Ru     5.637775    3.354280   14.461071    ( 0.0000,  0.0000,  0.0000)
  23 Pd     8.441197    3.183595   14.576935    ( 0.0000,  0.0000,  0.0000)
  24 Ir     4.196938    5.604180   14.561493    ( 0.0000,  0.0000,  0.0000)
  25 Ir     7.020728    5.540567   14.553116    ( 0.0000,  0.0000,  0.0000)
  26 Pt     9.846378    5.646184   14.603050    ( 0.0000,  0.0000,  0.0000)
  27 Ir    -0.059551    1.489879   16.928802    ( 0.0000,  0.0000,  0.0000)
  28 Pd     2.768929    1.592107   16.941060    ( 0.0000,  0.0000,  0.0000)
  29 Ag     5.552763    1.602535   16.884783    ( 0.0000,  0.0000,  0.0000)
  30 Pd     1.420754    4.033260   17.008955    ( 0.0000,  0.0000,  0.0000)
  31 Pd     4.220156    4.101538   16.865082    ( 0.0000,  0.0000,  0.0000)
  32 Pd     7.077186    3.995149   16.759132    ( 0.0000,  0.0000,  0.0000)
  33 Ru     2.837596    6.515484   16.767726    ( 0.0000,  0.0000,  0.0000)
  34 Pd     5.701696    6.453816   16.755719    ( 0.0000,  0.0000,  0.0000)
  35 Ir     8.588930    6.353128   16.976640    ( 0.0000,  0.0000,  0.0000)
  36 Ir     0.144499   -0.075583   18.953253    ( 0.0000,  0.0000,  0.0000)
  37 Pt     2.846641   -0.034040   19.095410    ( 0.0000,  0.0000,  0.0000)
  38 Ag     5.798872    0.108666   19.414761    ( 0.0000,  0.0000,  0.0000)
  39 Pd     1.376228    2.314967   19.243308    ( 0.0000,  0.0000,  0.0000)
  40 Pd     4.327866    2.487653   19.214549    ( 0.0000,  0.0000,  0.0000)
  41 Ir     7.173537    2.532343   19.001267    ( 0.0000,  0.0000,  0.0000)
  42 Ag     2.940853    4.875162   19.403238    ( 0.0000,  0.0000,  0.0000)
  43 Ir     5.739783    4.911498   18.995002    ( 0.0000,  0.0000,  0.0000)
  44 Ir     8.278802    4.814575   19.173205    ( 0.0000,  0.0000,  0.0000)
  45 O      9.292721    5.234767   20.598236    ( 0.0000,  0.0000,  0.0000)

Unit cell:
           periodic     x           y           z      points  spacing
  1. axis:    yes    8.465341    0.000000    0.000000    35     0.2095
  2. axis:    yes    4.232670    7.331200    0.000000    35     0.2095
  3. axis:    no     0.000000    0.000000   29.187217   135     0.2162

  Lengths:   8.465341   8.465341  29.187217
  Angles:   90.000000  90.000000  60.000000

Effective grid spacing dv^(1/3) = 0.2221

                     log10-error:    total        iterations:
           time      wfs    density  energy       fermi  poisson
iter:   1  21:54:21  -3.29   +inf  -235.832990    3             
iter:   2  21:55:33  -2.55  -2.42  -247.671828    3             
iter:   3  21:56:47  -2.76  -1.63  -235.629983    3             
iter:   4  21:58:00  -3.96  -2.67  -235.563743    3             
iter:   5  21:59:13  -4.98  -2.99  -235.536153    3             
iter:   6  22:00:27  -5.48  -3.55  -235.533090    2             
iter:   7  22:01:40  -5.72  -3.62  -235.531772    2             
iter:   8  22:02:54  -6.17  -3.70  -235.531494    2             
iter:   9  22:04:07  -5.66  -3.79  -235.532738    2             
iter:  10  22:05:22  -6.04  -3.43  -235.530857    2             
iter:  11  22:06:34  -6.42  -3.97  -235.531534    2             
iter:  12  22:07:48  -6.66  -3.97  -235.530816    2             
iter:  13  22:09:01  -6.96  -4.20  -235.530989    2             
iter:  14  22:10:15  -7.31  -4.27  -235.530979    2             
iter:  15  22:11:27  -7.41  -4.30  -235.530938    2             

Converged after 15 iterations.

Dipole moment: (8.620910, 10.158431, -0.112598) |e|*Ang

Energy contributions relative to reference atoms: (reference = -12877847.605335)

Kinetic:       -215.558700
Potential:      +92.591305
External:        +0.000000
XC:            -104.510002
Entropy (-ST):   -2.202023
Local:           -6.952529
--------------------------
Free energy:   -236.631950
Extrapolated:  -235.530938

Fermi level: 1.01158

Showing only first 2 kpts
 Kpt  Band  Eigenvalues  Occupancy
  0   359      0.99345    0.13630
  0   360      1.01642    0.12198
  0   361      1.02923    0.11400
  0   362      1.06505    0.09236

  1   359      0.90496    0.18597
  1   360      0.93850    0.16874
  1   361      0.96156    0.15562
  1   362      0.99053    0.13811



Forces in eV/Ang:
  0 Pd   -0.12550    0.32848   -0.35694
  1 Ir    0.98842    0.70968    0.62749
  2 Ru   -1.07982    0.28912    0.69193
  3 Ru    0.41664    0.28384    1.60080
  4 Ir   -0.56759   -0.79081    1.19301
  5 Pt    0.15566    0.15561    0.05185
  6 Pd   -0.50225   -0.41807   -0.23888
  7 Pd    0.38318   -0.26564   -0.57038
  8 Ru    0.34650   -0.15450    0.55747
  9 Ag   -0.27834   -0.11278   -0.01291
 10 Ag   -0.01182   -0.13577    0.02517
 11 Ag    0.07409   -0.18912   -0.13475
 12 Pt    0.05398    0.76292   -0.57319
 13 Pt    0.09123    0.50286   -0.71577
 14 Pt   -0.10123    0.15657   -0.18882
 15 Ru   -0.41970   -0.74386   -0.96519
 16 Pt   -0.43449    0.15599   -0.20669
 17 Ir    0.93270   -0.13381   -1.02354
 18 Pt    0.00761   -0.00785    0.01423
 19 Ag   -0.00232   -0.01852    0.01144
 20 Pd    0.00871   -0.00630   -0.00247
 21 Ag    0.00824   -0.00136    0.00143
 22 Ru    0.00846   -0.00383    0.00299
 23 Pd   -0.00227    0.01176    0.01006
 24 Ir    0.00564   -0.00208    0.01650
 25 Ir    0.01696    0.00388    0.04309
 26 Pt   -0.00177   -0.01314    0.00080
 27 Ir   -0.02271   -0.03815    0.04330
 28 Pd    0.00359    0.00660   -0.00680
 29 Ag    0.02223    0.01027    0.00692
 30 Pd    0.00877   -0.02167    0.03236
 31 Pd    0.03390   -0.01819    0.00435
 32 Pd   -0.02617    0.01114   -0.02621
 33 Ru    0.02090    0.01584    0.01158
 34 Pd   -0.02507   -0.00512   -0.02006
 35 Ir   -0.01298    0.00160    0.01212
 36 Ir   -0.02940    0.03530   -0.03077
 37 Pt    0.00618   -0.01836    0.02119
 38 Ag    0.00714   -0.05644   -0.00232
 39 Pd   -0.00409   -0.05481   -0.01108
 40 Pd    0.00482   -0.00289    0.00056
 41 Ir   -0.00937   -0.03986    0.01140
 42 Ag   -0.04559   -0.00328    0.00082
 43 Ir    0.04440   -0.04703    0.02892
 44 Ir   -0.01672   -0.00271   -0.02681
 45 O     0.04328   -0.02921    0.06602

Timing:                                      incl.     excl.
-------------------------------------------------------------------
Density initialized from wave functions:    44.129    44.129   0.2% |
 Symmetrize density:                         0.001     0.001   0.0% |
Forces:                                    265.529   265.529   1.0% |
Hamiltonian:                                38.150     0.145   0.0% |
 Atomic:                                    10.723     4.696   0.0% |
  XC Correction:                             6.027     6.027   0.0% |
 Calculate atomic Hamiltonians:             12.436    12.436   0.0% |
 Communicate:                                0.087     0.087   0.0% |
 Initialize Hamiltonian:                     0.002     0.002   0.0% |
 Poisson:                                    0.085     0.085   0.0% |
 XC 3D grid:                                14.672    14.672   0.1% |
LCAO initialization:                        70.833     6.492   0.0% |
 LCAO eigensolver:                           9.926     0.004   0.0% |
  Calculate projections:                     0.118     0.118   0.0% |
  DenseAtomicCorrection:                     0.074     0.074   0.0% |
  Distribute overlap matrix:                 0.024     0.024   0.0% |
  Orbital Layouts:                           1.558     1.558   0.0% |
  Potential matrix:                          8.078     8.078   0.0% |
  Sum over cells:                            0.071     0.071   0.0% |
 LCAO to grid:                              51.157    51.157   0.2% |
 Set positions (LCAO WFS):                   3.257     0.854   0.0% |
  Basic WFS set positions:                   0.003     0.003   0.0% |
  Basis functions set positions:             0.001     0.001   0.0% |
  P tci:                                     1.144     1.144   0.0% |
  ST tci:                                    0.997     0.997   0.0% |
  mktci:                                     0.259     0.259   0.0% |
PWDescriptor:                                0.054     0.054   0.0% |
Redistribute:                                0.128     0.128   0.0% |
SCF-cycle:                               26824.918   272.852   1.0% |
 Davidson:                               24470.984  5664.151  20.7% |-------|
  Apply H:                                3856.909  3727.800  13.6% |----|
   HMM T:                                  129.110   129.110   0.5% |
  Subspace diag:                          3502.571     0.123   0.0% |
   calc_h_matrix:                         2039.436   752.110   2.7% ||
    Apply H:                              1287.325  1244.099   4.5% |-|
     HMM T:                                 43.226    43.226   0.2% |
   diagonalize:                             51.940    51.940   0.2% |
   rotate_psi:                            1411.073  1411.073   5.2% |-|
  calc. matrices:                         7617.391  5082.934  18.6% |------|
   Apply H:                               2534.457  2449.821   9.0% |---|
    HMM T:                                  84.635    84.635   0.3% |
  diagonalize:                            1022.577  1022.577   3.7% ||
  rotate_psi:                             2807.385  2807.385  10.3% |---|
 Density:                                 1084.536     0.019   0.0% |
  Atomic density matrices:                   6.757     6.757   0.0% |
  Mix:                                     355.795   355.795   1.3% ||
  Multipole moments:                         0.483     0.483   0.0% |
  Pseudo density:                          721.483   721.464   2.6% ||
   Symmetrize density:                       0.019     0.019   0.0% |
 Hamiltonian:                              893.957     3.131   0.0% |
  Atomic:                                  249.047   108.126   0.4% |
   XC Correction:                          140.920   140.920   0.5% |
  Calculate atomic Hamiltonians:           288.245   288.245   1.1% |
  Communicate:                               1.632     1.632   0.0% |
  Poisson:                                   1.917     1.917   0.0% |
  XC 3D grid:                              349.985   349.985   1.3% ||
 Orthonormalize:                           102.589     0.007   0.0% |
  calc_s_matrix:                            15.685    15.685   0.1% |
  inverse-cholesky:                          1.093     1.093   0.0% |
  projections:                              56.259    56.259   0.2% |
  rotate_psi_s:                             29.545    29.545   0.1% |
Set symmetry:                                0.003     0.003   0.0% |
Other:                                     122.154   122.154   0.4% |
-------------------------------------------------------------------
Total:                                             27365.898 100.0%

Date: Thu Mar  3 22:11:46 2022
