
  ___ ___ ___ _ _ _  
 |   |   |_  | | | | 
 | | | | | . | | | | 
 |__ |  _|___|_____|  1.5.1
 |___|_|             

User:   clausen@node437.cluster
Date:   Thu Mar  3 14:34:44 2022
Arch:   x86_64
Pid:    37651
Python: 3.6.12
gpaw:   /software/kemi/gpaw/1.5.1/gpaw
_gpaw:  /software/kemi/gpaw/1.5.1/bin/gpaw-python
ase:    /software/kemi/ase/3.17.0/ase (version 3.17.0)
numpy:  /opt/rh/rh-python36/root/usr/lib64/python3.6/site-packages/numpy (version 1.13.1)
scipy:  /opt/rh/rh-python36/root/usr/lib64/python3.6/site-packages/scipy (version 0.19.1)
units:  Angstrom and eV
cores:  16

Input parameters:
  kpts: [4 4 1]
  mode: {ecut: 400.0,
         gammacentered: False,
         name: pw}
  xc: RPBE

System changes: positions, numbers, cell, pbc, initial_charges, initial_magmoms 

Initialize ...

Pd-setup:
  name: Palladium
  id: 6da19bfba079f22767af9506641940b9
  Z: 46
  valence: 16
  core: 30
  charge: 0.0
  file: /software/kemi/gpaw-setups/0.9.20000/Pd.RPBE.gz
  cutoffs: 1.19(comp), 2.38(filt), 2.28(core), lmax=2
  valence states:
                energy  radius
    5s(0.00)    -3.225   1.228
    4p(6.00)   -51.131   1.360
    5p(0.00)    -0.373   1.360
    4d(10.00)    -3.964   1.228
    *s          23.987   1.228
    *d          23.247   1.228

  Using partial waves for Pd as LCAO basis

Ir-setup:
  name: Iridium
  id: 73b603359d1d5397a85ae3c2440f9033
  Z: 77
  valence: 15
  core: 62
  charge: 0.0
  file: /software/kemi/gpaw-setups/0.9.20000/Ir.RPBE.gz
  cutoffs: 1.26(comp), 2.40(filt), 2.36(core), lmax=2
  valence states:
                energy  radius
    6s(2.00)    -6.219   1.296
    5p(6.00)   -54.684   1.328
    6p(0.00)    -1.215   1.328
    5d(7.00)    -7.118   1.286
    *s          20.992   1.296
    *d          20.093   1.286

  Using partial waves for Ir as LCAO basis

Ru-setup:
  name: Ruthenium
  id: 76477906e28f51dc1b29884d53556fe9
  Z: 44
  valence: 16
  core: 28
  charge: 0.0
  file: /software/kemi/gpaw-setups/0.9.20000/Ru.RPBE.gz
  cutoffs: 1.23(comp), 2.16(filt), 1.30(core), lmax=2
  valence states:
                energy  radius
    4s(2.00)   -76.255   1.281
    5s(1.00)    -4.126   1.281
    4p(6.00)   -46.371   1.286
    5p(0.00)    -0.913   1.286
    4d(7.00)    -5.146   1.254
    *d          22.066   1.254

  Using partial waves for Ru as LCAO basis

Pt-setup:
  name: Platinum
  id: f04f522592575c47ad794f6b4a415b4b
  Z: 78
  valence: 16
  core: 62
  charge: 0.0
  file: /software/kemi/gpaw-setups/0.9.20000/Pt.RPBE.gz
  cutoffs: 1.29(comp), 2.26(filt), 2.26(core), lmax=2
  valence states:
                energy  radius
    6s(1.00)    -5.516   1.307
    5p(6.00)   -55.971   1.371
    6p(0.00)    -0.856   1.371
    5d(9.00)    -6.087   1.307
    *s          21.695   1.307
    *d          21.125   1.307

  Using partial waves for Pt as LCAO basis

Ag-setup:
  name: Silver
  id: c05e55bab2c3858b3f9398f6d75cb77c
  Z: 47
  valence: 17
  core: 30
  charge: 0.0
  file: /software/kemi/gpaw-setups/0.9.20000/Ag.RPBE.gz
  cutoffs: 1.25(comp), 2.35(filt), 2.19(core), lmax=2
  valence states:
                energy  radius
    5s(1.00)    -4.277   1.286
    4p(6.00)   -58.523   1.328
    5p(0.00)    -0.755   1.328
    4d(10.00)    -7.386   1.180
    *s          22.934   1.286
    *d          19.826   1.180

  Using partial waves for Ag as LCAO basis

O-setup:
  name: Oxygen
  id: 08071ca1eed670e7821b24b7eb4d558c
  Z: 8
  valence: 6
  core: 2
  charge: 0.0
  file: /software/kemi/gpaw-setups/0.9.20000/O.RPBE.gz
  cutoffs: 0.67(comp), 1.17(filt), 0.83(core), lmax=2
  valence states:
                energy  radius
    2s(2.00)   -24.041   0.688
    2p(4.00)    -8.984   0.598
    *s           3.170   0.688
    *p          18.228   0.598
    *d           0.000   0.619

  Using partial waves for O as LCAO basis

Reference energy: -12877847.605335

Spin-paired calculation

Occupation numbers:
  Fermi-Dirac: width=0.1000 eV

Convergence criteria:
  Maximum total energy change: 0.0005 eV / electron
  Maximum integral of absolute density change: 0.0001 electrons
  Maximum integral of absolute eigenstate change: 4e-08 eV^2
  Maximum number of iterations: 333

Symmetries present (total): 1

  ( 1  0  0)
  ( 0  1  0)
  ( 0  0  1)

16 k-points: 4 x 4 x 1 Monkhorst-Pack grid
8 k-points in the irreducible part of the Brillouin zone
       k-points in crystal coordinates                weights
   0:     0.12500000   -0.37500000    0.00000000          2/16
   1:     0.12500000   -0.12500000    0.00000000          2/16
   2:     0.12500000    0.12500000    0.00000000          2/16
   3:     0.12500000    0.37500000    0.00000000          2/16
   4:     0.37500000   -0.37500000    0.00000000          2/16
   5:     0.37500000   -0.12500000    0.00000000          2/16
   6:     0.37500000    0.12500000    0.00000000          2/16
   7:     0.37500000    0.37500000    0.00000000          2/16

Wave functions: Plane wave expansion
  Cutoff energy: 400.000 eV
  Number of coefficients (min, max): 32894, 32940
  Pulay-stress correction: 0.000000 eV/Ang^3 (de/decut=0.000000)
  Using FFTW library
  ScaLapack parameters: grid=1x1, blocksize=None
  Wavefunction extrapolation:
    Improved wavefunction reuse through dual PAW basis 

Eigensolver
   Davidson(niter=2, smin=None, normalize=True) 

Densities:
  Coarse grid: 35*35*135 grid
  Fine grid: 70*70*270 grid
  Total Charge: 0.000000 

Density mixing:
  Method: separate
  Backend: pulay
  Linear mixing parameter: 0.05
  Mixing with 5 old densities
  Damping of long wave oscillations: 50 

Hamiltonian:
  XC and Coulomb potentials evaluated on a 70*70*270 grid
  Using the RPBE Exchange-Correlation functional
 

XC parameters: RPBE with 2 nearest neighbor stencil

Memory estimate:
  Process memory now: 148.32 MiB
  Calculator: 549.89 MiB
    Density: 51.27 MiB
      Arrays: 16.41 MiB
      Localized functions: 28.50 MiB
      Mixer: 6.36 MiB
    Hamiltonian: 11.63 MiB
      Arrays: 10.73 MiB
      XC: 0.00 MiB
      Poisson: 0.00 MiB
      vbar: 0.90 MiB
    Wavefunctions: 487.00 MiB
      Arrays psit_nG: 220.15 MiB
      Eigensolver: 251.95 MiB
      Projections: 2.75 MiB
      Projectors: 5.53 MiB
      PW-descriptor: 6.62 MiB

Total number of cores used: 16
Parallelization over k-points: 8
Domain decomposition: 1 x 1 x 2

Number of atoms: 46
Number of atomic orbitals: 550
Number of bands in calculation: 438
Bands to converge: occupied states only
Number of valence electrons: 723

... initialized

Initializing position-dependent things.

Density initialized from atomic densities
Creating initial wave functions:
  438 bands from LCAO basis set

                                             
                                             
                                             
                                             
                      O                      
                                             
                  Ag                         
                         Ir    Ir            
            Pd      Pd     Ir                
                   Ru     Pd     Ir          
        Ir    Pt    PAg    Pd                
                                             
        Ir     Pd    IAg    Ir     Pt        
                Ag     Ru     Pd             
                                             
           Pt     Ag    PPd    Ir            
                                             
            Pt     Pt    PPt    Ru           
       Ag     Ag     Ag                      
              Ru    Ir     Pt                
         Pd    Ir     Ru                     
                                             
                                             
                                             
                                             
                                             

Positions:
   0 Pd     0.000000    1.624086   10.000000    ( 0.0000,  0.0000,  0.0000)
   1 Ir     2.812999    1.624086   10.000000    ( 0.0000,  0.0000,  0.0000)
   2 Ru     5.625998    1.624086   10.000000    ( 0.0000,  0.0000,  0.0000)
   3 Ru     1.406500    4.060215   10.000000    ( 0.0000,  0.0000,  0.0000)
   4 Ir     4.219499    4.060215   10.000000    ( 0.0000,  0.0000,  0.0000)
   5 Pt     7.032498    4.060215   10.000000    ( 0.0000,  0.0000,  0.0000)
   6 Pd     2.812999    6.496343   10.000000    ( 0.0000,  0.0000,  0.0000)
   7 Pd     5.625998    6.496343   10.000000    ( 0.0000,  0.0000,  0.0000)
   8 Ru     8.438997    6.496343   10.000000    ( 0.0000,  0.0000,  0.0000)
   9 Ag     0.000000    0.000000   12.296804    ( 0.0000,  0.0000,  0.0000)
  10 Ag     2.812999    0.000000   12.296804    ( 0.0000,  0.0000,  0.0000)
  11 Ag     5.625998    0.000000   12.296804    ( 0.0000,  0.0000,  0.0000)
  12 Pt     1.406500    2.436129   12.296804    ( 0.0000,  0.0000,  0.0000)
  13 Pt     4.219499    2.436129   12.296804    ( 0.0000,  0.0000,  0.0000)
  14 Pt     7.032498    2.436129   12.296804    ( 0.0000,  0.0000,  0.0000)
  15 Ru     2.812999    4.872257   12.296804    ( 0.0000,  0.0000,  0.0000)
  16 Pt     5.625998    4.872257   12.296804    ( 0.0000,  0.0000,  0.0000)
  17 Ir     8.438997    4.872257   12.296804    ( 0.0000,  0.0000,  0.0000)
  18 Pt     1.331112    0.739375   14.657283    ( 0.0000,  0.0000,  0.0000)
  19 Ag     4.181622    0.793852   14.645499    ( 0.0000,  0.0000,  0.0000)
  20 Pd     7.001587    0.862206   14.620346    ( 0.0000,  0.0000,  0.0000)
  21 Ag     2.800841    3.198617   14.645984    ( 0.0000,  0.0000,  0.0000)
  22 Ru     5.661352    3.374873   14.464570    ( 0.0000,  0.0000,  0.0000)
  23 Pd     8.454364    3.209063   14.568969    ( 0.0000,  0.0000,  0.0000)
  24 Ir     4.203312    5.613553   14.568997    ( 0.0000,  0.0000,  0.0000)
  25 Ir     7.031881    5.578044   14.561300    ( 0.0000,  0.0000,  0.0000)
  26 Pt     9.857688    5.665883   14.596939    ( 0.0000,  0.0000,  0.0000)
  27 Ir    -0.077764    1.506761   16.938800    ( 0.0000,  0.0000,  0.0000)
  28 Pd     2.746751    1.593087   16.991368    ( 0.0000,  0.0000,  0.0000)
  29 Ag     5.532334    1.594992   16.918159    ( 0.0000,  0.0000,  0.0000)
  30 Pd     1.401555    4.031321   16.973309    ( 0.0000,  0.0000,  0.0000)
  31 Pd     4.186062    4.107308   16.892321    ( 0.0000,  0.0000,  0.0000)
  32 Pd     7.007491    3.969527   16.736476    ( 0.0000,  0.0000,  0.0000)
  33 Ru     2.845276    6.541012   16.753610    ( 0.0000,  0.0000,  0.0000)
  34 Pd     5.662228    6.450069   16.794393    ( 0.0000,  0.0000,  0.0000)
  35 Ir     8.552515    6.378355   16.920371    ( 0.0000,  0.0000,  0.0000)
  36 Ir     0.061963   -0.029589   18.981657    ( 0.0000,  0.0000,  0.0000)
  37 Pt     2.802470   -0.097062   19.141410    ( 0.0000,  0.0000,  0.0000)
  38 Ag     5.661265    0.013033   19.406409    ( 0.0000,  0.0000,  0.0000)
  39 Pd     1.350042    2.376862   19.278970    ( 0.0000,  0.0000,  0.0000)
  40 Pd     4.315258    2.518491   19.256067    ( 0.0000,  0.0000,  0.0000)
  41 Ir     7.173708    2.513849   19.018418    ( 0.0000,  0.0000,  0.0000)
  42 Ag     2.809713    4.893314   19.379442    ( 0.0000,  0.0000,  0.0000)
  43 Ir     5.700233    4.913916   19.039342    ( 0.0000,  0.0000,  0.0000)
  44 Ir     8.278779    4.849064   19.000358    ( 0.0000,  0.0000,  0.0000)
  45 O      4.268193    5.702947   20.706409    ( 0.0000,  0.0000,  0.0000)

Unit cell:
           periodic     x           y           z      points  spacing
  1. axis:    yes    8.465341    0.000000    0.000000    35     0.2095
  2. axis:    yes    4.232670    7.331200    0.000000    35     0.2095
  3. axis:    no     0.000000    0.000000   29.187217   135     0.2162

  Lengths:   8.465341   8.465341  29.187217
  Angles:   90.000000  90.000000  60.000000

Effective grid spacing dv^(1/3) = 0.2221

                     log10-error:    total        iterations:
           time      wfs    density  energy       fermi  poisson
iter:   1  14:37:08  +0.32   +inf  -320.640772    3             
iter:   2  14:38:23  -0.55  -1.16  -403.822085    35            
iter:   3  14:39:38  -0.64  -1.08  -344.916956    4             
iter:   4  14:40:53  -1.28  -1.15  -267.592835    35            
iter:   5  14:42:08  -1.76  -1.35  -245.764842    35            
iter:   6  14:43:23  -1.98  -1.46  -242.038108    4             
iter:   7  14:44:38  -2.18  -1.51  -239.487106    3             
iter:   8  14:45:54  -2.25  -1.57  -236.688554    3             
iter:   9  14:47:09  -1.73  -1.70  -238.427301    2             
iter:  10  14:48:25  -2.31  -1.78  -238.020179    3             
iter:  11  14:49:40  -3.03  -1.85  -235.174104    3             
iter:  12  14:50:55  -3.44  -2.11  -234.989854    3             
iter:  13  14:52:10  -3.55  -2.18  -235.005547    3             
iter:  14  14:53:25  -3.34  -2.21  -234.945866    3             
iter:  15  14:54:41  -3.57  -2.35  -234.911987    3             
iter:  16  14:55:56  -3.87  -2.38  -234.826187    3             
iter:  17  14:57:11  -3.68  -2.48  -234.835096    3             
iter:  18  14:58:26  -3.79  -2.48  -234.715617    2             
iter:  19  14:59:41  -4.08  -2.74  -234.714849    3             
iter:  20  15:00:56  -4.25  -2.76  -234.707587    3             
iter:  21  15:02:12  -4.47  -2.76  -234.702193    3             
iter:  22  15:03:27  -4.58  -2.81  -234.684010    2             
iter:  23  15:04:42  -5.00  -2.95  -234.684996    2             
iter:  24  15:05:58  -4.71  -2.96  -234.680281    2             
iter:  25  15:07:13  -4.97  -3.07  -234.687169    3             
iter:  26  15:08:28  -5.15  -3.03  -234.679807    3             
iter:  27  15:09:43  -5.45  -3.16  -234.680466    2             
iter:  28  15:10:58  -5.72  -3.23  -234.679724    2             
iter:  29  15:12:12  -5.84  -3.20  -234.679726    2             
iter:  30  15:13:27  -5.84  -3.28  -234.678037    2             
iter:  31  15:14:42  -5.54  -3.33  -234.680350    2             
iter:  32  15:15:57  -5.81  -3.29  -234.676746    2             
iter:  33  15:17:12  -5.94  -3.40  -234.677315    2             
iter:  34  15:18:27  -6.08  -3.45  -234.676304    2             
iter:  35  15:19:42  -6.26  -3.44  -234.676358    2             
iter:  36  15:20:57  -6.31  -3.52  -234.675894    2             
iter:  37  15:22:12  -5.88  -3.56  -234.676400    2             
iter:  38  15:23:28  -6.22  -3.55  -234.675508    2             
iter:  39  15:24:43  -5.99  -3.59  -234.676360    2             
iter:  40  15:25:58  -6.45  -3.61  -234.675450    2             
iter:  41  15:27:13  -6.71  -3.67  -234.675681    2             
iter:  42  15:28:28  -6.82  -3.75  -234.675510    2             
iter:  43  15:29:44  -6.57  -3.81  -234.675646    2             
iter:  44  15:30:59  -6.37  -3.86  -234.675140    2             
iter:  45  15:32:14  -6.62  -3.85  -234.675710    2             
iter:  46  15:33:29  -7.01  -3.85  -234.675170    2             
iter:  47  15:34:44  -7.28  -3.97  -234.675317    2             
iter:  48  15:35:59  -7.29  -4.07  -234.675235    2             
iter:  49  15:37:14  -7.23  -4.12  -234.675260    2             
iter:  50  15:38:29  -6.98  -4.16  -234.675041    2             
iter:  51  15:39:43  -7.59  -4.17  -234.675309    2             

Converged after 51 iterations.

Dipole moment: (23.197082, 15.930467, -0.259960) |e|*Ang

Energy contributions relative to reference atoms: (reference = -12877847.605335)

Kinetic:       -239.022531
Potential:     +113.821631
External:        +0.000000
XC:            -101.517133
Entropy (-ST):   -2.263618
Local:           -6.825467
--------------------------
Free energy:   -235.807118
Extrapolated:  -234.675309

Fermi level: 0.93112

Showing only first 2 kpts
 Kpt  Band  Eigenvalues  Occupancy
  0   359      0.92325    0.12992
  0   360      0.93595    0.12198
  0   361      0.96702    0.10280
  0   362      0.99381    0.08705

  1   359      0.83847    0.17909
  1   360      0.86410    0.16538
  1   361      0.88543    0.15307
  1   362      0.90133    0.14348



Forces in eV/Ang:
  0 Pd   -0.11967    0.32324   -0.34837
  1 Ir    0.95527    0.69219    0.60998
  2 Ru   -1.08928    0.28927    0.69116
  3 Ru    0.42769    0.28700    1.60279
  4 Ir   -0.56130   -0.79055    1.16463
  5 Pt    0.15390    0.16813    0.04690
  6 Pd   -0.49455   -0.42300   -0.24458
  7 Pd    0.37899   -0.26768   -0.57799
  8 Ru    0.34273   -0.16735    0.56639
  9 Ag   -0.24164   -0.09416    0.05722
 10 Ag   -0.02698   -0.09942    0.04974
 11 Ag    0.07990   -0.16777   -0.14285
 12 Pt    0.09661    0.76078   -0.56844
 13 Pt    0.12930    0.56005   -0.71664
 14 Pt   -0.10006    0.19397   -0.17819
 15 Ru   -0.37572   -0.71585   -0.95340
 16 Pt   -0.41498    0.18018   -0.11675
 17 Ir    0.91128   -0.10619   -1.05331
 18 Pt    0.00681    0.00258   -0.00063
 19 Ag   -0.00347   -0.04608    0.01975
 20 Pd   -0.00202   -0.00117    0.03148
 21 Ag   -0.01419   -0.01350   -0.01262
 22 Ru    0.00688   -0.03422   -0.00207
 23 Pd   -0.01391    0.01868   -0.02685
 24 Ir   -0.01816   -0.03082   -0.00023
 25 Ir   -0.00976   -0.03019    0.04751
 26 Pt   -0.00862   -0.00855    0.01649
 27 Ir    0.12966   -0.07661    0.00230
 28 Pd   -0.00245   -0.01900   -0.02935
 29 Ag   -0.03233    0.00114   -0.00047
 30 Pd    0.03343   -0.00449    0.10645
 31 Pd    0.02717   -0.05100   -0.13695
 32 Pd   -0.06264    0.10839    0.23833
 33 Ru   -0.00976    0.00468   -0.03718
 34 Pd   -0.02759    0.12635   -0.08282
 35 Ir    0.00651   -0.03029   -0.00346
 36 Ir   -0.41290   -0.69831    1.15175
 37 Pt    0.35958    0.19267   -0.10707
 38 Ag   -0.09589    0.07715   -0.04250
 39 Pd   -0.05973   -0.02069   -0.06217
 40 Pd   -0.01023   -0.21520   -0.04509
 41 Ir   -0.07715    0.07258   -0.03302
 42 Ag   -0.91014   -0.43051   -0.25305
 43 Ir   -0.41926   -0.07715    1.73234
 44 Ir   -0.09933   -0.05475   -0.08566
 45 O     1.55871    0.55733   -2.17132

System changes: positions 

Initializing position-dependent things.

Density initialized from wave functions
                                             
                                             
                                             
                                             
                      O                      
                                             
                 Ag                          
                        Ir     Ir            
            Pd     RPd   PdIr    Ir          
                                             
       Ir     Pt    PAg    Pd                
               Pd                            
        Ir           IAg    Ir     Pt        
                Ag     Ru     Pd             
                                             
           Pt     Ag    PPd    Ir            
                                             
            Pt     Pt    PPt    Ru           
       Ag     Ag    IAg    Pt                
                                             
        Pd     Ir     Ru                     
                                             
                                             
                                             
                                             
                                             

Positions:
   0 Pd     0.000000    1.624086   10.000000    ( 0.0000,  0.0000,  0.0000)
   1 Ir     2.812999    1.624086   10.000000    ( 0.0000,  0.0000,  0.0000)
   2 Ru     5.625998    1.624086   10.000000    ( 0.0000,  0.0000,  0.0000)
   3 Ru     1.406500    4.060215   10.000000    ( 0.0000,  0.0000,  0.0000)
   4 Ir     4.219499    4.060215   10.000000    ( 0.0000,  0.0000,  0.0000)
   5 Pt     7.032498    4.060215   10.000000    ( 0.0000,  0.0000,  0.0000)
   6 Pd     2.812999    6.496343   10.000000    ( 0.0000,  0.0000,  0.0000)
   7 Pd     5.625998    6.496343   10.000000    ( 0.0000,  0.0000,  0.0000)
   8 Ru     8.438997    6.496343   10.000000    ( 0.0000,  0.0000,  0.0000)
   9 Ag     0.000000    0.000000   12.296804    ( 0.0000,  0.0000,  0.0000)
  10 Ag     2.812999    0.000000   12.296804    ( 0.0000,  0.0000,  0.0000)
  11 Ag     5.625998    0.000000   12.296804    ( 0.0000,  0.0000,  0.0000)
  12 Pt     1.406500    2.436129   12.296804    ( 0.0000,  0.0000,  0.0000)
  13 Pt     4.219499    2.436129   12.296804    ( 0.0000,  0.0000,  0.0000)
  14 Pt     7.032498    2.436129   12.296804    ( 0.0000,  0.0000,  0.0000)
  15 Ru     2.812999    4.872257   12.296804    ( 0.0000,  0.0000,  0.0000)
  16 Pt     5.625998    4.872257   12.296804    ( 0.0000,  0.0000,  0.0000)
  17 Ir     8.438997    4.872257   12.296804    ( 0.0000,  0.0000,  0.0000)
  18 Pt     1.331611    0.739563   14.657237    ( 0.0000,  0.0000,  0.0000)
  19 Ag     4.181368    0.790476   14.646946    ( 0.0000,  0.0000,  0.0000)
  20 Pd     7.001439    0.862120   14.622652    ( 0.0000,  0.0000,  0.0000)
  21 Ag     2.799802    3.197628   14.645060    ( 0.0000,  0.0000,  0.0000)
  22 Ru     5.661856    3.372367   14.464418    ( 0.0000,  0.0000,  0.0000)
  23 Pd     8.453344    3.210431   14.567002    ( 0.0000,  0.0000,  0.0000)
  24 Ir     4.201982    5.611295   14.568980    ( 0.0000,  0.0000,  0.0000)
  25 Ir     7.031166    5.575833   14.564780    ( 0.0000,  0.0000,  0.0000)
  26 Pt     9.857057    5.665256   14.598147    ( 0.0000,  0.0000,  0.0000)
  27 Ir    -0.068266    1.501150   16.938969    ( 0.0000,  0.0000,  0.0000)
  28 Pd     2.746572    1.591695   16.989218    ( 0.0000,  0.0000,  0.0000)
  29 Ag     5.529966    1.595075   16.918125    ( 0.0000,  0.0000,  0.0000)
  30 Pd     1.404004    4.030992   16.981107    ( 0.0000,  0.0000,  0.0000)
  31 Pd     4.188053    4.103572   16.882289    ( 0.0000,  0.0000,  0.0000)
  32 Pd     7.002902    3.977466   16.753934    ( 0.0000,  0.0000,  0.0000)
  33 Ru     2.844561    6.541355   16.750887    ( 0.0000,  0.0000,  0.0000)
  34 Pd     5.660206    6.459324   16.788326    ( 0.0000,  0.0000,  0.0000)
  35 Ir     8.552992    6.376137   16.920117    ( 0.0000,  0.0000,  0.0000)
  36 Ir     0.031718   -0.080741   19.066024    ( 0.0000,  0.0000,  0.0000)
  37 Pt     2.828810   -0.082948   19.133568    ( 0.0000,  0.0000,  0.0000)
  38 Ag     5.654241    0.018685   19.403296    ( 0.0000,  0.0000,  0.0000)
  39 Pd     1.345667    2.375346   19.274416    ( 0.0000,  0.0000,  0.0000)
  40 Pd     4.314509    2.502727   19.252764    ( 0.0000,  0.0000,  0.0000)
  41 Ir     7.168057    2.519166   19.016000    ( 0.0000,  0.0000,  0.0000)
  42 Ag     2.743045    4.861779   19.360906    ( 0.0000,  0.0000,  0.0000)
  43 Ir     5.669522    4.908265   19.166237    ( 0.0000,  0.0000,  0.0000)
  44 Ir     8.271504    4.845053   18.994083    ( 0.0000,  0.0000,  0.0000)
  45 O      4.382369    5.743772   20.547359    ( 0.0000,  0.0000,  0.0000)

Unit cell:
           periodic     x           y           z      points  spacing
  1. axis:    yes    8.465341    0.000000    0.000000    35     0.2095
  2. axis:    yes    4.232670    7.331200    0.000000    35     0.2095
  3. axis:    no     0.000000    0.000000   29.187217   135     0.2162

  Lengths:   8.465341   8.465341  29.187217
  Angles:   90.000000  90.000000  60.000000

Effective grid spacing dv^(1/3) = 0.2221

                     log10-error:    total        iterations:
           time      wfs    density  energy       fermi  poisson
iter:   1  15:41:31  -1.80   +inf  -242.916362    4             
iter:   2  15:42:45  -1.12  -1.78  -350.092410    38            
iter:   3  15:43:59  -1.35  -1.22  -255.896309    38            
iter:   4  15:45:14  -2.25  -1.59  -237.055829    37            
iter:   5  15:46:28  -2.89  -2.13  -237.322098    3             
iter:   6  15:47:42  -3.09  -2.04  -236.428016    3             
iter:   7  15:48:57  -3.65  -2.23  -235.872033    3             
iter:   8  15:50:11  -3.64  -2.49  -235.683372    3             
iter:   9  15:51:26  -4.06  -2.71  -235.632990    2             
iter:  10  15:52:40  -3.84  -2.83  -235.678253    3             
iter:  11  15:53:54  -3.88  -2.69  -235.608016    3             
iter:  12  15:55:09  -3.94  -2.84  -236.001595    2             
iter:  13  15:56:23  -4.17  -2.32  -235.597820    3             
iter:  14  15:57:37  -4.89  -2.93  -235.578936    2             
iter:  15  15:58:51  -5.33  -3.16  -235.575462    2             
iter:  16  16:00:05  -5.41  -3.22  -235.577206    2             
iter:  17  16:01:19  -5.18  -3.21  -235.571784    3             
iter:  18  16:02:33  -4.93  -3.34  -235.580552    2             
iter:  19  16:03:47  -5.43  -3.11  -235.571670    2             
iter:  20  16:05:01  -5.32  -3.46  -235.570702    3             
iter:  21  16:06:15  -5.65  -3.50  -235.570285    2             
iter:  22  16:07:29  -6.21  -3.71  -235.570893    2             
iter:  23  16:08:42  -6.57  -3.75  -235.569824    2             
iter:  24  16:09:55  -6.09  -3.81  -235.570765    2             
iter:  25  16:11:09  -6.29  -3.74  -235.570276    2             
iter:  26  16:12:21  -6.62  -3.91  -235.569785    2             
iter:  27  16:13:32  -6.94  -4.15  -235.569966    2             
iter:  28  16:14:44  -7.08  -4.17  -235.569892    2             
iter:  29  16:15:57  -7.13  -4.39  -235.569543    2             
iter:  30  16:17:09  -7.78  -4.25  -235.569772    2             

Converged after 30 iterations.

Dipole moment: (26.752525, 17.624302, -0.128983) |e|*Ang

Energy contributions relative to reference atoms: (reference = -12877847.605335)

Kinetic:       -230.421182
Potential:     +105.455910
External:        +0.000000
XC:            -102.590083
Entropy (-ST):   -2.238730
Local:           -6.895051
--------------------------
Free energy:   -236.689137
Extrapolated:  -235.569772

Fermi level: 0.99974

Showing only first 2 kpts
 Kpt  Band  Eigenvalues  Occupancy
  0   359      0.98650    0.13326
  0   360      1.00227    0.12342
  0   361      1.03848    0.10109
  0   362      1.07136    0.08206

  1   359      0.90705    0.17911
  1   360      0.93337    0.16502
  1   361      0.95767    0.15091
  1   362      0.99907    0.12542



Forces in eV/Ang:
  0 Pd   -0.12203    0.31983   -0.35405
  1 Ir    0.94418    0.69555    0.62763
  2 Ru   -1.08135    0.29005    0.69337
  3 Ru    0.42408    0.28663    1.59725
  4 Ir   -0.56068   -0.79080    1.16918
  5 Pt    0.15418    0.16553    0.04572
  6 Pd   -0.49621   -0.41982   -0.23742
  7 Pd    0.37948   -0.26121   -0.57496
  8 Ru    0.34356   -0.17195    0.57086
  9 Ag   -0.24852   -0.09228    0.06208
 10 Ag   -0.02267   -0.10447    0.05549
 11 Ag    0.08224   -0.16709   -0.13206
 12 Pt    0.10028    0.74036   -0.56421
 13 Pt    0.12656    0.54742   -0.71357
 14 Pt   -0.10423    0.18258   -0.18573
 15 Ru   -0.37773   -0.71135   -0.96558
 16 Pt   -0.40999    0.18430   -0.10973
 17 Ir    0.90287   -0.10455   -1.00813
 18 Pt    0.00122    0.01191   -0.02155
 19 Ag    0.00154   -0.02680   -0.00166
 20 Pd   -0.00304    0.00314    0.03763
 21 Ag   -0.02378   -0.01957   -0.01253
 22 Ru    0.03042   -0.01174    0.04880
 23 Pd   -0.01972    0.03641    0.01424
 24 Ir   -0.00627   -0.01185    0.02928
 25 Ir   -0.01708   -0.03997    0.03952
 26 Pt    0.00659   -0.00596    0.03195
 27 Ir   -0.00660   -0.22262    0.33725
 28 Pd   -0.02983    0.00849   -0.04331
 29 Ag    0.03430    0.00378   -0.03240
 30 Pd   -0.04826   -0.06623   -0.07538
 31 Pd    0.11552    0.03403    0.08893
 32 Pd   -0.07718    0.07720    0.09345
 33 Ru    0.08378    0.03362    0.05237
 34 Pd   -0.08793   -0.00996    0.25833
 35 Ir   -0.02381   -0.01921   -0.01611
 36 Ir   -0.19480    0.12419    0.14372
 37 Pt    0.17203    0.09079   -0.15473
 38 Ag   -0.04356    0.05530   -0.02053
 39 Pd   -0.16332   -0.23045   -0.07320
 40 Pd   -0.10135   -0.15423   -0.04584
 41 Ir   -0.04401   -0.02282    0.02186
 42 Ag   -0.76801   -0.39409   -0.22141
 43 Ir    0.25334   -0.25805    0.69547
 44 Ir   -0.33195   -0.00264    0.05702
 45 O     1.32449    0.48719   -1.31203

System changes: positions 

Initializing position-dependent things.

Density initialized from wave functions
                                             
                                             
                                             
                                             
                      O                      
                                             
                 Ag     Ir                   
                               Ir            
            Pd     RPd   PdIr    Ir          
                     Ag                      
       Ir     Pt    Pd     Pd                
        Ir     Pd     Ag                     
                     Ir     Ir     Pt        
                Ag     Ru     Pd             
                                             
           Pt    RAg    PPd    Ir            
                                             
            Pt     Pt    PPt    Ru           
       Ag     Ag    IAg    Pt                
                                             
        Pd     Ir     Ru                     
                                             
                                             
                                             
                                             
                                             

Positions:
   0 Pd     0.000000    1.624086   10.000000    ( 0.0000,  0.0000,  0.0000)
   1 Ir     2.812999    1.624086   10.000000    ( 0.0000,  0.0000,  0.0000)
   2 Ru     5.625998    1.624086   10.000000    ( 0.0000,  0.0000,  0.0000)
   3 Ru     1.406500    4.060215   10.000000    ( 0.0000,  0.0000,  0.0000)
   4 Ir     4.219499    4.060215   10.000000    ( 0.0000,  0.0000,  0.0000)
   5 Pt     7.032498    4.060215   10.000000    ( 0.0000,  0.0000,  0.0000)
   6 Pd     2.812999    6.496343   10.000000    ( 0.0000,  0.0000,  0.0000)
   7 Pd     5.625998    6.496343   10.000000    ( 0.0000,  0.0000,  0.0000)
   8 Ru     8.438997    6.496343   10.000000    ( 0.0000,  0.0000,  0.0000)
   9 Ag     0.000000    0.000000   12.296804    ( 0.0000,  0.0000,  0.0000)
  10 Ag     2.812999    0.000000   12.296804    ( 0.0000,  0.0000,  0.0000)
  11 Ag     5.625998    0.000000   12.296804    ( 0.0000,  0.0000,  0.0000)
  12 Pt     1.406500    2.436129   12.296804    ( 0.0000,  0.0000,  0.0000)
  13 Pt     4.219499    2.436129   12.296804    ( 0.0000,  0.0000,  0.0000)
  14 Pt     7.032498    2.436129   12.296804    ( 0.0000,  0.0000,  0.0000)
  15 Ru     2.812999    4.872257   12.296804    ( 0.0000,  0.0000,  0.0000)
  16 Pt     5.625998    4.872257   12.296804    ( 0.0000,  0.0000,  0.0000)
  17 Ir     8.438997    4.872257   12.296804    ( 0.0000,  0.0000,  0.0000)
  18 Pt     1.332109    0.739752   14.657190    ( 0.0000,  0.0000,  0.0000)
  19 Ag     4.181114    0.787101   14.648393    ( 0.0000,  0.0000,  0.0000)
  20 Pd     7.001292    0.862035   14.624958    ( 0.0000,  0.0000,  0.0000)
  21 Ag     2.798762    3.196639   14.644135    ( 0.0000,  0.0000,  0.0000)
  22 Ru     5.662360    3.369860   14.464266    ( 0.0000,  0.0000,  0.0000)
  23 Pd     8.452325    3.211799   14.565036    ( 0.0000,  0.0000,  0.0000)
  24 Ir     4.200652    5.609038   14.568963    ( 0.0000,  0.0000,  0.0000)
  25 Ir     7.030451    5.573622   14.568260    ( 0.0000,  0.0000,  0.0000)
  26 Pt     9.856426    5.664630   14.599355    ( 0.0000,  0.0000,  0.0000)
  27 Ir    -0.058768    1.495538   16.939138    ( 0.0000,  0.0000,  0.0000)
  28 Pd     2.746392    1.590303   16.987068    ( 0.0000,  0.0000,  0.0000)
  29 Ag     5.527598    1.595158   16.918090    ( 0.0000,  0.0000,  0.0000)
  30 Pd     1.406453    4.030663   16.988905    ( 0.0000,  0.0000,  0.0000)
  31 Pd     4.190044    4.099837   16.872258    ( 0.0000,  0.0000,  0.0000)
  32 Pd     6.998313    3.985406   16.771392    ( 0.0000,  0.0000,  0.0000)
  33 Ru     2.843846    6.541697   16.748164    ( 0.0000,  0.0000,  0.0000)
  34 Pd     5.658185    6.468579   16.782260    ( 0.0000,  0.0000,  0.0000)
  35 Ir     8.553468    6.373918   16.919864    ( 0.0000,  0.0000,  0.0000)
  36 Ir     0.001473   -0.131892   19.150390    ( 0.0000,  0.0000,  0.0000)
  37 Pt     2.855149   -0.068835   19.125725    ( 0.0000,  0.0000,  0.0000)
  38 Ag     5.647218    0.024336   19.400183    ( 0.0000,  0.0000,  0.0000)
  39 Pd     1.341292    2.373831   19.269862    ( 0.0000,  0.0000,  0.0000)
  40 Pd     4.313760    2.486963   19.249460    ( 0.0000,  0.0000,  0.0000)
  41 Ir     7.162405    2.524482   19.013581    ( 0.0000,  0.0000,  0.0000)
  42 Ag     2.676377    4.830245   19.342370    ( 0.0000,  0.0000,  0.0000)
  43 Ir     5.638811    4.902614   19.293132    ( 0.0000,  0.0000,  0.0000)
  44 Ir     8.264228    4.841043   18.987809    ( 0.0000,  0.0000,  0.0000)
  45 O      4.496545    5.784597   20.388308    ( 0.0000,  0.0000,  0.0000)

Unit cell:
           periodic     x           y           z      points  spacing
  1. axis:    yes    8.465341    0.000000    0.000000    35     0.2095
  2. axis:    yes    4.232670    7.331200    0.000000    35     0.2095
  3. axis:    no     0.000000    0.000000   29.187217   135     0.2162

  Lengths:   8.465341   8.465341  29.187217
  Angles:   90.000000  90.000000  60.000000

Effective grid spacing dv^(1/3) = 0.2221

                     log10-error:    total        iterations:
           time      wfs    density  energy       fermi  poisson
iter:   1  16:18:53  -1.77   +inf  -241.008447    4             
iter:   2  16:20:06  -1.46  -1.90  -283.538865    38            
iter:   3  16:21:18  -1.55  -1.41  -264.250455    33            
iter:   4  16:22:31  -2.38  -1.52  -236.883836    33            
iter:   5  16:23:43  -3.10  -2.15  -237.076564    3             
iter:   6  16:24:56  -3.15  -2.08  -235.987480    3             
iter:   7  16:26:08  -3.30  -2.36  -235.669060    3             
iter:   8  16:27:20  -3.88  -2.53  -235.528734    2             
iter:   9  16:28:33  -4.18  -2.72  -235.493132    2             
iter:  10  16:29:45  -4.34  -2.82  -235.480509    3             
iter:  11  16:30:57  -3.70  -2.84  -235.487898    3             
iter:  12  16:32:09  -4.10  -2.70  -235.551555    3             
iter:  13  16:33:22  -4.29  -2.60  -235.436591    3             
iter:  14  16:34:34  -4.87  -3.00  -235.432673    3             
iter:  15  16:35:46  -5.18  -3.08  -235.422361    3             
iter:  16  16:36:58  -5.57  -3.36  -235.422688    2             
iter:  17  16:38:11  -5.51  -3.36  -235.420536    2             
iter:  18  16:39:23  -5.49  -3.38  -235.428497    2             
iter:  19  16:40:35  -5.46  -3.20  -235.419408    3             
iter:  20  16:41:48  -5.47  -3.54  -235.424052    3             
iter:  21  16:43:00  -5.42  -3.34  -235.419575    3             
iter:  22  16:44:13  -5.85  -3.58  -235.419953    2             
iter:  23  16:45:26  -6.32  -3.85  -235.419944    2             
iter:  24  16:46:38  -6.11  -3.79  -235.421499    2             
iter:  25  16:47:51  -6.71  -3.75  -235.419848    2             
iter:  26  16:49:03  -6.42  -3.91  -235.420475    2             
iter:  27  16:50:16  -6.47  -4.03  -235.420379    2             
iter:  28  16:51:28  -7.01  -3.99  -235.420305    2             
iter:  29  16:52:39  -7.25  -4.19  -235.419955    2             
iter:  30  16:53:51  -7.82  -4.34  -235.420121    2             

Converged after 30 iterations.

Dipole moment: (29.913749, 19.136023, 0.013771) |e|*Ang

Energy contributions relative to reference atoms: (reference = -12877847.605335)

Kinetic:       -211.315819
Potential:      +89.148912
External:        +0.000000
XC:            -105.194229
Entropy (-ST):   -2.201343
Local:           -6.958313
--------------------------
Free energy:   -236.520793
Extrapolated:  -235.420121

Fermi level: 1.06892

Showing only first 2 kpts
 Kpt  Band  Eigenvalues  Occupancy
  0   359      1.05284    0.13503
  0   360      1.06417    0.12796
  0   361      1.10279    0.10403
  0   362      1.13337    0.08606

  1   359      0.97624    0.17911
  1   360      0.99692    0.16815
  1   361      1.02302    0.15319
  1   362      1.04623    0.13912



Forces in eV/Ang:
  0 Pd   -0.12463    0.32219   -0.35873
  1 Ir    0.94056    0.70279    0.62359
  2 Ru   -1.07544    0.29170    0.69243
  3 Ru    0.42520    0.28348    1.59743
  4 Ir   -0.56864   -0.79320    1.16758
  5 Pt    0.15625    0.16637    0.04102
  6 Pd   -0.49879   -0.42230   -0.24184
  7 Pd    0.38115   -0.26192   -0.58374
  8 Ru    0.34348   -0.17506    0.55809
  9 Ag   -0.25212   -0.09148    0.07023
 10 Ag   -0.02101   -0.11599    0.05933
 11 Ag    0.08404   -0.16885   -0.12432
 12 Pt    0.10206    0.73348   -0.56525
 13 Pt    0.12296    0.55115   -0.71899
 14 Pt   -0.11148    0.18203   -0.20170
 15 Ru   -0.37870   -0.71391   -0.98279
 16 Pt   -0.40899    0.17843   -0.09287
 17 Ir    0.89827   -0.11074   -0.95781
 18 Pt    0.00160    0.03965   -0.07631
 19 Ag    0.00139   -0.00904   -0.02246
 20 Pd    0.00166    0.00699    0.04287
 21 Ag   -0.03439   -0.02502   -0.02279
 22 Ru    0.06072    0.00919    0.07771
 23 Pd   -0.04645    0.02151    0.07573
 24 Ir    0.00627    0.00747    0.06602
 25 Ir   -0.02564   -0.03783    0.00022
 26 Pt    0.01351    0.00528    0.02938
 27 Ir   -0.15646   -0.23379    0.46361
 28 Pd   -0.06811    0.04084   -0.07165
 29 Ag    0.10930    0.00865   -0.07492
 30 Pd   -0.12645   -0.11577   -0.31037
 31 Pd    0.15849    0.10280    0.24499
 32 Pd   -0.09056    0.02099   -0.09206
 33 Ru    0.13245    0.02803    0.10031
 34 Pd   -0.12165   -0.13093    0.49616
 35 Ir   -0.03127   -0.03820   -0.02839
 36 Ir   -0.36115    2.39194   -1.80893
 37 Pt    0.10785    0.02774   -0.22606
 38 Ag    0.02659    0.02070    0.03510
 39 Pd   -0.28612   -0.45579   -0.06664
 40 Pd   -0.15807   -0.07473   -0.05710
 41 Ir    0.06410   -0.17736    0.14589
 42 Ag   -0.64819   -0.34973   -0.19287
 43 Ir    2.88734   -2.16720   -2.11933
 44 Ir   -0.55328    0.08905    0.24932
 45 O    -0.87458    0.37013    2.86634

System changes: positions 

Initializing position-dependent things.

Density initialized from wave functions
                                             
                                             
                                             
                                             
                      O                      
                                             
                 Ag     Ir                   
                               Ir            
            Pd     RPd   PdIr    Ir          
                     Ag                      
       Ir     Pt    Pd     Pd                
               Pd     Ag                     
        Ir           Ir     Ir     Pt        
                Ag     Ru     Pd             
                                             
           Pt    RAg    PPd    Ir            
                                             
            Pt     Pt    PPt    Ru           
       Ag     Ag    IAg    Pt                
                                             
        Pd     Ir     Ru                     
                                             
                                             
                                             
                                             
                                             

Positions:
   0 Pd     0.000000    1.624086   10.000000    ( 0.0000,  0.0000,  0.0000)
   1 Ir     2.812999    1.624086   10.000000    ( 0.0000,  0.0000,  0.0000)
   2 Ru     5.625998    1.624086   10.000000    ( 0.0000,  0.0000,  0.0000)
   3 Ru     1.406500    4.060215   10.000000    ( 0.0000,  0.0000,  0.0000)
   4 Ir     4.219499    4.060215   10.000000    ( 0.0000,  0.0000,  0.0000)
   5 Pt     7.032498    4.060215   10.000000    ( 0.0000,  0.0000,  0.0000)
   6 Pd     2.812999    6.496343   10.000000    ( 0.0000,  0.0000,  0.0000)
   7 Pd     5.625998    6.496343   10.000000    ( 0.0000,  0.0000,  0.0000)
   8 Ru     8.438997    6.496343   10.000000    ( 0.0000,  0.0000,  0.0000)
   9 Ag     0.000000    0.000000   12.296804    ( 0.0000,  0.0000,  0.0000)
  10 Ag     2.812999    0.000000   12.296804    ( 0.0000,  0.0000,  0.0000)
  11 Ag     5.625998    0.000000   12.296804    ( 0.0000,  0.0000,  0.0000)
  12 Pt     1.406500    2.436129   12.296804    ( 0.0000,  0.0000,  0.0000)
  13 Pt     4.219499    2.436129   12.296804    ( 0.0000,  0.0000,  0.0000)
  14 Pt     7.032498    2.436129   12.296804    ( 0.0000,  0.0000,  0.0000)
  15 Ru     2.812999    4.872257   12.296804    ( 0.0000,  0.0000,  0.0000)
  16 Pt     5.625998    4.872257   12.296804    ( 0.0000,  0.0000,  0.0000)
  17 Ir     8.438997    4.872257   12.296804    ( 0.0000,  0.0000,  0.0000)
  18 Pt     1.331813    0.739640   14.657218    ( 0.0000,  0.0000,  0.0000)
  19 Ag     4.181265    0.789109   14.647532    ( 0.0000,  0.0000,  0.0000)
  20 Pd     7.001380    0.862086   14.623587    ( 0.0000,  0.0000,  0.0000)
  21 Ag     2.799381    3.197227   14.644685    ( 0.0000,  0.0000,  0.0000)
  22 Ru     5.662060    3.371351   14.464356    ( 0.0000,  0.0000,  0.0000)
  23 Pd     8.452932    3.210985   14.566205    ( 0.0000,  0.0000,  0.0000)
  24 Ir     4.201443    5.610381   14.568973    ( 0.0000,  0.0000,  0.0000)
  25 Ir     7.030877    5.574937   14.566190    ( 0.0000,  0.0000,  0.0000)
  26 Pt     9.856802    5.665002   14.598637    ( 0.0000,  0.0000,  0.0000)
  27 Ir    -0.064418    1.498876   16.939037    ( 0.0000,  0.0000,  0.0000)
  28 Pd     2.746499    1.591131   16.988347    ( 0.0000,  0.0000,  0.0000)
  29 Ag     5.529007    1.595109   16.918111    ( 0.0000,  0.0000,  0.0000)
  30 Pd     1.404996    4.030859   16.984266    ( 0.0000,  0.0000,  0.0000)
  31 Pd     4.188859    4.102059   16.878225    ( 0.0000,  0.0000,  0.0000)
  32 Pd     7.001043    3.980683   16.761007    ( 0.0000,  0.0000,  0.0000)
  33 Ru     2.844271    6.541494   16.749784    ( 0.0000,  0.0000,  0.0000)
  34 Pd     5.659388    6.463073   16.785868    ( 0.0000,  0.0000,  0.0000)
  35 Ir     8.553185    6.375238   16.920015    ( 0.0000,  0.0000,  0.0000)
  36 Ir     0.019465   -0.101464   19.100203    ( 0.0000,  0.0000,  0.0000)
  37 Pt     2.839481   -0.077231   19.130390    ( 0.0000,  0.0000,  0.0000)
  38 Ag     5.651396    0.020974   19.402035    ( 0.0000,  0.0000,  0.0000)
  39 Pd     1.343895    2.374732   19.272571    ( 0.0000,  0.0000,  0.0000)
  40 Pd     4.314205    2.496341   19.251425    ( 0.0000,  0.0000,  0.0000)
  41 Ir     7.165767    2.521320   19.015020    ( 0.0000,  0.0000,  0.0000)
  42 Ag     2.716035    4.849004   19.353397    ( 0.0000,  0.0000,  0.0000)
  43 Ir     5.657080    4.905976   19.217646    ( 0.0000,  0.0000,  0.0000)
  44 Ir     8.268556    4.843429   18.991541    ( 0.0000,  0.0000,  0.0000)
  45 O      4.428626    5.760312   20.482922    ( 0.0000,  0.0000,  0.0000)

Unit cell:
           periodic     x           y           z      points  spacing
  1. axis:    yes    8.465341    0.000000    0.000000    35     0.2095
  2. axis:    yes    4.232670    7.331200    0.000000    35     0.2095
  3. axis:    no     0.000000    0.000000   29.187217   135     0.2162

  Lengths:   8.465341   8.465341  29.187217
  Angles:   90.000000  90.000000  60.000000

Effective grid spacing dv^(1/3) = 0.2221

                     log10-error:    total        iterations:
           time      wfs    density  energy       fermi  poisson
iter:   1  16:55:36  -1.74   +inf  -241.810264    36            
iter:   2  16:56:48  -1.57  -1.91  -317.760092    3             
iter:   3  16:58:00  -1.66  -1.28  -240.250651    34            
iter:   4  16:59:11  -2.44  -1.86  -240.901311    3             
iter:   5  17:00:23  -2.68  -1.84  -236.139225    4             
iter:   6  17:01:36  -3.43  -2.49  -235.938623    3             
iter:   7  17:02:48  -3.71  -2.52  -235.787500    2             
iter:   8  17:04:01  -4.01  -2.82  -235.752384    2             
iter:   9  17:05:13  -4.26  -2.93  -235.847663    3             
iter:  10  17:06:25  -4.22  -2.56  -235.743047    3             
iter:  11  17:07:37  -4.11  -2.94  -235.719636    3             
iter:  12  17:08:49  -4.53  -3.00  -235.742368    3             
iter:  13  17:10:00  -4.76  -2.80  -235.704143    2             
iter:  14  17:11:12  -5.04  -3.28  -235.704753    2             
iter:  15  17:12:24  -5.55  -3.23  -235.703737    2             
iter:  16  17:13:37  -5.14  -3.27  -235.714700    3             
iter:  17  17:14:49  -5.57  -3.15  -235.701668    3             
iter:  18  17:16:02  -5.90  -3.50  -235.703057    2             
iter:  19  17:17:14  -5.90  -3.46  -235.703480    2             
iter:  20  17:18:27  -5.87  -3.46  -235.702175    2             
iter:  21  17:19:39  -6.02  -3.74  -235.702551    2             
iter:  22  17:20:51  -6.03  -3.72  -235.702339    2             
iter:  23  17:22:03  -5.89  -3.79  -235.701620    2             
iter:  24  17:23:16  -6.48  -3.47  -235.701375    2             
iter:  25  17:24:28  -6.89  -4.07  -235.701134    2             
iter:  26  17:25:40  -6.80  -3.96  -235.701146    2             
iter:  27  17:26:52  -6.81  -3.97  -235.701111    2             
iter:  28  17:28:04  -6.82  -4.19  -235.701056    2             
iter:  29  17:29:16  -7.30  -4.21  -235.701084    2             
iter:  30  17:30:29  -7.15  -4.46  -235.701361    2             
iter:  31  17:31:42  -8.33  -4.53  -235.701192    2             

Converged after 31 iterations.

Dipole moment: (28.085468, 18.266386, -0.072747) |e|*Ang

Energy contributions relative to reference atoms: (reference = -12877847.605335)

Kinetic:       -225.542768
Potential:     +101.282517
External:        +0.000000
XC:            -103.401922
Entropy (-ST):   -2.224751
Local:           -6.926644
--------------------------
Free energy:   -236.813568
Extrapolated:  -235.701192

Fermi level: 1.02803

Showing only first 2 kpts
 Kpt  Band  Eigenvalues  Occupancy
  0   359      1.01363    0.13398
  0   360      1.02804    0.12499
  0   361      1.06590    0.10161
  0   362      1.09945    0.08217

  1   359      0.93534    0.17911
  1   360      0.96045    0.16570
  1   361      0.98383    0.15218
  1   362      1.02178    0.12891



Forces in eV/Ang:
  0 Pd   -0.12242    0.32184   -0.35473
  1 Ir    0.94216    0.69994    0.62792
  2 Ru   -1.07964    0.29267    0.69490
  3 Ru    0.42456    0.28535    1.59784
  4 Ir   -0.56324   -0.79168    1.17027
  5 Pt    0.15420    0.16611    0.04545
  6 Pd   -0.49645   -0.42170   -0.23915
  7 Pd    0.38051   -0.26230   -0.57794
  8 Ru    0.34261   -0.17489    0.56544
  9 Ag   -0.24954   -0.09217    0.06603
 10 Ag   -0.02279   -0.10878    0.05803
 11 Ag    0.08311   -0.16734   -0.12776
 12 Pt    0.10128    0.73836   -0.56375
 13 Pt    0.12614    0.55026   -0.71447
 14 Pt   -0.10810    0.18482   -0.19131
 15 Ru   -0.37825   -0.71461   -0.97098
 16 Pt   -0.40892    0.18026   -0.10328
 17 Ir    0.90024   -0.10954   -0.98712
 18 Pt    0.00048    0.02304   -0.03422
 19 Ag    0.00168   -0.01876   -0.00528
 20 Pd   -0.00135    0.00655    0.04547
 21 Ag   -0.02784   -0.02159   -0.01237
 22 Ru    0.04170   -0.00380    0.06171
 23 Pd   -0.02902    0.03406    0.03706
 24 Ir   -0.00216   -0.00588    0.04271
 25 Ir   -0.02025   -0.04107    0.02431
 26 Pt    0.01047   -0.00294    0.03755
 27 Ir   -0.06909   -0.23809    0.39720
 28 Pd   -0.04285    0.02431   -0.05967
 29 Ag    0.06479    0.00220   -0.05263
 30 Pd   -0.07776   -0.08219   -0.16540
 31 Pd    0.13710    0.06538    0.15832
 32 Pd   -0.07611    0.05188    0.01327
 33 Ru    0.10774    0.03623    0.08130
 34 Pd   -0.10989   -0.06006    0.35841
 35 Ir   -0.01756   -0.02157   -0.02692
 36 Ir   -0.18232    0.79513   -0.47116
 37 Pt    0.14529    0.06532   -0.17808
 38 Ag   -0.02338    0.04318    0.00579
 39 Pd   -0.21027   -0.31701   -0.06225
 40 Pd   -0.13127   -0.13637   -0.04278
 41 Ir   -0.00965   -0.07883    0.07472
 42 Ag   -0.72227   -0.37852   -0.20928
 43 Ir    0.95534   -0.68969   -0.12253
 44 Ir   -0.41956    0.03633    0.15106
 45 O     0.59516    0.29422    0.14495

System changes: positions 

Initializing position-dependent things.

Density initialized from wave functions
                                             
                                             
                                             
                                             
                      O                      
                                             
                 Ag      Ir                  
                               Ir            
            Pd     RPd   PdIr   Ir           
                     Ag                      
       Ir    PPt    Pd     Pd                
        Ir     Pd     Ag                     
                     Ir     Ir     Pt        
                Ag     Ru     Pd             
                                             
           Pt    RAg    PPd    Ir            
                                             
            Pt     Pt    PPt    Ru           
       Ag     Ag    IAg    Pt                
                                             
        Pd     Ir     Ru                     
                                             
                                             
                                             
                                             
                                             

Positions:
   0 Pd     0.000000    1.624086   10.000000    ( 0.0000,  0.0000,  0.0000)
   1 Ir     2.812999    1.624086   10.000000    ( 0.0000,  0.0000,  0.0000)
   2 Ru     5.625998    1.624086   10.000000    ( 0.0000,  0.0000,  0.0000)
   3 Ru     1.406500    4.060215   10.000000    ( 0.0000,  0.0000,  0.0000)
   4 Ir     4.219499    4.060215   10.000000    ( 0.0000,  0.0000,  0.0000)
   5 Pt     7.032498    4.060215   10.000000    ( 0.0000,  0.0000,  0.0000)
   6 Pd     2.812999    6.496343   10.000000    ( 0.0000,  0.0000,  0.0000)
   7 Pd     5.625998    6.496343   10.000000    ( 0.0000,  0.0000,  0.0000)
   8 Ru     8.438997    6.496343   10.000000    ( 0.0000,  0.0000,  0.0000)
   9 Ag     0.000000    0.000000   12.296804    ( 0.0000,  0.0000,  0.0000)
  10 Ag     2.812999    0.000000   12.296804    ( 0.0000,  0.0000,  0.0000)
  11 Ag     5.625998    0.000000   12.296804    ( 0.0000,  0.0000,  0.0000)
  12 Pt     1.406500    2.436129   12.296804    ( 0.0000,  0.0000,  0.0000)
  13 Pt     4.219499    2.436129   12.296804    ( 0.0000,  0.0000,  0.0000)
  14 Pt     7.032498    2.436129   12.296804    ( 0.0000,  0.0000,  0.0000)
  15 Ru     2.812999    4.872257   12.296804    ( 0.0000,  0.0000,  0.0000)
  16 Pt     5.625998    4.872257   12.296804    ( 0.0000,  0.0000,  0.0000)
  17 Ir     8.438997    4.872257   12.296804    ( 0.0000,  0.0000,  0.0000)
  18 Pt     1.332080    0.742057   14.653730    ( 0.0000,  0.0000,  0.0000)
  19 Ag     4.181324    0.785725   14.647632    ( 0.0000,  0.0000,  0.0000)
  20 Pd     7.001178    0.862712   14.629207    ( 0.0000,  0.0000,  0.0000)
  21 Ag     2.796104    3.194606   14.643026    ( 0.0000,  0.0000,  0.0000)
  22 Ru     5.666506    3.369865   14.470541    ( 0.0000,  0.0000,  0.0000)
  23 Pd     8.449544    3.215037   14.569096    ( 0.0000,  0.0000,  0.0000)
  24 Ir     4.200640    5.608793   14.573293    ( 0.0000,  0.0000,  0.0000)
  25 Ir     7.028511    5.569805   14.570182    ( 0.0000,  0.0000,  0.0000)
  26 Pt     9.857586    5.664429   14.602971    ( 0.0000,  0.0000,  0.0000)
  27 Ir    -0.067246    1.472289   16.979352    ( 0.0000,  0.0000,  0.0000)
  28 Pd     2.742079    1.592983   16.981357    ( 0.0000,  0.0000,  0.0000)
  29 Ag     5.534531    1.595368   16.912764    ( 0.0000,  0.0000,  0.0000)
  30 Pd     1.398195    4.022388   16.970935    ( 0.0000,  0.0000,  0.0000)
  31 Pd     4.203624    4.107041   16.889858    ( 0.0000,  0.0000,  0.0000)
  32 Pd     6.991317    3.989426   16.770021    ( 0.0000,  0.0000,  0.0000)
  33 Ru     2.854873    6.545315   16.756824    ( 0.0000,  0.0000,  0.0000)
  34 Pd     5.647366    6.461054   16.819515    ( 0.0000,  0.0000,  0.0000)
  35 Ir     8.551615    6.372078   16.917175    ( 0.0000,  0.0000,  0.0000)
  36 Ir    -0.012293   -0.043377   19.089530    ( 0.0000,  0.0000,  0.0000)
  37 Pt     2.865771   -0.064413   19.108903    ( 0.0000,  0.0000,  0.0000)
  38 Ag     5.645941    0.027832   19.401254    ( 0.0000,  0.0000,  0.0000)
  39 Pd     1.320669    2.341949   19.264264    ( 0.0000,  0.0000,  0.0000)
  40 Pd     4.300577    2.475600   19.245640    ( 0.0000,  0.0000,  0.0000)
  41 Ir     7.162306    2.515669   19.021527    ( 0.0000,  0.0000,  0.0000)
  42 Ag     2.613574    4.796802   19.324052    ( 0.0000,  0.0000,  0.0000)
  43 Ir     5.740376    4.833619   19.260977    ( 0.0000,  0.0000,  0.0000)
  44 Ir     8.222853    4.845348   19.004089    ( 0.0000,  0.0000,  0.0000)
  45 O      4.539079    5.808054   20.427737    ( 0.0000,  0.0000,  0.0000)

Unit cell:
           periodic     x           y           z      points  spacing
  1. axis:    yes    8.465341    0.000000    0.000000    35     0.2095
  2. axis:    yes    4.232670    7.331200    0.000000    35     0.2095
  3. axis:    no     0.000000    0.000000   29.187217   135     0.2162

  Lengths:   8.465341   8.465341  29.187217
  Angles:   90.000000  90.000000  60.000000

Effective grid spacing dv^(1/3) = 0.2221

                     log10-error:    total        iterations:
           time      wfs    density  energy       fermi  poisson
iter:   1  17:33:27  -1.74   +inf  -249.114246    4             
iter:   2  17:34:39  -0.43  -1.61  -522.319568    39            
iter:   3  17:35:51  -1.25  -0.99  -254.976419    38            
iter:   4  17:37:04  -1.90  -1.64  -237.898323    33            
iter:   5  17:38:16  -2.69  -2.12  -236.265332    3             
iter:   6  17:39:29  -3.40  -2.49  -236.089465    3             
iter:   7  17:40:42  -3.78  -2.62  -236.050101    2             
iter:   8  17:41:55  -3.68  -2.58  -236.305930    2             
iter:   9  17:43:07  -4.00  -2.37  -235.955090    3             
iter:  10  17:44:20  -4.28  -2.86  -235.939161    2             
iter:  11  17:45:32  -4.19  -2.91  -235.950252    3             
iter:  12  17:46:44  -4.65  -2.93  -235.923185    3             
iter:  13  17:47:55  -4.77  -3.11  -235.925509    3             
iter:  14  17:49:07  -5.07  -3.14  -235.942771    2             
iter:  15  17:50:19  -5.13  -2.94  -235.921455    2             
iter:  16  17:51:31  -5.30  -3.20  -235.918474    2             
iter:  17  17:52:43  -5.61  -3.33  -235.921558    2             
iter:  18  17:53:56  -5.38  -3.29  -235.916705    2             
iter:  19  17:55:10  -5.80  -3.44  -235.917302    2             
iter:  20  17:56:23  -5.78  -3.54  -235.917993    2             
iter:  21  17:57:37  -5.94  -3.43  -235.917131    2             
iter:  22  17:58:51  -5.81  -3.47  -235.915504    2             
iter:  23  18:00:05  -6.08  -3.70  -235.916801    2             
iter:  24  18:01:18  -5.97  -3.78  -235.915532    2             
iter:  25  18:02:32  -6.32  -3.70  -235.916287    2             
iter:  26  18:03:46  -6.42  -3.90  -235.915812    2             
iter:  27  18:05:00  -6.80  -3.92  -235.915709    2             
iter:  28  18:06:14  -6.75  -3.87  -235.915460    2             
iter:  29  18:07:28  -6.91  -4.00  -235.916025    2             
iter:  30  18:08:41  -6.69  -4.10  -235.915557    2             
iter:  31  18:09:55  -7.09  -3.95  -235.916002    2             
iter:  32  18:11:09  -7.26  -4.19  -235.915726    2             
iter:  33  18:12:23  -7.47  -4.19  -235.915795    2             

Converged after 33 iterations.

Dipole moment: (32.363622, 14.737339, -0.066547) |e|*Ang

Energy contributions relative to reference atoms: (reference = -12877847.605335)

Kinetic:       -220.015429
Potential:      +96.312241
External:        +0.000000
XC:            -104.167707
Entropy (-ST):   -2.213066
Local:           -6.938367
--------------------------
Free energy:   -237.022328
Extrapolated:  -235.915795

Fermi level: 1.03094

Showing only first 2 kpts
 Kpt  Band  Eigenvalues  Occupancy
  0   359      1.01904    0.13242
  0   360      1.02721    0.12733
  0   361      1.06729    0.10252
  0   362      1.09983    0.08357

  1   359      0.93467    0.18091
  1   360      0.96553    0.16448
  1   361      0.98528    0.15305
  1   362      0.99918    0.14468



Forces in eV/Ang:
  0 Pd   -0.12343    0.32169   -0.35169
  1 Ir    0.94434    0.69715    0.62403
  2 Ru   -1.08179    0.29299    0.70313
  3 Ru    0.42033    0.28369    1.62249
  4 Ir   -0.55768   -0.79291    1.17900
  5 Pt    0.15331    0.16677    0.05153
  6 Pd   -0.49821   -0.42315   -0.23779
  7 Pd    0.38176   -0.26108   -0.57887
  8 Ru    0.34068   -0.17308    0.57425
  9 Ag   -0.25739   -0.09585    0.08107
 10 Ag   -0.02207   -0.11645    0.06858
 11 Ag    0.09019   -0.16808   -0.10429
 12 Pt    0.08692    0.73459   -0.54224
 13 Pt    0.13340    0.54758   -0.69663
 14 Pt   -0.10952    0.17779   -0.16680
 15 Ru   -0.37883   -0.71387   -0.97260
 16 Pt   -0.41992    0.16854   -0.05662
 17 Ir    0.89699   -0.09836   -0.97319
 18 Pt   -0.03829   -0.06321    0.10836
 19 Ag   -0.00726   -0.01282   -0.01192
 20 Pd    0.04412    0.01380    0.01597
 21 Ag    0.03600    0.00933    0.01226
 22 Ru    0.00315    0.00584    0.01015
 23 Pd   -0.06102   -0.01550    0.05926
 24 Ir    0.05293    0.01854    0.06376
 25 Ir   -0.02992    0.03220    0.05136
 26 Pt    0.03934    0.01961    0.03885
 27 Ir   -0.01103    0.13914   -0.23298
 28 Pd   -0.01257    0.05613   -0.10030
 29 Ag   -0.00578    0.00437   -0.04636
 30 Pd   -0.20542   -0.09658   -0.20925
 31 Pd   -0.05295    0.00545    0.16850
 32 Pd    0.00893   -0.05608   -0.09320
 33 Ru   -0.05888   -0.12962    0.02889
 34 Pd   -0.01063   -0.03983    0.07336
 35 Ir    0.00599   -0.05115    0.02619
 36 Ir   -0.09593   -0.00752    0.10090
 37 Pt   -0.02435    0.02496   -0.08464
 38 Ag    0.02111   -0.06790    0.03826
 39 Pd   -0.06028   -0.23101   -0.01201
 40 Pd   -0.17863   -0.00697   -0.04638
 41 Ir   -0.06834   -0.23056    0.22272
 42 Ag    0.09764    0.08861    0.10118
 43 Ir   -0.13355   -0.22601   -0.13337
 44 Ir    0.52334    0.16146   -0.04432
 45 O     0.33466    0.16315   -0.20223

System changes: positions 

Initializing position-dependent things.

Density initialized from wave functions
                                             
                                             
                                             
                                             
                       O                     
                                             
                 Ag      Ir                  
                               Ir            
            Pd     Pd    PdIr   Ir           
                     Ag                      
       Ir    PPt    Pd     Pd                
        Ir     Pd     Ag                     
                     Ir     Ir     Pt        
                Ag     Ru     Pd             
                                             
           Pt    RAg    PPd    Ir            
                                             
            Pt     Pt    PPt    Ru           
       Ag     Ag    IAg    Pt                
                                             
        Pd     Ir     Ru                     
                                             
                                             
                                             
                                             
                                             

Positions:
   0 Pd     0.000000    1.624086   10.000000    ( 0.0000,  0.0000,  0.0000)
   1 Ir     2.812999    1.624086   10.000000    ( 0.0000,  0.0000,  0.0000)
   2 Ru     5.625998    1.624086   10.000000    ( 0.0000,  0.0000,  0.0000)
   3 Ru     1.406500    4.060215   10.000000    ( 0.0000,  0.0000,  0.0000)
   4 Ir     4.219499    4.060215   10.000000    ( 0.0000,  0.0000,  0.0000)
   5 Pt     7.032498    4.060215   10.000000    ( 0.0000,  0.0000,  0.0000)
   6 Pd     2.812999    6.496343   10.000000    ( 0.0000,  0.0000,  0.0000)
   7 Pd     5.625998    6.496343   10.000000    ( 0.0000,  0.0000,  0.0000)
   8 Ru     8.438997    6.496343   10.000000    ( 0.0000,  0.0000,  0.0000)
   9 Ag     0.000000    0.000000   12.296804    ( 0.0000,  0.0000,  0.0000)
  10 Ag     2.812999    0.000000   12.296804    ( 0.0000,  0.0000,  0.0000)
  11 Ag     5.625998    0.000000   12.296804    ( 0.0000,  0.0000,  0.0000)
  12 Pt     1.406500    2.436129   12.296804    ( 0.0000,  0.0000,  0.0000)
  13 Pt     4.219499    2.436129   12.296804    ( 0.0000,  0.0000,  0.0000)
  14 Pt     7.032498    2.436129   12.296804    ( 0.0000,  0.0000,  0.0000)
  15 Ru     2.812999    4.872257   12.296804    ( 0.0000,  0.0000,  0.0000)
  16 Pt     5.625998    4.872257   12.296804    ( 0.0000,  0.0000,  0.0000)
  17 Ir     8.438997    4.872257   12.296804    ( 0.0000,  0.0000,  0.0000)
  18 Pt     1.328111    0.736165   14.664052    ( 0.0000,  0.0000,  0.0000)
  19 Ag     4.180573    0.783221   14.646407    ( 0.0000,  0.0000,  0.0000)
  20 Pd     7.005788    0.864384   14.632789    ( 0.0000,  0.0000,  0.0000)
  21 Ag     2.798820    3.194714   14.643768    ( 0.0000,  0.0000,  0.0000)
  22 Ru     5.668330    3.369978   14.473687    ( 0.0000,  0.0000,  0.0000)
  23 Pd     8.441936    3.214755   14.576341    ( 0.0000,  0.0000,  0.0000)
  24 Ir     4.205979    5.610219   14.581500    ( 0.0000,  0.0000,  0.0000)
  25 Ir     7.024543    5.571493   14.576976    ( 0.0000,  0.0000,  0.0000)
  26 Pt     9.862017    5.666314   14.608546    ( 0.0000,  0.0000,  0.0000)
  27 Ir    -0.069328    1.478123   16.968145    ( 0.0000,  0.0000,  0.0000)
  28 Pd     2.739265    1.599549   16.968375    ( 0.0000,  0.0000,  0.0000)
  29 Ag     5.535759    1.595919   16.906057    ( 0.0000,  0.0000,  0.0000)
  30 Pd     1.374146    4.009310   16.944313    ( 0.0000,  0.0000,  0.0000)
  31 Pd     4.202959    4.109274   16.911583    ( 0.0000,  0.0000,  0.0000)
  32 Pd     6.988992    3.986435   16.763218    ( 0.0000,  0.0000,  0.0000)
  33 Ru     2.852176    6.532852   16.762234    ( 0.0000,  0.0000,  0.0000)
  34 Pd     5.642208    6.456187   16.838535    ( 0.0000,  0.0000,  0.0000)
  35 Ir     8.551727    6.365589   16.919001    ( 0.0000,  0.0000,  0.0000)
  36 Ir    -0.033204   -0.024913   19.096958    ( 0.0000,  0.0000,  0.0000)
  37 Pt     2.872084   -0.057425   19.092708    ( 0.0000,  0.0000,  0.0000)
  38 Ag     5.646329    0.022948   19.405038    ( 0.0000,  0.0000,  0.0000)
  39 Pd     1.306487    2.306475   19.260194    ( 0.0000,  0.0000,  0.0000)
  40 Pd     4.277072    2.467861   19.238773    ( 0.0000,  0.0000,  0.0000)
  41 Ir     7.153881    2.489350   19.047312    ( 0.0000,  0.0000,  0.0000)
  42 Ag     2.589390    4.788610   19.324890    ( 0.0000,  0.0000,  0.0000)
  43 Ir     5.753989    4.785413   19.261793    ( 0.0000,  0.0000,  0.0000)
  44 Ir     8.263019    4.863095   19.003568    ( 0.0000,  0.0000,  0.0000)
  45 O      4.611946    5.841481   20.387254    ( 0.0000,  0.0000,  0.0000)

Unit cell:
           periodic     x           y           z      points  spacing
  1. axis:    yes    8.465341    0.000000    0.000000    35     0.2095
  2. axis:    yes    4.232670    7.331200    0.000000    35     0.2095
  3. axis:    no     0.000000    0.000000   29.187217   135     0.2162

  Lengths:   8.465341   8.465341  29.187217
  Angles:   90.000000  90.000000  60.000000

Effective grid spacing dv^(1/3) = 0.2221

                     log10-error:    total        iterations:
           time      wfs    density  energy       fermi  poisson
iter:   1  18:14:11  -2.19   +inf  -236.536011    3             
iter:   2  18:15:26  -2.37  -2.30  -250.627638    3             
iter:   3  18:16:41  -2.60  -1.62  -236.547598    3             
iter:   4  18:17:56  -3.44  -2.35  -236.034475    3             
iter:   5  18:19:11  -4.31  -2.77  -236.011403    3             
iter:   6  18:20:25  -4.43  -2.82  -235.994766    2             
iter:   7  18:21:40  -4.47  -2.93  -235.984233    3             
iter:   8  18:22:55  -4.97  -3.15  -235.982835    2             
iter:   9  18:24:09  -5.02  -3.12  -235.978514    3             
iter:  10  18:25:23  -4.78  -3.24  -235.992680    3             
iter:  11  18:26:37  -5.16  -3.06  -235.977859    2             
iter:  12  18:27:50  -5.52  -3.46  -235.976502    2             
iter:  13  18:29:04  -5.92  -3.53  -235.977732    2             
iter:  14  18:30:18  -6.07  -3.52  -235.976230    2             
iter:  15  18:31:32  -6.04  -3.68  -235.975487    2             
iter:  16  18:32:46  -6.32  -3.71  -235.977125    2             
iter:  17  18:33:59  -6.39  -3.59  -235.975781    2             
iter:  18  18:35:13  -6.45  -3.78  -235.975415    2             
iter:  19  18:36:28  -6.44  -3.90  -235.975971    2             
iter:  20  18:37:42  -6.57  -4.00  -235.975539    2             
iter:  21  18:38:56  -6.81  -4.03  -235.975368    2             
iter:  22  18:40:10  -6.78  -4.07  -235.976362    2             
iter:  23  18:41:23  -7.05  -3.88  -235.975707    2             
iter:  24  18:42:37  -7.15  -4.14  -235.975544    2             
iter:  25  18:43:51  -7.13  -4.26  -235.975807    2             
iter:  26  18:45:04  -7.41  -4.30  -235.975668    2             

Converged after 26 iterations.

Dipole moment: (33.356496, 13.374606, -0.052137) |e|*Ang

Energy contributions relative to reference atoms: (reference = -12877847.605335)

Kinetic:       -220.699057
Potential:      +96.824995
External:        +0.000000
XC:            -104.066651
Entropy (-ST):   -2.208608
Local:           -6.930652
--------------------------
Free energy:   -237.079972
Extrapolated:  -235.975668

Fermi level: 1.03451

Showing only first 2 kpts
 Kpt  Band  Eigenvalues  Occupancy
  0   359      1.01646    0.13625
  0   360      1.03331    0.12575
  0   361      1.07713    0.09876
  0   362      1.10032    0.08529

  1   359      0.93572    0.18217
  1   360      0.96539    0.16656
  1   361      0.99171    0.15134
  1   362      0.99720    0.14805



Forces in eV/Ang:
  0 Pd   -0.12513    0.32062   -0.35279
  1 Ir    0.94783    0.69446    0.61793
  2 Ru   -1.08134    0.29283    0.69782
  3 Ru    0.41903    0.28615    1.63775
  4 Ir   -0.55917   -0.79033    1.18192
  5 Pt    0.15353    0.16596    0.05300
  6 Pd   -0.49621   -0.42107   -0.23745
  7 Pd    0.38092   -0.26039   -0.57981
  8 Ru    0.34246   -0.17069    0.57069
  9 Ag   -0.25084   -0.09874    0.09955
 10 Ag   -0.03348   -0.12216    0.08276
 11 Ag    0.09757   -0.17498   -0.09220
 12 Pt    0.07501    0.74116   -0.51152
 13 Pt    0.13733    0.55638   -0.69654
 14 Pt   -0.10634    0.18193   -0.16309
 15 Ru   -0.38278   -0.71626   -0.96635
 16 Pt   -0.41767    0.16940   -0.02742
 17 Ir    0.89617   -0.09998   -0.94715
 18 Pt   -0.00941   -0.04462    0.05452
 19 Ag   -0.00028   -0.01811   -0.01857
 20 Pd    0.00125   -0.03488   -0.01024
 21 Ag    0.04724    0.03167   -0.01344
 22 Ru   -0.03501   -0.00677   -0.04360
 23 Pd   -0.00510   -0.03932   -0.04644
 24 Ir    0.03337   -0.01112    0.05527
 25 Ir   -0.01333    0.06301   -0.00539
 26 Pt    0.02658    0.01368   -0.04641
 27 Ir   -0.08062    0.11052   -0.12908
 28 Pd   -0.00403    0.03091   -0.09338
 29 Ag   -0.01888   -0.01348    0.01547
 30 Pd   -0.06862   -0.11167   -0.10106
 31 Pd   -0.14387   -0.00266    0.11661
 32 Pd    0.01375   -0.11041    0.17567
 33 Ru   -0.06194   -0.05456    0.00220
 34 Pd    0.00591   -0.04690    0.01997
 35 Ir    0.01720    0.00904   -0.03962
 36 Ir   -0.03965   -0.05786    0.01590
 37 Pt   -0.02257   -0.07954   -0.06363
 38 Ag   -0.02507   -0.04122    0.06704
 39 Pd    0.06448   -0.00669   -0.00568
 40 Pd   -0.12050   -0.01792   -0.02353
 41 Ir    0.16003    0.04475   -0.02806
 42 Ag    0.23734    0.08304    0.10794
 43 Ir    0.18363   -0.01235   -0.29051
 44 Ir   -0.07087   -0.22227   -0.11628
 45 O    -0.24654   -0.07343   -0.09163

System changes: positions 

Initializing position-dependent things.

Density initialized from wave functions
                                             
                                             
                                             
                                             
                       O                     
                                             
                 Ag      Ir                  
                               Ir            
            Pd     Pd    PdIr   Ir           
                     Ag                      
       Ir    PPt    Pd     Pd                
        Ir     Pd     Ag                     
                     Ir     Ir     Pt        
                Ag     Ru     Pd             
                                             
           Pt     Ag    PPd    Ir            
                                             
            Pt     Pt    PPt    Ru           
       Ag     Ag    IAg    Pt                
                                             
         Pd    Ir     Ru                     
                                             
                                             
                                             
                                             
                                             

Positions:
   0 Pd     0.000000    1.624086   10.000000    ( 0.0000,  0.0000,  0.0000)
   1 Ir     2.812999    1.624086   10.000000    ( 0.0000,  0.0000,  0.0000)
   2 Ru     5.625998    1.624086   10.000000    ( 0.0000,  0.0000,  0.0000)
   3 Ru     1.406500    4.060215   10.000000    ( 0.0000,  0.0000,  0.0000)
   4 Ir     4.219499    4.060215   10.000000    ( 0.0000,  0.0000,  0.0000)
   5 Pt     7.032498    4.060215   10.000000    ( 0.0000,  0.0000,  0.0000)
   6 Pd     2.812999    6.496343   10.000000    ( 0.0000,  0.0000,  0.0000)
   7 Pd     5.625998    6.496343   10.000000    ( 0.0000,  0.0000,  0.0000)
   8 Ru     8.438997    6.496343   10.000000    ( 0.0000,  0.0000,  0.0000)
   9 Ag     0.000000    0.000000   12.296804    ( 0.0000,  0.0000,  0.0000)
  10 Ag     2.812999    0.000000   12.296804    ( 0.0000,  0.0000,  0.0000)
  11 Ag     5.625998    0.000000   12.296804    ( 0.0000,  0.0000,  0.0000)
  12 Pt     1.406500    2.436129   12.296804    ( 0.0000,  0.0000,  0.0000)
  13 Pt     4.219499    2.436129   12.296804    ( 0.0000,  0.0000,  0.0000)
  14 Pt     7.032498    2.436129   12.296804    ( 0.0000,  0.0000,  0.0000)
  15 Ru     2.812999    4.872257   12.296804    ( 0.0000,  0.0000,  0.0000)
  16 Pt     5.625998    4.872257   12.296804    ( 0.0000,  0.0000,  0.0000)
  17 Ir     8.438997    4.872257   12.296804    ( 0.0000,  0.0000,  0.0000)
  18 Pt     1.326059    0.730256   14.672218    ( 0.0000,  0.0000,  0.0000)
  19 Ag     4.180329    0.781105   14.644321    ( 0.0000,  0.0000,  0.0000)
  20 Pd     7.007278    0.861692   14.632572    ( 0.0000,  0.0000,  0.0000)
  21 Ag     2.804094    3.197773   14.642880    ( 0.0000,  0.0000,  0.0000)
  22 Ru     5.665460    3.369541   14.470358    ( 0.0000,  0.0000,  0.0000)
  23 Pd     8.439427    3.210869   14.574183    ( 0.0000,  0.0000,  0.0000)
  24 Ir     4.210654    5.609776   14.588706    ( 0.0000,  0.0000,  0.0000)
  25 Ir     7.022305    5.578016   14.578200    ( 0.0000,  0.0000,  0.0000)
  26 Pt     9.865709    5.668156   14.605739    ( 0.0000,  0.0000,  0.0000)
  27 Ir    -0.077344    1.491362   16.951074    ( 0.0000,  0.0000,  0.0000)
  28 Pd     2.738301    1.604229   16.956502    ( 0.0000,  0.0000,  0.0000)
  29 Ag     5.534192    1.594847   16.905751    ( 0.0000,  0.0000,  0.0000)
  30 Pd     1.361111    3.995783   16.927778    ( 0.0000,  0.0000,  0.0000)
  31 Pd     4.188932    4.109536   16.928224    ( 0.0000,  0.0000,  0.0000)
  32 Pd     6.990169    3.974901   16.776181    ( 0.0000,  0.0000,  0.0000)
  33 Ru     2.845247    6.524024   16.763743    ( 0.0000,  0.0000,  0.0000)
  34 Pd     5.641889    6.450365   16.844396    ( 0.0000,  0.0000,  0.0000)
  35 Ir     8.553385    6.364709   16.916108    ( 0.0000,  0.0000,  0.0000)
  36 Ir    -0.040545   -0.026330   19.098921    ( 0.0000,  0.0000,  0.0000)
  37 Pt     2.869864   -0.063587   19.083473    ( 0.0000,  0.0000,  0.0000)
  38 Ag     5.644639    0.017273   19.412346    ( 0.0000,  0.0000,  0.0000)
  39 Pd     1.309439    2.297108   19.259024    ( 0.0000,  0.0000,  0.0000)
  40 Pd     4.259939    2.465433   19.234998    ( 0.0000,  0.0000,  0.0000)
  41 Ir     7.166199    2.485770   19.052126    ( 0.0000,  0.0000,  0.0000)
  42 Ag     2.610740    4.797216   19.336902    ( 0.0000,  0.0000,  0.0000)
  43 Ir     5.771158    4.773912   19.230179    ( 0.0000,  0.0000,  0.0000)
  44 Ir     8.271020    4.848235   18.992410    ( 0.0000,  0.0000,  0.0000)
  45 O      4.602495    5.841190   20.374015    ( 0.0000,  0.0000,  0.0000)

Unit cell:
           periodic     x           y           z      points  spacing
  1. axis:    yes    8.465341    0.000000    0.000000    35     0.2095
  2. axis:    yes    4.232670    7.331200    0.000000    35     0.2095
  3. axis:    no     0.000000    0.000000   29.187217   135     0.2162

  Lengths:   8.465341   8.465341  29.187217
  Angles:   90.000000  90.000000  60.000000

Effective grid spacing dv^(1/3) = 0.2221

                     log10-error:    total        iterations:
           time      wfs    density  energy       fermi  poisson
iter:   1  18:46:51  -2.60   +inf  -236.146209    3             
iter:   2  18:48:05  -2.94  -2.57  -240.081559    2             
iter:   3  18:49:18  -3.34  -1.85  -236.021822    3             
iter:   4  18:50:32  -4.29  -3.01  -236.009782    2             
iter:   5  18:51:45  -4.80  -3.12  -236.009167    2             
iter:   6  18:52:58  -4.82  -3.19  -236.005487    3             
iter:   7  18:54:12  -4.87  -3.18  -236.005050    3             
iter:   8  18:55:26  -5.08  -3.42  -236.001768    2             
iter:   9  18:56:40  -5.19  -3.44  -236.013687    2             
iter:  10  18:57:54  -5.42  -3.10  -236.001208    2             
iter:  11  18:59:08  -5.97  -3.49  -236.001170    2             
iter:  12  19:00:22  -6.23  -3.73  -236.000497    2             
iter:  13  19:01:36  -6.19  -3.73  -236.001742    2             
iter:  14  19:02:50  -6.57  -3.82  -236.000702    2             
iter:  15  19:04:04  -6.43  -3.90  -236.001685    2             
iter:  16  19:05:18  -6.71  -3.77  -236.000978    2             
iter:  17  19:06:32  -6.68  -3.83  -236.001231    2             
iter:  18  19:07:46  -6.92  -4.09  -236.000909    2             
iter:  19  19:09:00  -6.92  -4.23  -236.001393    2             
iter:  20  19:10:14  -7.28  -4.17  -236.000942    2             
iter:  21  19:11:28  -7.31  -4.38  -236.001146    2             
iter:  22  19:12:42  -7.25  -4.24  -236.001013    2             
iter:  23  19:13:56  -7.28  -4.08  -236.001072    2             
iter:  24  19:15:10  -7.60  -4.44  -236.000913    2             

Converged after 24 iterations.

Dipole moment: (32.685753, 13.585962, -0.049565) |e|*Ang

Energy contributions relative to reference atoms: (reference = -12877847.605335)

Kinetic:       -221.193060
Potential:      +97.253591
External:        +0.000000
XC:            -104.035921
Entropy (-ST):   -2.210204
Local:           -6.920421
--------------------------
Free energy:   -237.106015
Extrapolated:  -236.000913

Fermi level: 1.03444

Showing only first 2 kpts
 Kpt  Band  Eigenvalues  Occupancy
  0   359      1.01779    0.13538
  0   360      1.03504    0.12463
  0   361      1.07786    0.09828
  0   362      1.10067    0.08506

  1   359      0.93596    0.18202
  1   360      0.96559    0.16641
  1   361      0.99166    0.15134
  1   362      0.99637    0.14851



Forces in eV/Ang:
  0 Pd   -0.12663    0.32162   -0.35338
  1 Ir    0.95072    0.69210    0.61432
  2 Ru   -1.07990    0.29459    0.69157
  3 Ru    0.41897    0.28675    1.63900
  4 Ir   -0.55906   -0.79184    1.17686
  5 Pt    0.15334    0.16531    0.04837
  6 Pd   -0.49732   -0.42064   -0.23993
  7 Pd    0.38192   -0.26019   -0.58255
  8 Ru    0.34191   -0.16918    0.56410
  9 Ag   -0.24321   -0.10363    0.11468
 10 Ag   -0.04224   -0.11796    0.08351
 11 Ag    0.09851   -0.17290   -0.10511
 12 Pt    0.08135    0.73605   -0.50214
 13 Pt    0.13325    0.55506   -0.71166
 14 Pt   -0.11164    0.17810   -0.17185
 15 Ru   -0.38262   -0.71495   -0.97315
 16 Pt   -0.41654    0.18141   -0.02417
 17 Ir    0.89253   -0.09946   -0.93950
 18 Pt    0.01081   -0.00431   -0.01498
 19 Ag    0.01250    0.00315   -0.02066
 20 Pd   -0.04294   -0.04432   -0.02350
 21 Ag    0.01912    0.01243   -0.04522
 22 Ru    0.01185    0.00284    0.01832
 23 Pd   -0.00687    0.00716   -0.06616
 24 Ir    0.01436   -0.02693    0.02872
 25 Ir    0.00416   -0.04099    0.03225
 26 Pt   -0.00975   -0.02228   -0.06618
 27 Ir   -0.03194   -0.09283    0.06303
 28 Pd   -0.00161   -0.05123   -0.01630
 29 Ag   -0.02789   -0.01435    0.04846
 30 Pd    0.02515   -0.03521    0.03345
 31 Pd   -0.08064    0.00153    0.03208
 32 Pd   -0.09863   -0.02901   -0.04096
 33 Ru   -0.00910    0.04547    0.02572
 34 Pd   -0.01541   -0.03131   -0.02305
 35 Ir   -0.00064   -0.01294   -0.05138
 36 Ir   -0.02341    0.04505   -0.09441
 37 Pt    0.01010   -0.10175   -0.05930
 38 Ag   -0.05895   -0.01888    0.04230
 39 Pd    0.14085    0.08369   -0.03690
 40 Pd   -0.03721   -0.03103   -0.01424
 41 Ir    0.07835   -0.07777   -0.07296
 42 Ag    0.06853   -0.01885    0.01143
 43 Ir   -0.17057    0.19322    0.04393
 44 Ir    0.08994   -0.11634   -0.01169
 45 O     0.13067   -0.23008   -0.28248

System changes: positions 

Initializing position-dependent things.

Density initialized from wave functions
                                             
                                             
                                             
                                             
                       O                     
                                             
                 Ag      Ir                  
                               Ir            
            Pd     Pd    PdIr    Ir          
                     Ag                      
       Ir    PPt    Pd     Pd                
        Ir     Pd     Ag                     
                     Ir     Ir     Pt        
                Ag     Ru     Pd             
                                             
           Pt     Ag    PPd    Ir            
                                             
            Pt     Pt    PPt    Ru           
       Ag     Ag    IAg    Pt                
                                             
         Pd    Ir     Ru                     
                                             
                                             
                                             
                                             
                                             

Positions:
   0 Pd     0.000000    1.624086   10.000000    ( 0.0000,  0.0000,  0.0000)
   1 Ir     2.812999    1.624086   10.000000    ( 0.0000,  0.0000,  0.0000)
   2 Ru     5.625998    1.624086   10.000000    ( 0.0000,  0.0000,  0.0000)
   3 Ru     1.406500    4.060215   10.000000    ( 0.0000,  0.0000,  0.0000)
   4 Ir     4.219499    4.060215   10.000000    ( 0.0000,  0.0000,  0.0000)
   5 Pt     7.032498    4.060215   10.000000    ( 0.0000,  0.0000,  0.0000)
   6 Pd     2.812999    6.496343   10.000000    ( 0.0000,  0.0000,  0.0000)
   7 Pd     5.625998    6.496343   10.000000    ( 0.0000,  0.0000,  0.0000)
   8 Ru     8.438997    6.496343   10.000000    ( 0.0000,  0.0000,  0.0000)
   9 Ag     0.000000    0.000000   12.296804    ( 0.0000,  0.0000,  0.0000)
  10 Ag     2.812999    0.000000   12.296804    ( 0.0000,  0.0000,  0.0000)
  11 Ag     5.625998    0.000000   12.296804    ( 0.0000,  0.0000,  0.0000)
  12 Pt     1.406500    2.436129   12.296804    ( 0.0000,  0.0000,  0.0000)
  13 Pt     4.219499    2.436129   12.296804    ( 0.0000,  0.0000,  0.0000)
  14 Pt     7.032498    2.436129   12.296804    ( 0.0000,  0.0000,  0.0000)
  15 Ru     2.812999    4.872257   12.296804    ( 0.0000,  0.0000,  0.0000)
  16 Pt     5.625998    4.872257   12.296804    ( 0.0000,  0.0000,  0.0000)
  17 Ir     8.438997    4.872257   12.296804    ( 0.0000,  0.0000,  0.0000)
  18 Pt     1.325760    0.725802   14.676172    ( 0.0000,  0.0000,  0.0000)
  19 Ag     4.181473    0.779914   14.640672    ( 0.0000,  0.0000,  0.0000)
[...]
  12 Pt     1.406500    2.436129   12.296804    ( 0.0000,  0.0000,  0.0000)
  13 Pt     4.219499    2.436129   12.296804    ( 0.0000,  0.0000,  0.0000)
  14 Pt     7.032498    2.436129   12.296804    ( 0.0000,  0.0000,  0.0000)
  15 Ru     2.812999    4.872257   12.296804    ( 0.0000,  0.0000,  0.0000)
  16 Pt     5.625998    4.872257   12.296804    ( 0.0000,  0.0000,  0.0000)
  17 Ir     8.438997    4.872257   12.296804    ( 0.0000,  0.0000,  0.0000)
  18 Pt     1.325062    0.724287   14.664547    ( 0.0000,  0.0000,  0.0000)
  19 Ag     4.183029    0.777163   14.638988    ( 0.0000,  0.0000,  0.0000)
  20 Pd     6.996373    0.851116   14.627928    ( 0.0000,  0.0000,  0.0000)
  21 Ag     2.806232    3.193237   14.635305    ( 0.0000,  0.0000,  0.0000)
  22 Ru     5.664101    3.365900   14.468489    ( 0.0000,  0.0000,  0.0000)
  23 Pd     8.435908    3.203573   14.567621    ( 0.0000,  0.0000,  0.0000)
  24 Ir     4.210628    5.602968   14.589295    ( 0.0000,  0.0000,  0.0000)
  25 Ir     7.024195    5.568731   14.577955    ( 0.0000,  0.0000,  0.0000)
  26 Pt     9.864507    5.656406   14.591491    ( 0.0000,  0.0000,  0.0000)
  27 Ir    -0.081191    1.472298   16.930819    ( 0.0000,  0.0000,  0.0000)
  28 Pd     2.735888    1.577672   16.943600    ( 0.0000,  0.0000,  0.0000)
  29 Ag     5.520430    1.581369   16.917746    ( 0.0000,  0.0000,  0.0000)
  30 Pd     1.365921    3.978473   16.921898    ( 0.0000,  0.0000,  0.0000)
  31 Pd     4.168225    4.101548   16.931723    ( 0.0000,  0.0000,  0.0000)
  32 Pd     6.968717    3.959435   16.765554    ( 0.0000,  0.0000,  0.0000)
  33 Ru     2.831278    6.520795   16.762168    ( 0.0000,  0.0000,  0.0000)
  34 Pd     5.631341    6.433751   16.832572    ( 0.0000,  0.0000,  0.0000)
  35 Ir     8.550738    6.345831   16.899957    ( 0.0000,  0.0000,  0.0000)
  36 Ir    -0.050840   -0.011881   19.085748    ( 0.0000,  0.0000,  0.0000)
  37 Pt     2.873151   -0.100180   19.061062    ( 0.0000,  0.0000,  0.0000)
  38 Ag     5.627150    0.000345   19.432561    ( 0.0000,  0.0000,  0.0000)
  39 Pd     1.351130    2.302570   19.242802    ( 0.0000,  0.0000,  0.0000)
  40 Pd     4.255535    2.450324   19.233878    ( 0.0000,  0.0000,  0.0000)
  41 Ir     7.193036    2.452739   19.037334    ( 0.0000,  0.0000,  0.0000)
  42 Ag     2.625906    4.799454   19.341097    ( 0.0000,  0.0000,  0.0000)
  43 Ir     5.776511    4.765126   19.199436    ( 0.0000,  0.0000,  0.0000)
  44 Ir     8.284912    4.811607   18.978171    ( 0.0000,  0.0000,  0.0000)
  45 O      4.603820    5.817070   20.332021    ( 0.0000,  0.0000,  0.0000)

Unit cell:
           periodic     x           y           z      points  spacing
  1. axis:    yes    8.465341    0.000000    0.000000    35     0.2095
  2. axis:    yes    4.232670    7.331200    0.000000    35     0.2095
  3. axis:    no     0.000000    0.000000   29.187217   135     0.2162

  Lengths:   8.465341   8.465341  29.187217
  Angles:   90.000000  90.000000  60.000000

Effective grid spacing dv^(1/3) = 0.2221

                     log10-error:    total        iterations:
           time      wfs    density  energy       fermi  poisson
iter:   1  20:50:40  -3.90   +inf  -236.108280    3             
iter:   2  20:51:54  -3.26  -2.77  -238.503365    3             
iter:   3  20:53:07  -3.48  -1.96  -236.056425    3             
iter:   4  20:54:21  -4.62  -3.00  -236.043142    3             
iter:   5  20:55:36  -5.62  -3.33  -236.035107    3             
iter:   6  20:56:50  -6.26  -3.82  -236.034621    2             
iter:   7  20:58:04  -6.36  -3.94  -236.034474    2             
iter:   8  20:59:18  -6.27  -4.04  -236.034453    2             
iter:   9  21:00:33  -6.57  -4.08  -236.034174    2             
iter:  10  21:01:47  -6.65  -3.76  -236.034010    2             
iter:  11  21:03:01  -7.09  -4.24  -236.034397    2             
iter:  12  21:04:15  -7.47  -4.28  -236.034166    2             

Converged after 12 iterations.

Dipole moment: (32.148419, 14.196951, -0.034421) |e|*Ang

Energy contributions relative to reference atoms: (reference = -12877847.605335)

Kinetic:       -217.153950
Potential:      +93.854759
External:        +0.000000
XC:            -104.704089
Entropy (-ST):   -2.203870
Local:           -6.928951
--------------------------
Free energy:   -237.136102
Extrapolated:  -236.034166

Fermi level: 1.04182

Showing only first 2 kpts
 Kpt  Band  Eigenvalues  Occupancy
  0   359      1.02028    0.13841
  0   360      1.04336    0.12403
  0   361      1.08604    0.09780
  0   362      1.10930    0.08436

  1   359      0.94396    0.18171
  1   360      0.97010    0.16800
  1   361      1.00018    0.15065
  1   362      1.00197    0.14958



Forces in eV/Ang:
  0 Pd   -0.12720    0.32337   -0.35149
  1 Ir    0.95043    0.69099    0.61141
  2 Ru   -1.08099    0.29469    0.68821
  3 Ru    0.41814    0.28312    1.63074
  4 Ir   -0.55930   -0.79345    1.16718
  5 Pt    0.15447    0.16697    0.04834
  6 Pd   -0.49633   -0.42243   -0.23791
  7 Pd    0.38223   -0.26072   -0.57951
  8 Ru    0.34149   -0.16661    0.56274
  9 Ag   -0.24991   -0.11585    0.10019
 10 Ag   -0.04102   -0.13222    0.06894
 11 Ag    0.09295   -0.17450   -0.14977
 12 Pt    0.08368    0.72083   -0.53906
 13 Pt    0.13987    0.54709   -0.74210
 14 Pt   -0.12431    0.16367   -0.19857
 15 Ru   -0.37318   -0.71720   -1.00442
 16 Pt   -0.42130    0.17649   -0.03337
 17 Ir    0.88108   -0.10698   -0.97723
 18 Pt    0.00618   -0.00376   -0.01716
 19 Ag   -0.00429   -0.00869   -0.01245
 20 Pd   -0.00686   -0.00303   -0.02475
 21 Ag   -0.00538   -0.01522   -0.00940
 22 Ru   -0.01333   -0.02610   -0.01940
 23 Pd    0.01881   -0.02075   -0.00032
 24 Ir   -0.01829   -0.00909   -0.02554
 25 Ir    0.01347    0.01035   -0.02253
 26 Pt   -0.00823   -0.00727    0.00100
 27 Ir   -0.00821   -0.00029    0.05597
 28 Pd   -0.01034   -0.01741    0.01518
 29 Ag    0.01722   -0.02102    0.00886
 30 Pd   -0.01460    0.00157    0.02779
 31 Pd   -0.01323   -0.02397   -0.00798
 32 Pd    0.03279   -0.04693    0.02758
 33 Ru   -0.01597   -0.00475    0.00194
 34 Pd   -0.02078    0.02493   -0.01180
 35 Ir    0.01915   -0.01599   -0.00597
 36 Ir   -0.00809    0.01416    0.00581
 37 Pt   -0.00249    0.03490   -0.00296
 38 Ag    0.01040   -0.00386   -0.00353
 39 Pd   -0.05230   -0.00983   -0.02248
 40 Pd    0.00363   -0.00841   -0.00256
 41 Ir    0.04120   -0.03650   -0.02145
 42 Ag   -0.01021   -0.01932   -0.01000
 43 Ir    0.00700   -0.03408    0.00561
 44 Ir    0.01834   -0.03861   -0.01380
 45 O    -0.00353    0.03867   -0.02779

System changes: positions 

Initializing position-dependent things.

Density initialized from wave functions
                                             
                                             
                                             
                                             
                       O                     
                                             
                 Ag      Ir                  
                               Ir            
            Pd     Pd    PdIr   Ir           
                     Ag                      
       Ir    PPt    Pd     Pd                
        Ir     Pd     Ag                     
                     Ir     Ir     Pt        
                Ag     Ru     Pd             
                                             
           Pt     Ag    PPd    Ir            
                                             
            Pt     Pt    PPt    Ru           
       Ag     Ag    IAg    Pt                
                                             
         Pd    Ir     Ru                     
                                             
                                             
                                             
                                             
                                             

Positions:
   0 Pd     0.000000    1.624086   10.000000    ( 0.0000,  0.0000,  0.0000)
   1 Ir     2.812999    1.624086   10.000000    ( 0.0000,  0.0000,  0.0000)
   2 Ru     5.625998    1.624086   10.000000    ( 0.0000,  0.0000,  0.0000)
   3 Ru     1.406500    4.060215   10.000000    ( 0.0000,  0.0000,  0.0000)
   4 Ir     4.219499    4.060215   10.000000    ( 0.0000,  0.0000,  0.0000)
   5 Pt     7.032498    4.060215   10.000000    ( 0.0000,  0.0000,  0.0000)
   6 Pd     2.812999    6.496343   10.000000    ( 0.0000,  0.0000,  0.0000)
   7 Pd     5.625998    6.496343   10.000000    ( 0.0000,  0.0000,  0.0000)
   8 Ru     8.438997    6.496343   10.000000    ( 0.0000,  0.0000,  0.0000)
   9 Ag     0.000000    0.000000   12.296804    ( 0.0000,  0.0000,  0.0000)
  10 Ag     2.812999    0.000000   12.296804    ( 0.0000,  0.0000,  0.0000)
  11 Ag     5.625998    0.000000   12.296804    ( 0.0000,  0.0000,  0.0000)
  12 Pt     1.406500    2.436129   12.296804    ( 0.0000,  0.0000,  0.0000)
  13 Pt     4.219499    2.436129   12.296804    ( 0.0000,  0.0000,  0.0000)
  14 Pt     7.032498    2.436129   12.296804    ( 0.0000,  0.0000,  0.0000)
  15 Ru     2.812999    4.872257   12.296804    ( 0.0000,  0.0000,  0.0000)
  16 Pt     5.625998    4.872257   12.296804    ( 0.0000,  0.0000,  0.0000)
  17 Ir     8.438997    4.872257   12.296804    ( 0.0000,  0.0000,  0.0000)
  18 Pt     1.325192    0.725122   14.664257    ( 0.0000,  0.0000,  0.0000)
  19 Ag     4.182965    0.777699   14.638979    ( 0.0000,  0.0000,  0.0000)
  20 Pd     6.996415    0.851234   14.627773    ( 0.0000,  0.0000,  0.0000)
  21 Ag     2.806193    3.193683   14.635278    ( 0.0000,  0.0000,  0.0000)
  22 Ru     5.664135    3.365704   14.468155    ( 0.0000,  0.0000,  0.0000)
  23 Pd     8.436186    3.203449   14.567863    ( 0.0000,  0.0000,  0.0000)
  24 Ir     4.211098    5.603392   14.589449    ( 0.0000,  0.0000,  0.0000)
  25 Ir     7.024336    5.569563   14.577495    ( 0.0000,  0.0000,  0.0000)
  26 Pt     9.864620    5.656537   14.591596    ( 0.0000,  0.0000,  0.0000)
  27 Ir    -0.081064    1.473002   16.932631    ( 0.0000,  0.0000,  0.0000)
  28 Pd     2.735545    1.577764   16.944003    ( 0.0000,  0.0000,  0.0000)
  29 Ag     5.520367    1.582067   16.917817    ( 0.0000,  0.0000,  0.0000)
  30 Pd     1.365811    3.978928   16.922400    ( 0.0000,  0.0000,  0.0000)
  31 Pd     4.167725    4.102352   16.931821    ( 0.0000,  0.0000,  0.0000)
  32 Pd     6.968830    3.959264   16.765744    ( 0.0000,  0.0000,  0.0000)
  33 Ru     2.831298    6.521565   16.762628    ( 0.0000,  0.0000,  0.0000)
  34 Pd     5.631065    6.434611   16.832479    ( 0.0000,  0.0000,  0.0000)
  35 Ir     8.551504    6.346089   16.899935    ( 0.0000,  0.0000,  0.0000)
  36 Ir    -0.051394   -0.010907   19.085442    ( 0.0000,  0.0000,  0.0000)
  37 Pt     2.873401   -0.098622   19.061099    ( 0.0000,  0.0000,  0.0000)
  38 Ag     5.627343    0.001152   19.432022    ( 0.0000,  0.0000,  0.0000)
  39 Pd     1.350077    2.303184   19.242614    ( 0.0000,  0.0000,  0.0000)
  40 Pd     4.255499    2.450824   19.234047    ( 0.0000,  0.0000,  0.0000)
  41 Ir     7.193537    2.453042   19.037048    ( 0.0000,  0.0000,  0.0000)
  42 Ag     2.625215    4.799240   19.341178    ( 0.0000,  0.0000,  0.0000)
  43 Ir     5.776418    4.764954   19.199714    ( 0.0000,  0.0000,  0.0000)
  44 Ir     8.285637    4.811695   18.978272    ( 0.0000,  0.0000,  0.0000)
  45 O      4.604121    5.818203   20.331621    ( 0.0000,  0.0000,  0.0000)

Unit cell:
           periodic     x           y           z      points  spacing
  1. axis:    yes    8.465341    0.000000    0.000000    35     0.2095
  2. axis:    yes    4.232670    7.331200    0.000000    35     0.2095
  3. axis:    no     0.000000    0.000000   29.187217   135     0.2162

  Lengths:   8.465341   8.465341  29.187217
  Angles:   90.000000  90.000000  60.000000

Effective grid spacing dv^(1/3) = 0.2221

                     log10-error:    total        iterations:
           time      wfs    density  energy       fermi  poisson
iter:   1  21:06:03  -4.61   +inf  -236.092852    3             
iter:   2  21:07:16  -3.10  -2.74  -239.634063    2             
iter:   3  21:08:30  -3.42  -1.88  -236.055809    3             
iter:   4  21:09:44  -4.51  -3.14  -236.035066    3             
iter:   5  21:10:58  -5.67  -3.93  -236.034494    2             
iter:   6  21:12:12  -6.44  -4.01  -236.034345    2             
iter:   7  21:13:25  -6.80  -4.20  -236.034222    2             
iter:   8  21:14:39  -7.07  -4.43  -236.034114    2             
iter:   9  21:15:53  -7.04  -4.39  -236.034338    2             
iter:  10  21:17:06  -7.53  -4.43  -236.034033    2             

Converged after 10 iterations.

Dipole moment: (32.204391, 14.108165, -0.034064) |e|*Ang

Energy contributions relative to reference atoms: (reference = -12877847.605335)

Kinetic:       -217.102613
Potential:      +93.816454
External:        +0.000000
XC:            -104.716291
Entropy (-ST):   -2.204063
Local:           -6.929551
--------------------------
Free energy:   -237.136064
Extrapolated:  -236.034033

Fermi level: 1.04185

Showing only first 2 kpts
 Kpt  Band  Eigenvalues  Occupancy
  0   359      1.02029    0.13842
  0   360      1.04326    0.12411
  0   361      1.08602    0.09783
  0   362      1.10947    0.08428

  1   359      0.94371    0.18184
  1   360      0.97014    0.16799
  1   361      1.00012    0.15071
  1   362      1.00191    0.14963



Forces in eV/Ang:
  0 Pd   -0.12716    0.32235   -0.35377
  1 Ir    0.95003    0.69078    0.60757
  2 Ru   -1.08005    0.29512    0.68489
  3 Ru    0.41733    0.28384    1.62801
  4 Ir   -0.55899   -0.79321    1.16500
  5 Pt    0.15432    0.16667    0.04599
  6 Pd   -0.49541   -0.42094   -0.23975
  7 Pd    0.38147   -0.26015   -0.58264
  8 Ru    0.34164   -0.16738    0.56034
  9 Ag   -0.25180   -0.11508    0.09992
 10 Ag   -0.04130   -0.13179    0.06813
 11 Ag    0.09498   -0.17424   -0.14784
 12 Pt    0.08398    0.72151   -0.53767
 13 Pt    0.13915    0.54831   -0.74180
 14 Pt   -0.12193    0.16314   -0.19856
 15 Ru   -0.37320   -0.71799   -1.00299
 16 Pt   -0.42255    0.17692   -0.03582
 17 Ir    0.88265   -0.11018   -0.97565
 18 Pt   -0.00425   -0.01771    0.00117
 19 Ag   -0.00403   -0.01335   -0.00715
 20 Pd   -0.00296   -0.00756   -0.00756
 21 Ag   -0.00349   -0.01832   -0.00515
 22 Ru   -0.00948   -0.01838   -0.00651
 23 Pd    0.00393   -0.01145   -0.00632
 24 Ir   -0.02224   -0.00748   -0.01747
 25 Ir    0.01105   -0.00051   -0.00642
 26 Pt   -0.00727   -0.00989    0.00242
 27 Ir   -0.00337   -0.00604    0.01563
 28 Pd    0.00560   -0.02066   -0.01050
 29 Ag    0.01373   -0.02233    0.00231
 30 Pd   -0.00614   -0.01339   -0.00774
 31 Pd    0.01187   -0.04593   -0.01035
 32 Pd    0.01688   -0.02043    0.01760
 33 Ru   -0.00675   -0.02193   -0.01726
 34 Pd    0.00211   -0.02025   -0.00550
 35 Ir   -0.00365   -0.02032   -0.00156
 36 Ir    0.00575   -0.01234    0.02047
 37 Pt   -0.00721   -0.01938    0.00066
 38 Ag    0.00306   -0.01148    0.00358
 39 Pd    0.00025   -0.03275   -0.01209
 40 Pd    0.00516   -0.01857   -0.00498
 41 Ir    0.01835   -0.02179   -0.00881
 42 Ag    0.00299   -0.01079   -0.01294
 43 Ir    0.01809   -0.01790    0.00506
 44 Ir   -0.01173   -0.02555   -0.01036
 45 O     0.00688    0.03301   -0.00887

Timing:                                      incl.     excl.
-------------------------------------------------------------------
Density initialized from wave functions:    35.988    35.987   0.1% |
 Symmetrize density:                         0.001     0.001   0.0% |
Forces:                                    220.069   220.069   0.9% |
Hamiltonian:                                36.690     0.105   0.0% |
 Atomic:                                    11.955     6.431   0.0% |
  XC Correction:                             5.524     5.524   0.0% |
 Calculate atomic Hamiltonians:              9.618     9.618   0.0% |
 Communicate:                                0.128     0.128   0.0% |
 Initialize Hamiltonian:                     0.000     0.000   0.0% |
 Poisson:                                    0.080     0.080   0.0% |
 XC 3D grid:                                14.804    14.804   0.1% |
LCAO initialization:                        55.937     4.790   0.0% |
 LCAO eigensolver:                           6.642     0.002   0.0% |
  Calculate projections:                     0.077     0.077   0.0% |
  DenseAtomicCorrection:                     0.070     0.070   0.0% |
  Distribute overlap matrix:                 0.012     0.012   0.0% |
  Orbital Layouts:                           0.514     0.514   0.0% |
  Potential matrix:                          5.916     5.916   0.0% |
  Sum over cells:                            0.051     0.051   0.0% |
 LCAO to grid:                              42.116    42.116   0.2% |
 Set positions (LCAO WFS):                   2.389     0.722   0.0% |
  Basic WFS set positions:                   0.003     0.003   0.0% |
  Basis functions set positions:             0.001     0.001   0.0% |
  P tci:                                     0.750     0.750   0.0% |
  ST tci:                                    0.674     0.674   0.0% |
  mktci:                                     0.240     0.240   0.0% |
PWDescriptor:                                0.037     0.037   0.0% |
Redistribute:                                0.078     0.078   0.0% |
SCF-cycle:                               23690.395   651.620   2.7% ||
 Davidson:                               21174.242  4993.016  20.7% |-------|
  Apply H:                                3175.559  3089.643  12.8% |----|
   HMM T:                                   85.916    85.916   0.4% |
  Subspace diag:                          3021.322     0.098   0.0% |
   calc_h_matrix:                         1722.571   656.301   2.7% ||
    Apply H:                              1066.271  1037.151   4.3% |-|
     HMM T:                                 29.120    29.120   0.1% |
   diagonalize:                             50.778    50.778   0.2% |
   rotate_psi:                            1247.875  1247.875   5.2% |-|
  calc. matrices:                         6604.602  4470.580  18.5% |------|
   Apply H:                               2134.022  2076.145   8.6% |--|
    HMM T:                                  57.877    57.877   0.2% |
  diagonalize:                             889.293   889.293   3.7% ||
  rotate_psi:                             2490.448  2490.448  10.3% |---|
 Density:                                  909.981     0.017   0.0% |
  Atomic density matrices:                   5.071     5.071   0.0% |
  Mix:                                     281.487   281.487   1.2% |
  Multipole moments:                         0.463     0.463   0.0% |
  Pseudo density:                          622.942   622.926   2.6% ||
   Symmetrize density:                       0.017     0.017   0.0% |
 Hamiltonian:                              866.774     2.515   0.0% |
  Atomic:                                  279.947   151.700   0.6% |
   XC Correction:                          128.247   128.247   0.5% |
  Calculate atomic Hamiltonians:           230.678   230.678   1.0% |
  Communicate:                               0.074     0.074   0.0% |
  Poisson:                                   1.848     1.848   0.0% |
  XC 3D grid:                              351.711   351.711   1.5% ||
 Orthonormalize:                            87.779     0.005   0.0% |
  calc_s_matrix:                            13.425    13.425   0.1% |
  inverse-cholesky:                          0.931     0.931   0.0% |
  projections:                              48.382    48.382   0.2% |
  rotate_psi_s:                             25.034    25.034   0.1% |
Set symmetry:                                0.002     0.002   0.0% |
Other:                                     121.849   121.849   0.5% |
-------------------------------------------------------------------
Total:                                             24161.046 100.0%

Date: Thu Mar  3 21:17:25 2022
