
  ___ ___ ___ _ _ _  
 |   |   |_  | | | | 
 | | | | | . | | | | 
 |__ |  _|___|_____|  1.5.1
 |___|_|             

User:   clausen@node491.cluster
Date:   Wed Mar  2 15:10:17 2022
Arch:   x86_64
Pid:    4581
Python: 3.6.12
gpaw:   /software/kemi/gpaw/1.5.1/gpaw
_gpaw:  /software/kemi/gpaw/1.5.1/bin/gpaw-python
ase:    /software/kemi/ase/3.17.0/ase (version 3.17.0)
numpy:  /opt/rh/rh-python36/root/usr/lib64/python3.6/site-packages/numpy (version 1.13.1)
scipy:  /opt/rh/rh-python36/root/usr/lib64/python3.6/site-packages/scipy (version 0.19.1)
units:  Angstrom and eV
cores:  16

Input parameters:
  kpts: [4 4 1]
  mode: {ecut: 400.0,
         gammacentered: False,
         name: pw}
  xc: RPBE

System changes: positions, numbers, cell, pbc, initial_charges, initial_magmoms 

Initialize ...

Pd-setup:
  name: Palladium
  id: 6da19bfba079f22767af9506641940b9
  Z: 46
  valence: 16
  core: 30
  charge: 0.0
  file: /software/kemi/gpaw-setups/0.9.20000/Pd.RPBE.gz
  cutoffs: 1.19(comp), 2.38(filt), 2.28(core), lmax=2
  valence states:
                energy  radius
    5s(0.00)    -3.225   1.228
    4p(6.00)   -51.131   1.360
    5p(0.00)    -0.373   1.360
    4d(10.00)    -3.964   1.228
    *s          23.987   1.228
    *d          23.247   1.228

  Using partial waves for Pd as LCAO basis

Ag-setup:
  name: Silver
  id: c05e55bab2c3858b3f9398f6d75cb77c
  Z: 47
  valence: 17
  core: 30
  charge: 0.0
  file: /software/kemi/gpaw-setups/0.9.20000/Ag.RPBE.gz
  cutoffs: 1.25(comp), 2.35(filt), 2.19(core), lmax=2
  valence states:
                energy  radius
    5s(1.00)    -4.277   1.286
    4p(6.00)   -58.523   1.328
    5p(0.00)    -0.755   1.328
    4d(10.00)    -7.386   1.180
    *s          22.934   1.286
    *d          19.826   1.180

  Using partial waves for Ag as LCAO basis

Pt-setup:
  name: Platinum
  id: f04f522592575c47ad794f6b4a415b4b
  Z: 78
  valence: 16
  core: 62
  charge: 0.0
  file: /software/kemi/gpaw-setups/0.9.20000/Pt.RPBE.gz
  cutoffs: 1.29(comp), 2.26(filt), 2.26(core), lmax=2
  valence states:
                energy  radius
    6s(1.00)    -5.516   1.307
    5p(6.00)   -55.971   1.371
    6p(0.00)    -0.856   1.371
    5d(9.00)    -6.087   1.307
    *s          21.695   1.307
    *d          21.125   1.307

  Using partial waves for Pt as LCAO basis

Ru-setup:
  name: Ruthenium
  id: 76477906e28f51dc1b29884d53556fe9
  Z: 44
  valence: 16
  core: 28
  charge: 0.0
  file: /software/kemi/gpaw-setups/0.9.20000/Ru.RPBE.gz
  cutoffs: 1.23(comp), 2.16(filt), 1.30(core), lmax=2
  valence states:
                energy  radius
    4s(2.00)   -76.255   1.281
    5s(1.00)    -4.126   1.281
    4p(6.00)   -46.371   1.286
    5p(0.00)    -0.913   1.286
    4d(7.00)    -5.146   1.254
    *d          22.066   1.254

  Using partial waves for Ru as LCAO basis

Reference energy: -9071410.444371

Spin-paired calculation

Occupation numbers:
  Fermi-Dirac: width=0.1000 eV

Convergence criteria:
  Maximum total energy change: 0.0005 eV / electron
  Maximum integral of absolute density change: 0.0001 electrons
  Maximum integral of absolute eigenstate change: 4e-08 eV^2
  Maximum number of iterations: 333

Symmetries present (total): 1

  ( 1  0  0)
  ( 0  1  0)
  ( 0  0  1)

16 k-points: 4 x 4 x 1 Monkhorst-Pack grid
8 k-points in the irreducible part of the Brillouin zone
       k-points in crystal coordinates                weights
   0:     0.12500000   -0.37500000    0.00000000          2/16
   1:     0.12500000   -0.12500000    0.00000000          2/16
   2:     0.12500000    0.12500000    0.00000000          2/16
   3:     0.12500000    0.37500000    0.00000000          2/16
   4:     0.37500000   -0.37500000    0.00000000          2/16
   5:     0.37500000   -0.12500000    0.00000000          2/16
   6:     0.37500000    0.12500000    0.00000000          2/16
   7:     0.37500000    0.37500000    0.00000000          2/16

Wave functions: Plane wave expansion
  Cutoff energy: 400.000 eV
  Number of coefficients (min, max): 32266, 32339
  Pulay-stress correction: 0.000000 eV/Ang^3 (de/decut=0.000000)
  Using FFTW library
  ScaLapack parameters: grid=1x1, blocksize=None
  Wavefunction extrapolation:
    Improved wavefunction reuse through dual PAW basis 

Eigensolver
   Davidson(niter=2, smin=None, normalize=True) 

Densities:
  Coarse grid: 35*35*135 grid
  Fine grid: 70*70*270 grid
  Total Charge: 0.000000 

Density mixing:
  Method: separate
  Backend: pulay
  Linear mixing parameter: 0.05
  Mixing with 5 old densities
  Damping of long wave oscillations: 50 

Hamiltonian:
  XC and Coulomb potentials evaluated on a 70*70*270 grid
  Using the RPBE Exchange-Correlation functional
 

XC parameters: RPBE with 2 nearest neighbor stencil

Memory estimate:
  Process memory now: 151.67 MiB
  Calculator: 540.70 MiB
    Density: 45.14 MiB
      Arrays: 16.41 MiB
      Localized functions: 22.38 MiB
      Mixer: 6.36 MiB
    Hamiltonian: 11.38 MiB
      Arrays: 10.73 MiB
      XC: 0.00 MiB
      Poisson: 0.00 MiB
      vbar: 0.65 MiB
    Wavefunctions: 484.18 MiB
      Arrays psit_nG: 219.09 MiB
      Eigensolver: 251.65 MiB
      Projections: 2.74 MiB
      Projectors: 4.07 MiB
      PW-descriptor: 6.62 MiB

Total number of cores used: 16
Parallelization over k-points: 8
Domain decomposition: 1 x 1 x 2

Number of atoms: 45
Number of atomic orbitals: 547
Number of bands in calculation: 444
Bands to converge: occupied states only
Number of valence electrons: 732

... initialized

Initializing position-dependent things.

Density initialized from atomic densities
Creating initial wave functions:
  444 bands from LCAO basis set

                                            
                                            
                                            
                                            
                 Pt     Pd     Ru           
                                            
            Pt    APd    PPd    Ru          
       Pd     Ru     Pd                     
             Pd     Ru     Pt               
        Pt     Pd     Pd                    
                     Pd     Pd     Ag       
                Ag     Ag     Ag            
           Ag     Ag     Pt                 
                 Pd     Ag     Pd           
            Pd     Ru     Ag                
                  Pd     Ag     Pd          
       Ag    PRu    PRu    Pt               
                                            
        Pd     Ag     Pt                    
                                            
                                            
                                            
                                            

Positions:
   0 Pd     0.000000    1.633958   10.000000    ( 0.0000,  0.0000,  0.0000)
   1 Ag     2.830098    1.633958   10.000000    ( 0.0000,  0.0000,  0.0000)
   2 Pt     5.660196    1.633958   10.000000    ( 0.0000,  0.0000,  0.0000)
   3 Pd     1.415049    4.084895   10.000000    ( 0.0000,  0.0000,  0.0000)
   4 Pd     4.245147    4.084895   10.000000    ( 0.0000,  0.0000,  0.0000)
   5 Pt     7.075245    4.084895   10.000000    ( 0.0000,  0.0000,  0.0000)
   6 Pd     2.830098    6.535832   10.000000    ( 0.0000,  0.0000,  0.0000)
   7 Ag     5.660196    6.535832   10.000000    ( 0.0000,  0.0000,  0.0000)
   8 Pd     8.490294    6.535832   10.000000    ( 0.0000,  0.0000,  0.0000)
   9 Ag     0.000000    0.000000   12.310765    ( 0.0000,  0.0000,  0.0000)
  10 Ru     2.830098    0.000000   12.310765    ( 0.0000,  0.0000,  0.0000)
  11 Ru     5.660196    0.000000   12.310765    ( 0.0000,  0.0000,  0.0000)
  12 Pd     1.415049    2.450937   12.310765    ( 0.0000,  0.0000,  0.0000)
  13 Ru     4.245147    2.450937   12.310765    ( 0.0000,  0.0000,  0.0000)
  14 Ag     7.075245    2.450937   12.310765    ( 0.0000,  0.0000,  0.0000)
  15 Pd     2.830098    4.901874   12.310765    ( 0.0000,  0.0000,  0.0000)
  16 Ag     5.660196    4.901874   12.310765    ( 0.0000,  0.0000,  0.0000)
  17 Pd     8.490294    4.901874   12.310765    ( 0.0000,  0.0000,  0.0000)
  18 Ag     1.415049    0.816979   14.621531    ( 0.0000,  0.0000,  0.0000)
  19 Ag     4.245147    0.816979   14.621531    ( 0.0000,  0.0000,  0.0000)
  20 Pt     7.075245    0.816979   14.621531    ( 0.0000,  0.0000,  0.0000)
  21 Ag     2.830098    3.267916   14.621531    ( 0.0000,  0.0000,  0.0000)
  22 Ag     5.660196    3.267916   14.621531    ( 0.0000,  0.0000,  0.0000)
  23 Ag     8.490294    3.267916   14.621531    ( 0.0000,  0.0000,  0.0000)
  24 Pd     4.245147    5.718853   14.621531    ( 0.0000,  0.0000,  0.0000)
  25 Pd     7.075245    5.718853   14.621531    ( 0.0000,  0.0000,  0.0000)
  26 Ag     9.905343    5.718853   14.621531    ( 0.0000,  0.0000,  0.0000)
  27 Pt     0.000000    1.633958   16.932296    ( 0.0000,  0.0000,  0.0000)
  28 Pd     2.830098    1.633958   16.932296    ( 0.0000,  0.0000,  0.0000)
  29 Pd     5.660196    1.633958   16.932296    ( 0.0000,  0.0000,  0.0000)
  30 Pd     1.415049    4.084895   16.932296    ( 0.0000,  0.0000,  0.0000)
  31 Ru     4.245147    4.084895   16.932296    ( 0.0000,  0.0000,  0.0000)
  32 Pt     7.075245    4.084895   16.932296    ( 0.0000,  0.0000,  0.0000)
  33 Ag     2.830098    6.535832   16.932296    ( 0.0000,  0.0000,  0.0000)
  34 Pt     5.660196    6.535832   16.932296    ( 0.0000,  0.0000,  0.0000)
  35 Ru     8.490294    6.535832   16.932296    ( 0.0000,  0.0000,  0.0000)
  36 Pd     0.000000    0.000000   19.243062    ( 0.0000,  0.0000,  0.0000)
  37 Ru     2.830098    0.000000   19.243062    ( 0.0000,  0.0000,  0.0000)
  38 Pd     5.660196    0.000000   19.243062    ( 0.0000,  0.0000,  0.0000)
  39 Pt     1.415049    2.450937   19.243062    ( 0.0000,  0.0000,  0.0000)
  40 Pd     4.245147    2.450937   19.243062    ( 0.0000,  0.0000,  0.0000)
  41 Pd     7.075245    2.450937   19.243062    ( 0.0000,  0.0000,  0.0000)
  42 Pt     2.830098    4.901874   19.243062    ( 0.0000,  0.0000,  0.0000)
  43 Pd     5.660196    4.901874   19.243062    ( 0.0000,  0.0000,  0.0000)
  44 Ru     8.490294    4.901874   19.243062    ( 0.0000,  0.0000,  0.0000)

Unit cell:
           periodic     x           y           z      points  spacing
  1. axis:    yes    8.379498    0.000000    0.000000    35     0.2073
  2. axis:    yes    4.189749    7.256858    0.000000    35     0.2073
  3. axis:    no     0.000000    0.000000   29.243062   135     0.2166

  Lengths:   8.379498   8.379498  29.243062
  Angles:   90.000000  90.000000  60.000000

Effective grid spacing dv^(1/3) = 0.2207

                     log10-error:    total        iterations:
           time      wfs    density  energy       fermi  poisson
iter:   1  15:12:43  +0.51   +inf  -231.253654    2             
iter:   2  15:13:54  -1.06  -1.21  -203.398825    2             
iter:   3  15:15:05  -1.37  -1.33  -243.994435    3             
iter:   4  15:16:15  -1.50  -1.22  -205.020623    37            
iter:   5  15:17:26  -1.68  -1.34  -189.866656    3             
iter:   6  15:18:35  -1.90  -1.47  -182.918808    37            
iter:   7  15:19:46  -1.82  -1.58  -180.770230    36            
iter:   8  15:20:57  -2.33  -1.70  -178.159297    4             
iter:   9  15:22:07  -2.39  -1.81  -177.011737    3             
iter:  10  15:23:18  -2.85  -1.99  -177.498866    3             
iter:  11  15:24:28  -3.18  -1.98  -176.747165    3             
iter:  12  15:25:39  -3.33  -2.10  -176.589929    3             
iter:  13  15:26:52  -3.26  -2.17  -176.814448    3             
iter:  14  15:28:03  -3.12  -2.14  -176.663137    3             
iter:  15  15:29:14  -3.57  -2.22  -176.248762    3             
iter:  16  15:30:25  -3.30  -2.40  -176.132382    3             
iter:  17  15:31:35  -3.36  -2.52  -176.040866    3             
iter:  18  15:32:46  -4.08  -2.75  -176.012798    3             
iter:  19  15:33:56  -4.04  -2.86  -175.995956    3             
iter:  20  15:35:07  -4.78  -2.98  -176.024829    3             
iter:  21  15:36:21  -4.71  -2.82  -175.995794    3             
iter:  22  15:37:35  -5.05  -3.06  -175.993216    3             
iter:  23  15:38:50  -4.94  -3.11  -175.994792    2             
iter:  24  15:40:04  -5.42  -3.19  -175.994495    2             
iter:  25  15:41:19  -5.03  -3.20  -175.993696    2             
iter:  26  15:42:34  -5.56  -3.37  -175.997794    2             
iter:  27  15:43:45  -5.87  -3.26  -175.993771    2             
iter:  28  15:44:56  -6.00  -3.56  -175.992714    2             
iter:  29  15:46:06  -5.69  -3.62  -175.992751    2             
iter:  30  15:47:16  -5.97  -3.77  -175.992474    2             
iter:  31  15:48:26  -6.48  -3.83  -175.992232    2             
iter:  32  15:49:41  -6.79  -3.88  -175.992588    2             
iter:  33  15:50:56  -6.64  -3.85  -175.992482    2             
iter:  34  15:52:11  -6.98  -4.03  -175.992046    2             
iter:  35  15:53:26  -6.73  -3.97  -175.992184    2             
iter:  36  15:54:39  -7.01  -4.14  -175.992184    2             
iter:  37  15:55:54  -7.55  -4.19  -175.992161    2             

Converged after 37 iterations.

Dipole moment: (30.770639, 23.190513, -0.093632) |e|*Ang

Energy contributions relative to reference atoms: (reference = -9071410.444371)

Kinetic:       -152.619261
Potential:      +11.000392
External:        +0.000000
XC:             -28.709623
Entropy (-ST):   -2.150517
Local:           -4.588410
--------------------------
Free energy:   -177.067419
Extrapolated:  -175.992161

Fermi level: 0.84435

Showing only first 2 kpts
 Kpt  Band  Eigenvalues  Occupancy
  0   364      0.82874    0.13474
  0   365      0.84780    0.12285
  0   366      0.86453    0.11243
  0   367      0.92950    0.07478

  1   364      0.74984    0.18003
  1   365      0.77234    0.16816
  1   366      0.81432    0.14363
  1   367      0.82524    0.13691



Forces in eV/Ang:
  0 Pd    0.09198    0.49909   -0.43534
  1 Ag    0.11006    0.48637   -0.52447
  2 Pt   -0.23773    0.50422    0.82961
  3 Pd    0.10202    0.03874   -0.08132
  4 Pd    0.11755   -0.36863    0.18344
  5 Pt   -0.14015   -0.28925   -0.08581
  6 Pd   -0.17535   -0.38645   -0.06325
  7 Ag   -0.12040   -0.45424   -0.72036
  8 Pd   -0.25323   -0.30189    0.26379
  9 Ag    0.56589    0.30475   -0.19754
 10 Ru    2.21313    1.26041    0.17301
 11 Ru   -1.81481    0.96130   -0.67361
 12 Pd    1.15692   -0.30096   -0.36062
 13 Ru   -0.51245   -1.50497   -1.09304
 14 Ag   -0.40387    0.12330   -0.00338
 15 Pd    0.20180   -0.64999   -0.31992
 16 Ag   -0.12146   -0.39865   -0.02331
 17 Pd   -0.32108    0.55868   -0.22955
 18 Ag    0.52882    0.23544   -0.21874
 19 Ag    0.06666    0.33318   -0.26438
 20 Pt   -0.68685    0.49898   -0.27768
 21 Ag    0.55248   -0.01944   -0.03079
 22 Ag   -0.17199    0.03744    0.07067
 23 Ag   -0.45955    0.19268   -0.02276
 24 Pd    0.39567   -0.80162    0.50688
 25 Pd    0.05549   -0.04017    0.16215
 26 Ag   -0.60526   -0.34011   -0.03112
 27 Pt    0.64045    0.45145    0.18192
 28 Pd    0.48695    0.31198    0.51874
 29 Pd   -0.68165    0.53091    0.10061
 30 Pd    0.53259    0.18972    0.51424
 31 Ru    0.43803    0.05860    1.04338
 32 Pt   -0.57787    0.69004    0.60594
 33 Ag    0.28647   -0.74565    0.04421
 34 Pt    0.47990   -0.98045    0.57500
 35 Ru   -1.76277   -0.73759    2.13775
 36 Pd    0.88147    0.22895    0.40143
 37 Ru    0.63751   -0.45230   -1.50405
 38 Pd   -0.88825   -0.00592    0.27799
 39 Pt    0.29934   -0.03192    0.09936
 40 Pd   -0.31937    0.03656   -0.14535
 41 Pd   -0.12593    0.43479    0.26284
 42 Pt   -0.14117   -0.79089   -0.33949
 43 Pd    0.12438   -0.06706   -0.09388
 44 Ru   -0.42014    0.72683   -1.29028

System changes: positions 

Initializing position-dependent things.

Density initialized from wave functions
                                            
                                            
                                            
                                            
                                            
                 Pt     Pd     Ru           
            Pt    APd    PPd   Ru           
       Pd     Ru     Pd                     
             Pd     Ru     Pt               
        Pt     Pd     Pd                    
                     Pd     Pd    Ag        
                Ag     Ag     Ag            
           Ag     Ag     Pt                 
                 Pd     Ag     Pd           
            Pd     Ru     Ag                
                  Pd     Ag     Pd          
       Ag    PRu    PRu    Pt               
                                            
        Pd     Ag     Pt                    
                                            
                                            
                                            
                                            

Positions:
   0 Pd     0.000000    1.633958   10.000000    ( 0.0000,  0.0000,  0.0000)
   1 Ag     2.830098    1.633958   10.000000    ( 0.0000,  0.0000,  0.0000)
   2 Pt     5.660196    1.633958   10.000000    ( 0.0000,  0.0000,  0.0000)
   3 Pd     1.415049    4.084895   10.000000    ( 0.0000,  0.0000,  0.0000)
   4 Pd     4.245147    4.084895   10.000000    ( 0.0000,  0.0000,  0.0000)
   5 Pt     7.075245    4.084895   10.000000    ( 0.0000,  0.0000,  0.0000)
   6 Pd     2.830098    6.535832   10.000000    ( 0.0000,  0.0000,  0.0000)
   7 Ag     5.660196    6.535832   10.000000    ( 0.0000,  0.0000,  0.0000)
   8 Pd     8.490294    6.535832   10.000000    ( 0.0000,  0.0000,  0.0000)
   9 Ag     0.000000    0.000000   12.310765    ( 0.0000,  0.0000,  0.0000)
  10 Ru     2.830098    0.000000   12.310765    ( 0.0000,  0.0000,  0.0000)
  11 Ru     5.660196    0.000000   12.310765    ( 0.0000,  0.0000,  0.0000)
  12 Pd     1.415049    2.450937   12.310765    ( 0.0000,  0.0000,  0.0000)
  13 Ru     4.245147    2.450937   12.310765    ( 0.0000,  0.0000,  0.0000)
  14 Ag     7.075245    2.450937   12.310765    ( 0.0000,  0.0000,  0.0000)
  15 Pd     2.830098    4.901874   12.310765    ( 0.0000,  0.0000,  0.0000)
  16 Ag     5.660196    4.901874   12.310765    ( 0.0000,  0.0000,  0.0000)
  17 Pd     8.490294    4.901874   12.310765    ( 0.0000,  0.0000,  0.0000)
  18 Ag     1.451935    0.833401   14.606273    ( 0.0000,  0.0000,  0.0000)
  19 Ag     4.249797    0.840219   14.603090    ( 0.0000,  0.0000,  0.0000)
  20 Pt     7.027336    0.851784   14.602162    ( 0.0000,  0.0000,  0.0000)
  21 Ag     2.868635    3.266560   14.619383    ( 0.0000,  0.0000,  0.0000)
  22 Ag     5.648200    3.270527   14.626460    ( 0.0000,  0.0000,  0.0000)
  23 Ag     8.458239    3.281356   14.619943    ( 0.0000,  0.0000,  0.0000)
  24 Pd     4.272746    5.662938   14.656887    ( 0.0000,  0.0000,  0.0000)
  25 Pd     7.079116    5.716051   14.632841    ( 0.0000,  0.0000,  0.0000)
  26 Ag     9.863125    5.695129   14.619360    ( 0.0000,  0.0000,  0.0000)
  27 Pt     0.044673    1.665447   16.944985    ( 0.0000,  0.0000,  0.0000)
  28 Pd     2.864064    1.655720   16.968479    ( 0.0000,  0.0000,  0.0000)
  29 Pd     5.612650    1.670990   16.939314    ( 0.0000,  0.0000,  0.0000)
  30 Pd     1.452198    4.098128   16.968166    ( 0.0000,  0.0000,  0.0000)
  31 Ru     4.275701    4.088982   17.005074    ( 0.0000,  0.0000,  0.0000)
  32 Pt     7.034938    4.133026   16.974562    ( 0.0000,  0.0000,  0.0000)
  33 Ag     2.850080    6.483821   16.935380    ( 0.0000,  0.0000,  0.0000)
  34 Pt     5.693670    6.467443   16.972404    ( 0.0000,  0.0000,  0.0000)
  35 Ru     8.367337    6.484383   17.081409    ( 0.0000,  0.0000,  0.0000)
  36 Pd     0.061485    0.015969   19.271063    ( 0.0000,  0.0000,  0.0000)
  37 Ru     2.874566   -0.031549   19.138151    ( 0.0000,  0.0000,  0.0000)
  38 Pd     5.598239   -0.000413   19.262452    ( 0.0000,  0.0000,  0.0000)
  39 Pt     1.435929    2.448711   19.249992    ( 0.0000,  0.0000,  0.0000)
  40 Pd     4.222871    2.453487   19.232923    ( 0.0000,  0.0000,  0.0000)
  41 Pd     7.066462    2.481264   19.261395    ( 0.0000,  0.0000,  0.0000)
  42 Pt     2.820251    4.846707   19.219382    ( 0.0000,  0.0000,  0.0000)
  43 Pd     5.668872    4.897196   19.236513    ( 0.0000,  0.0000,  0.0000)
  44 Ru     8.460989    4.952572   19.153062    ( 0.0000,  0.0000,  0.0000)

Unit cell:
           periodic     x           y           z      points  spacing
  1. axis:    yes    8.379498    0.000000    0.000000    35     0.2073
  2. axis:    yes    4.189749    7.256858    0.000000    35     0.2073
  3. axis:    no     0.000000    0.000000   29.243062   135     0.2166

  Lengths:   8.379498   8.379498  29.243062
  Angles:   90.000000  90.000000  60.000000

Effective grid spacing dv^(1/3) = 0.2207

                     log10-error:    total        iterations:
           time      wfs    density  energy       fermi  poisson
iter:   1  15:57:37  -1.06   +inf  -244.316965    36            
iter:   2  15:58:48  +0.46  -1.35  -721.897691    38            
iter:   3  15:59:58  -0.51  -0.84  -192.724230    39            
iter:   4  16:01:08  -1.66  -1.70  -179.661117    37            
iter:   5  16:02:23  -2.53  -2.06  -178.191657    3             
iter:   6  16:03:37  -3.05  -2.22  -177.889548    3             
iter:   7  16:04:52  -3.15  -2.26  -177.562723    3             
iter:   8  16:06:06  -3.08  -2.42  -177.686270    3             
iter:   9  16:07:21  -3.78  -2.32  -177.527748    3             
iter:  10  16:08:36  -3.92  -2.37  -177.333741    3             
iter:  11  16:09:50  -3.82  -2.58  -177.249999    3             
iter:  12  16:11:05  -4.02  -2.74  -177.223545    3             
iter:  13  16:12:19  -4.56  -2.82  -177.216971    3             
iter:  14  16:13:34  -4.47  -2.86  -177.234793    3             
iter:  15  16:14:45  -4.60  -2.75  -177.204330    2             
iter:  16  16:15:56  -4.53  -2.93  -177.200102    3             
iter:  17  16:17:06  -4.84  -3.14  -177.199819    2             
iter:  18  16:18:16  -5.34  -3.02  -177.193853    2             
iter:  19  16:19:27  -5.32  -3.18  -177.191479    3             
iter:  20  16:20:37  -5.55  -3.36  -177.191323    2             
iter:  21  16:21:47  -5.35  -3.32  -177.189164    2             
iter:  22  16:22:57  -5.58  -3.47  -177.192981    3             
iter:  23  16:24:08  -5.99  -3.45  -177.189701    2             
iter:  24  16:25:23  -6.06  -3.69  -177.189846    2             
iter:  25  16:26:38  -6.02  -3.75  -177.190259    2             
iter:  26  16:27:51  -6.29  -3.78  -177.191230    2             
iter:  27  16:29:07  -6.74  -3.75  -177.190024    2             
iter:  28  16:30:22  -6.64  -3.93  -177.190643    2             
iter:  29  16:31:36  -7.06  -3.80  -177.190431    2             
iter:  30  16:32:51  -7.16  -4.04  -177.190156    2             
iter:  31  16:34:05  -7.32  -4.08  -177.190466    2             
iter:  32  16:35:19  -7.29  -4.00  -177.190322    2             
iter:  33  16:36:34  -7.35  -4.11  -177.190088    2             
iter:  34  16:37:32  -7.59  -4.35  -177.190311    2             

Converged after 34 iterations.

Dipole moment: (29.146044, 22.394453, -0.078538) |e|*Ang

Energy contributions relative to reference atoms: (reference = -9071410.444371)

Kinetic:       -151.704601
Potential:      +10.458357
External:        +0.000000
XC:             -30.370906
Entropy (-ST):   -2.069496
Local:           -4.538412
--------------------------
Free energy:   -178.225059
Extrapolated:  -177.190311

Fermi level: 0.85888

Showing only first 2 kpts
 Kpt  Band  Eigenvalues  Occupancy
  0   364      0.85131    0.12973
  0   365      0.88370    0.10956
  0   366      0.89838    0.10063
  0   367      0.92972    0.08249

  1   364      0.75655    0.18390
  1   365      0.79020    0.16631
  1   366      0.81804    0.15018
  1   367      0.84540    0.13341



Forces in eV/Ang:
  0 Pd    0.09744    0.50455   -0.42477
  1 Ag    0.10568    0.49493   -0.52620
  2 Pt   -0.23638    0.51204    0.81507
  3 Pd    0.10196    0.03579   -0.07925
  4 Pd    0.10887   -0.36880    0.19386
  5 Pt   -0.13621   -0.29282   -0.07987
  6 Pd   -0.17318   -0.39734   -0.05580
  7 Ag   -0.12392   -0.45310   -0.71007
  8 Pd   -0.25112   -0.30861    0.25326
  9 Ag    0.55118    0.23166    0.03761
 10 Ru    2.22956    1.22383    0.13668
 11 Ru   -1.80223    0.90111   -0.63909
 12 Pd    1.14483   -0.24726   -0.33163
 13 Ru   -0.51112   -1.46627   -1.19260
 14 Ag   -0.40348    0.17672   -0.09385
 15 Pd    0.21411   -0.60735   -0.25738
 16 Ag   -0.11255   -0.37319    0.00155
 17 Pd   -0.35390    0.54918   -0.28617
 18 Ag   -0.06764   -0.02058    0.19224
 19 Ag    0.00004   -0.08718    0.13516
 20 Pt   -0.01006   -0.18240    0.16634
 21 Ag    0.04701    0.07178    0.15402
 22 Ag   -0.00562    0.08620    0.10870
 23 Ag   -0.11037    0.04043    0.22764
 24 Pd    0.01334    0.02813    0.31314
 25 Pd   -0.00946    0.09184    0.05644
 26 Ag   -0.15278   -0.01467    0.21879
 27 Pt    0.02996   -0.02068    0.04651
 28 Pd    0.08556    0.12561   -0.00329
 29 Pd    0.05886   -0.03226    0.10184
 30 Pd    0.13051   -0.07095   -0.07527
 31 Ru    0.20773   -0.09860    0.58396
 32 Pt   -0.04661   -0.33923    0.00989
 33 Ag   -0.05590    0.29190    0.02518
 34 Pt   -0.32151    0.10391   -0.15392
 35 Ru   -0.43806   -0.22366    0.67566
 36 Pd    0.22255    0.16368    0.18560
 37 Ru    0.31460   -0.15162   -0.37703
 38 Pd    0.02307    0.10058    0.24030
 39 Pt    0.00502   -0.04993    0.22397
 40 Pd   -0.07630    0.00854    0.24633
 41 Pd    0.03637    0.05234    0.16924
 42 Pt   -0.00840   -0.14444    0.07110
 43 Pd   -0.07306   -0.12856    0.51768
 44 Ru   -0.25900    0.30400   -0.44768

System changes: positions 

Initializing position-dependent things.

Density initialized from wave functions
                                             
                                             
                                             
                                             
                                             
                 Pt     Pd     Ru            
            Pt     Pd     Pd    Ru           
                   Ag    Pt                  
        Pd    Ru     Pd    Pt                
                                             
         Pt    Pd     Pd    Pd     Ag        
                 Ag    Ag     Ag             
                                             
           Ag    PAg    APt    Pd            
                                             
            Pd     Ru    AAg    Pd           
       Ag     Ru     Ru                      
             Pd     Pd     Pt                
        Pd     Ag     Pt                     
                                             
                                             
                                             
                                             
                                             

Positions:
   0 Pd     0.000000    1.633958   10.000000    ( 0.0000,  0.0000,  0.0000)
   1 Ag     2.830098    1.633958   10.000000    ( 0.0000,  0.0000,  0.0000)
   2 Pt     5.660196    1.633958   10.000000    ( 0.0000,  0.0000,  0.0000)
   3 Pd     1.415049    4.084895   10.000000    ( 0.0000,  0.0000,  0.0000)
   4 Pd     4.245147    4.084895   10.000000    ( 0.0000,  0.0000,  0.0000)
   5 Pt     7.075245    4.084895   10.000000    ( 0.0000,  0.0000,  0.0000)
   6 Pd     2.830098    6.535832   10.000000    ( 0.0000,  0.0000,  0.0000)
   7 Ag     5.660196    6.535832   10.000000    ( 0.0000,  0.0000,  0.0000)
   8 Pd     8.490294    6.535832   10.000000    ( 0.0000,  0.0000,  0.0000)
   9 Ag     0.000000    0.000000   12.310765    ( 0.0000,  0.0000,  0.0000)
  10 Ru     2.830098    0.000000   12.310765    ( 0.0000,  0.0000,  0.0000)
  11 Ru     5.660196    0.000000   12.310765    ( 0.0000,  0.0000,  0.0000)
  12 Pd     1.415049    2.450937   12.310765    ( 0.0000,  0.0000,  0.0000)
  13 Ru     4.245147    2.450937   12.310765    ( 0.0000,  0.0000,  0.0000)
  14 Ag     7.075245    2.450937   12.310765    ( 0.0000,  0.0000,  0.0000)
  15 Pd     2.830098    4.901874   12.310765    ( 0.0000,  0.0000,  0.0000)
  16 Ag     5.660196    4.901874   12.310765    ( 0.0000,  0.0000,  0.0000)
  17 Pd     8.490294    4.901874   12.310765    ( 0.0000,  0.0000,  0.0000)
  18 Ag     1.447319    0.832494   14.627953    ( 0.0000,  0.0000,  0.0000)
  19 Ag     4.250246    0.831947   14.617595    ( 0.0000,  0.0000,  0.0000)
  20 Pt     7.021547    0.833157   14.620331    ( 0.0000,  0.0000,  0.0000)
  21 Ag     2.877976    3.275069   14.637715    ( 0.0000,  0.0000,  0.0000)
  22 Ag     5.646378    3.281151   14.640013    ( 0.0000,  0.0000,  0.0000)
  23 Ag     8.441892    3.287506   14.647191    ( 0.0000,  0.0000,  0.0000)
  24 Pd     4.276988    5.660981   14.697955    ( 0.0000,  0.0000,  0.0000)
  25 Pd     7.078347    5.726837   14.640716    ( 0.0000,  0.0000,  0.0000)
  26 Ag     9.840702    5.691097   14.645486    ( 0.0000,  0.0000,  0.0000)
  27 Pt     0.052548    1.665967   16.951796    ( 0.0000,  0.0000,  0.0000)
  28 Pd     2.877607    1.672917   16.971541    ( 0.0000,  0.0000,  0.0000)
  29 Pd     5.615191    1.670645   16.952242    ( 0.0000,  0.0000,  0.0000)
  30 Pd     1.471456    4.090853   16.962534    ( 0.0000,  0.0000,  0.0000)
  31 Ru     4.303622    4.077506   17.082313    ( 0.0000,  0.0000,  0.0000)
  32 Pt     7.025476    4.096797   16.979790    ( 0.0000,  0.0000,  0.0000)
  33 Ag     2.845262    6.513984   16.938705    ( 0.0000,  0.0000,  0.0000)
  34 Pt     5.658173    6.473414   16.957710    ( 0.0000,  0.0000,  0.0000)
  35 Ru     8.302864    6.452547   17.176979    ( 0.0000,  0.0000,  0.0000)
  36 Pd     0.094145    0.037195   19.296077    ( 0.0000,  0.0000,  0.0000)
  37 Ru     2.916680   -0.052812   19.082747    ( 0.0000,  0.0000,  0.0000)
  38 Pd     5.595095    0.011654   19.293228    ( 0.0000,  0.0000,  0.0000)
  39 Pt     1.438528    2.442489   19.277611    ( 0.0000,  0.0000,  0.0000)
  40 Pd     4.211559    2.454758   19.261602    ( 0.0000,  0.0000,  0.0000)
  41 Pd     7.070000    2.490461   19.283516    ( 0.0000,  0.0000,  0.0000)
  42 Pt     2.818299    4.824051   19.225676    ( 0.0000,  0.0000,  0.0000)
  43 Pd     5.660908    4.881275   19.298195    ( 0.0000,  0.0000,  0.0000)
  44 Ru     8.427016    4.994005   19.090580    ( 0.0000,  0.0000,  0.0000)

Unit cell:
           periodic     x           y           z      points  spacing
  1. axis:    yes    8.379498    0.000000    0.000000    35     0.2073
  2. axis:    yes    4.189749    7.256858    0.000000    35     0.2073
  3. axis:    no     0.000000    0.000000   29.243062   135     0.2166

  Lengths:   8.379498   8.379498  29.243062
  Angles:   90.000000  90.000000  60.000000

Effective grid spacing dv^(1/3) = 0.2207

                     log10-error:    total        iterations:
           time      wfs    density  energy       fermi  poisson
iter:   1  16:38:53  -1.62   +inf  -196.844251    3             
iter:   2  16:40:18  -0.59  -1.62  -429.736098    39            
iter:   3  16:41:45  -1.30  -1.07  -188.253277    39            
iter:   4  16:43:12  -2.16  -1.79  -178.810409    36            
iter:   5  16:44:39  -2.74  -2.24  -177.775735    3             
iter:   6  16:46:06  -3.64  -2.36  -177.512800    3             
iter:   7  16:47:32  -3.78  -2.58  -177.481630    2             
iter:   8  16:48:59  -3.97  -2.62  -177.380483    2             
iter:   9  16:50:25  -4.34  -2.75  -177.425985    3             
iter:  10  16:51:52  -4.30  -2.63  -177.373106    2             
iter:  11  16:53:19  -4.03  -2.81  -177.343670    3             
iter:  12  16:54:29  -4.50  -3.01  -177.337650    2             
iter:  13  16:55:40  -5.14  -3.05  -177.333164    2             
iter:  14  16:56:50  -5.01  -3.22  -177.341810    2             
iter:  15  16:58:01  -5.25  -3.02  -177.332552    3             
iter:  16  16:59:13  -5.01  -3.30  -177.332839    2             
iter:  17  17:00:23  -5.52  -3.36  -177.331238    2             
iter:  18  17:01:37  -5.98  -3.32  -177.330985    2             
iter:  19  17:02:52  -5.88  -3.40  -177.330557    2             
iter:  20  17:04:06  -5.99  -3.70  -177.330377    2             
iter:  21  17:05:20  -6.16  -3.45  -177.329052    2             
iter:  22  17:06:35  -6.42  -3.83  -177.329795    2             
iter:  23  17:07:50  -6.38  -3.87  -177.329170    2             
iter:  24  17:09:05  -6.40  -3.75  -177.330080    2             
iter:  25  17:10:19  -6.19  -3.88  -177.329592    2             
iter:  26  17:11:33  -6.50  -4.01  -177.330006    2             
iter:  27  17:12:48  -6.48  -4.07  -177.329457    2             
iter:  28  17:14:03  -7.45  -4.50  -177.329765    2             

Converged after 28 iterations.

Dipole moment: (27.300265, 21.657109, -0.080662) |e|*Ang

Energy contributions relative to reference atoms: (reference = -9071410.444371)

Kinetic:       -142.240594
Potential:       +2.424046
External:        +0.000000
XC:             -31.892708
Entropy (-ST):   -2.013505
Local:           -4.613757
--------------------------
Free energy:   -178.336518
Extrapolated:  -177.329765

Fermi level: 0.85856

Showing only first 2 kpts
 Kpt  Band  Eigenvalues  Occupancy
  0   364      0.84732    0.13202
  0   365      0.88636    0.10773
  0   366      0.89598    0.10188
  0   367      0.92689    0.08388

  1   364      0.75258    0.18566
  1   365      0.79009    0.16620
  1   366      0.80995    0.15479
  1   367      0.83950    0.13688



Forces in eV/Ang:
  0 Pd    0.09931    0.50448   -0.42924
  1 Ag    0.10583    0.49239   -0.53138
  2 Pt   -0.23495    0.51308    0.80854
  3 Pd    0.10058    0.03613   -0.08786
  4 Pd    0.10994   -0.37125    0.19610
  5 Pt   -0.13656   -0.29222   -0.09018
  6 Pd   -0.17155   -0.39810   -0.06445
  7 Ag   -0.12513   -0.45206   -0.71576
  8 Pd   -0.25271   -0.30531    0.25149
  9 Ag    0.54920    0.21421    0.15239
 10 Ru    2.22292    1.25949    0.19498
 11 Ru   -1.80464    0.87748   -0.54847
 12 Pd    1.13295   -0.23999   -0.20318
 13 Ru   -0.51816   -1.47636   -1.11766
 14 Ag   -0.40084    0.15051    0.02358
 15 Pd    0.20624   -0.58294   -0.13281
 16 Ag   -0.13596   -0.35763    0.08079
 17 Pd   -0.34726    0.53260   -0.22630
 18 Ag   -0.03189    0.10261   -0.01841
 19 Ag   -0.00287    0.04106    0.09395
 20 Pt    0.01520    0.01568   -0.03833
 21 Ag   -0.01396    0.02318    0.03585
 22 Ag   -0.02529   -0.05351    0.02921
 23 Ag   -0.00185   -0.07439   -0.01054
 24 Pd   -0.12502   -0.00410    0.03261
 25 Pd   -0.10022   -0.02603    0.04353
 26 Ag    0.00644   -0.01747    0.07322
 27 Pt    0.05815    0.01522    0.16651
 28 Pd   -0.01113    0.01588    0.01289
 29 Pd   -0.00121   -0.05774    0.14414
 30 Pd    0.01970   -0.00286    0.04080
 31 Ru    0.00094    0.03109    0.25726
 32 Pt   -0.16603   -0.11137    0.00534
 33 Ag   -0.20584   -0.01592    0.30975
 34 Pt   -0.16926   -0.06737    0.09298
 35 Ru    0.38133    0.08588   -1.34181
 36 Pd    0.06343    0.00228    0.07808
 37 Ru   -0.56270    0.40477    0.85088
 38 Pd    0.29047    0.06708    0.24502
 39 Pt   -0.01251    0.01925    0.04783
 40 Pd    0.01637   -0.09153    0.27937
 41 Pd    0.06211   -0.03540    0.12765
 42 Pt   -0.02065    0.12508    0.09460
 43 Pd    0.02860    0.07263    0.31753
 44 Ru    0.10584   -0.54937    0.66181

System changes: positions 

Initializing position-dependent things.

Density initialized from wave functions
                                            
                                            
                                            
                                            
                        Pd                  
                 Pt            Ru           
            Pt    APd    PPd   Ru           
       Pd     Ru     Pd                     
             Pd     Ru     Pt               
        Pt     Pd     Pd                    
                     Pd     Pd    Ag        
                Ag     Ag     Ag            
           Ag     Ag     Pt                 
                 Pd     Ag     Pd           
            Pd     Ru     Ag                
                  Pd     Ag     Pd          
       Ag    PRu    PRu    Pt               
                                            
        Pd     Ag     Pt                    
                                            
                                            
                                            
                                            

Positions:
   0 Pd     0.000000    1.633958   10.000000    ( 0.0000,  0.0000,  0.0000)
   1 Ag     2.830098    1.633958   10.000000    ( 0.0000,  0.0000,  0.0000)
   2 Pt     5.660196    1.633958   10.000000    ( 0.0000,  0.0000,  0.0000)
   3 Pd     1.415049    4.084895   10.000000    ( 0.0000,  0.0000,  0.0000)
   4 Pd     4.245147    4.084895   10.000000    ( 0.0000,  0.0000,  0.0000)
   5 Pt     7.075245    4.084895   10.000000    ( 0.0000,  0.0000,  0.0000)
   6 Pd     2.830098    6.535832   10.000000    ( 0.0000,  0.0000,  0.0000)
   7 Ag     5.660196    6.535832   10.000000    ( 0.0000,  0.0000,  0.0000)
   8 Pd     8.490294    6.535832   10.000000    ( 0.0000,  0.0000,  0.0000)
   9 Ag     0.000000    0.000000   12.310765    ( 0.0000,  0.0000,  0.0000)
  10 Ru     2.830098    0.000000   12.310765    ( 0.0000,  0.0000,  0.0000)
  11 Ru     5.660196    0.000000   12.310765    ( 0.0000,  0.0000,  0.0000)
  12 Pd     1.415049    2.450937   12.310765    ( 0.0000,  0.0000,  0.0000)
  13 Ru     4.245147    2.450937   12.310765    ( 0.0000,  0.0000,  0.0000)
  14 Ag     7.075245    2.450937   12.310765    ( 0.0000,  0.0000,  0.0000)
  15 Pd     2.830098    4.901874   12.310765    ( 0.0000,  0.0000,  0.0000)
  16 Ag     5.660196    4.901874   12.310765    ( 0.0000,  0.0000,  0.0000)
  17 Pd     8.490294    4.901874   12.310765    ( 0.0000,  0.0000,  0.0000)
  18 Ag     1.448945    0.832814   14.620314    ( 0.0000,  0.0000,  0.0000)
  19 Ag     4.250088    0.834861   14.612484    ( 0.0000,  0.0000,  0.0000)
  20 Pt     7.023587    0.839720   14.613929    ( 0.0000,  0.0000,  0.0000)
  21 Ag     2.874685    3.272071   14.631256    ( 0.0000,  0.0000,  0.0000)
  22 Ag     5.647020    3.277408   14.635238    ( 0.0000,  0.0000,  0.0000)
  23 Ag     8.447652    3.285339   14.637590    ( 0.0000,  0.0000,  0.0000)
  24 Pd     4.275494    5.661670   14.683485    ( 0.0000,  0.0000,  0.0000)
  25 Pd     7.078618    5.723036   14.637941    ( 0.0000,  0.0000,  0.0000)
  26 Ag     9.848603    5.692518   14.636281    ( 0.0000,  0.0000,  0.0000)
  27 Pt     0.049773    1.665784   16.949396    ( 0.0000,  0.0000,  0.0000)
  28 Pd     2.872835    1.666857   16.970463    ( 0.0000,  0.0000,  0.0000)
  29 Pd     5.614295    1.670767   16.947687    ( 0.0000,  0.0000,  0.0000)
  30 Pd     1.464670    4.093416   16.964518    ( 0.0000,  0.0000,  0.0000)
  31 Ru     4.293784    4.081550   17.055098    ( 0.0000,  0.0000,  0.0000)
  32 Pt     7.028810    4.109563   16.977948    ( 0.0000,  0.0000,  0.0000)
  33 Ag     2.846959    6.503356   16.937534    ( 0.0000,  0.0000,  0.0000)
  34 Pt     5.670680    6.471310   16.962887    ( 0.0000,  0.0000,  0.0000)
  35 Ru     8.325581    6.463765   17.143305    ( 0.0000,  0.0000,  0.0000)
  36 Pd     0.082637    0.029716   19.287263    ( 0.0000,  0.0000,  0.0000)
  37 Ru     2.901841   -0.045320   19.102269    ( 0.0000,  0.0000,  0.0000)
  38 Pd     5.596203    0.007402   19.282384    ( 0.0000,  0.0000,  0.0000)
  39 Pt     1.437612    2.444681   19.267879    ( 0.0000,  0.0000,  0.0000)
  40 Pd     4.215545    2.454310   19.251497    ( 0.0000,  0.0000,  0.0000)
  41 Pd     7.068753    2.487221   19.275722    ( 0.0000,  0.0000,  0.0000)
  42 Pt     2.818987    4.832034   19.223458    ( 0.0000,  0.0000,  0.0000)
  43 Pd     5.663714    4.886885   19.276461    ( 0.0000,  0.0000,  0.0000)
  44 Ru     8.438986    4.979406   19.112595    ( 0.0000,  0.0000,  0.0000)

Unit cell:
           periodic     x           y           z      points  spacing
  1. axis:    yes    8.379498    0.000000    0.000000    35     0.2073
  2. axis:    yes    4.189749    7.256858    0.000000    35     0.2073
  3. axis:    no     0.000000    0.000000   29.243062   135     0.2166

  Lengths:   8.379498   8.379498  29.243062
  Angles:   90.000000  90.000000  60.000000

Effective grid spacing dv^(1/3) = 0.2207

                     log10-error:    total        iterations:
           time      wfs    density  energy       fermi  poisson
iter:   1  17:15:50  -2.33   +inf  -185.280555    4             
iter:   2  17:16:55  -1.00  -1.76  -359.831355    37            
iter:   3  17:17:51  -1.55  -1.15  -188.277856    33            
iter:   4  17:18:47  -2.40  -1.81  -179.124527    4             
iter:   5  17:19:43  -3.00  -2.15  -177.502674    3             
iter:   6  17:20:40  -3.67  -2.76  -177.412908    3             
iter:   7  17:21:36  -4.42  -2.80  -177.406021    3             
iter:   8  17:22:32  -4.32  -2.89  -177.366494    2             
iter:   9  17:23:28  -4.93  -3.11  -177.373082    2             
iter:  10  17:24:33  -5.02  -3.01  -177.363870    2             
iter:  11  17:26:01  -4.76  -3.14  -177.361034    3             
iter:  12  17:27:28  -5.21  -3.38  -177.357089    2             
iter:  13  17:28:55  -5.64  -3.56  -177.357705    2             
iter:  14  17:30:21  -6.07  -3.57  -177.356436    2             
iter:  15  17:31:49  -5.87  -3.68  -177.358478    2             
iter:  16  17:33:15  -6.00  -3.56  -177.356329    2             
iter:  17  17:34:42  -5.99  -3.77  -177.356540    2             
iter:  18  17:36:09  -6.40  -3.86  -177.356241    2             
iter:  19  17:37:36  -7.10  -4.11  -177.356019    2             
iter:  20  17:39:02  -6.61  -4.17  -177.356077    2             
iter:  21  17:40:29  -6.87  -4.28  -177.355915    2             
iter:  22  17:41:56  -7.42  -4.31  -177.355943    2             

Converged after 22 iterations.

Dipole moment: (27.942340, 21.912625, -0.081190) |e|*Ang

Energy contributions relative to reference atoms: (reference = -9071410.444371)

Kinetic:       -145.659397
Potential:       +5.165340
External:        +0.000000
XC:             -31.266578
Entropy (-ST):   -2.032451
Local:           -4.579082
--------------------------
Free energy:   -178.372169
Extrapolated:  -177.355943

Fermi level: 0.85661

Showing only first 2 kpts
 Kpt  Band  Eigenvalues  Occupancy
  0   364      0.84707    0.13096
  0   365      0.88393    0.10803
  0   366      0.89930    0.09872
  0   367      0.92155    0.08579

  1   364      0.75254    0.18475
  1   365      0.78873    0.16587
  1   366      0.81132    0.15284
  1   367      0.83965    0.13558



Forces in eV/Ang:
  0 Pd    0.09530    0.50883   -0.43383
  1 Ag    0.10749    0.49680   -0.52907
  2 Pt   -0.23305    0.51071    0.80321
  3 Pd    0.10103    0.03969   -0.08942
  4 Pd    0.10606   -0.37053    0.19089
  5 Pt   -0.13143   -0.29566   -0.09614
  6 Pd   -0.17733   -0.39986   -0.06738
  7 Ag   -0.12601   -0.45380   -0.71538
  8 Pd   -0.24378   -0.31016    0.24882
  9 Ag    0.54579    0.22356    0.11174
 10 Ru    2.22729    1.24898    0.17365
 11 Ru   -1.80318    0.88536   -0.58402
 12 Pd    1.13448   -0.23931   -0.25104
 13 Ru   -0.51538   -1.47016   -1.14674
 14 Ag   -0.40130    0.15723   -0.01928
 15 Pd    0.20751   -0.59351   -0.18362
 16 Ag   -0.12945   -0.36693    0.05269
 17 Pd   -0.34647    0.53745   -0.25539
 18 Ag   -0.04422    0.05667    0.05020
 19 Ag    0.00039   -0.00864    0.10619
 20 Pt    0.00405   -0.05444    0.02735
 21 Ag    0.00838    0.04245    0.07508
 22 Ag   -0.01768   -0.00345    0.05462
 23 Ag   -0.03938   -0.03432    0.06770
 24 Pd   -0.07197    0.00871    0.13447
 25 Pd   -0.06864    0.01600    0.04297
 26 Ag   -0.04932   -0.01311    0.12083
 27 Pt    0.04371    0.00214    0.12521
 28 Pd    0.02267    0.05489    0.00524
 29 Pd    0.02404   -0.04888    0.12303
 30 Pd    0.05948   -0.03141   -0.00239
 31 Ru    0.06716   -0.01594    0.36652
 32 Pt   -0.12772   -0.18808    0.00181
 33 Ag   -0.15059    0.09270    0.20277
 34 Pt   -0.22575   -0.01600   -0.00499
 35 Ru    0.05533   -0.03692   -0.48323
 36 Pd    0.11903    0.06262    0.11185
 37 Ru   -0.19014    0.14561    0.33787
 38 Pd    0.19760    0.07608    0.23308
 39 Pt   -0.01554   -0.00771    0.10707
 40 Pd   -0.01869   -0.05213    0.26571
 41 Pd    0.06097   -0.00704    0.13867
 42 Pt   -0.01940    0.03436    0.08159
 43 Pd   -0.00615    0.00622    0.38090
 44 Ru   -0.04517   -0.17196    0.19662

System changes: positions 

Initializing position-dependent things.

Density initialized from wave functions
                                            
                                            
                                            
                                            
                        Pd                  
                 Pt            Ru           
            Pt    APd    PPd   Ru           
       Pd            Pd                     
             PRu    Ru     Pt               
        Pt     Pd     Pd                    
                     Pd     Pd    Ag        
                Ag     Ag     Ag            
           Ag     Ag     Pt                 
                 Pd     Ag     Pd           
            Pd     Ru     Ag                
                  Pd     Ag     Pd          
       Ag    PRu    PRu    Pt               
                                            
        Pd     Ag     Pt                    
                                            
                                            
                                            
                                            

Positions:
   0 Pd     0.000000    1.633958   10.000000    ( 0.0000,  0.0000,  0.0000)
   1 Ag     2.830098    1.633958   10.000000    ( 0.0000,  0.0000,  0.0000)
   2 Pt     5.660196    1.633958   10.000000    ( 0.0000,  0.0000,  0.0000)
   3 Pd     1.415049    4.084895   10.000000    ( 0.0000,  0.0000,  0.0000)
   4 Pd     4.245147    4.084895   10.000000    ( 0.0000,  0.0000,  0.0000)
   5 Pt     7.075245    4.084895   10.000000    ( 0.0000,  0.0000,  0.0000)
   6 Pd     2.830098    6.535832   10.000000    ( 0.0000,  0.0000,  0.0000)
   7 Ag     5.660196    6.535832   10.000000    ( 0.0000,  0.0000,  0.0000)
   8 Pd     8.490294    6.535832   10.000000    ( 0.0000,  0.0000,  0.0000)
   9 Ag     0.000000    0.000000   12.310765    ( 0.0000,  0.0000,  0.0000)
  10 Ru     2.830098    0.000000   12.310765    ( 0.0000,  0.0000,  0.0000)
  11 Ru     5.660196    0.000000   12.310765    ( 0.0000,  0.0000,  0.0000)
  12 Pd     1.415049    2.450937   12.310765    ( 0.0000,  0.0000,  0.0000)
  13 Ru     4.245147    2.450937   12.310765    ( 0.0000,  0.0000,  0.0000)
  14 Ag     7.075245    2.450937   12.310765    ( 0.0000,  0.0000,  0.0000)
  15 Pd     2.830098    4.901874   12.310765    ( 0.0000,  0.0000,  0.0000)
  16 Ag     5.660196    4.901874   12.310765    ( 0.0000,  0.0000,  0.0000)
  17 Pd     8.490294    4.901874   12.310765    ( 0.0000,  0.0000,  0.0000)
  18 Ag     1.446160    0.840093   14.629297    ( 0.0000,  0.0000,  0.0000)
  19 Ag     4.250611    0.834000   14.625678    ( 0.0000,  0.0000,  0.0000)
  20 Pt     7.018816    0.832556   14.619324    ( 0.0000,  0.0000,  0.0000)
  21 Ag     2.880818    3.278439   14.643266    ( 0.0000,  0.0000,  0.0000)
  22 Ag     5.643719    3.279600   14.644554    ( 0.0000,  0.0000,  0.0000)
  23 Ag     8.437143    3.284087   14.650820    ( 0.0000,  0.0000,  0.0000)
  24 Pd     4.270904    5.657598   14.710030    ( 0.0000,  0.0000,  0.0000)
  25 Pd     7.071334    5.726927   14.645262    ( 0.0000,  0.0000,  0.0000)
  26 Ag     9.834840    5.688262   14.654966    ( 0.0000,  0.0000,  0.0000)
  27 Pt     0.059909    1.668712   16.965498    ( 0.0000,  0.0000,  0.0000)
  28 Pd     2.881071    1.678389   16.974673    ( 0.0000,  0.0000,  0.0000)
  29 Pd     5.613564    1.668434   16.964441    ( 0.0000,  0.0000,  0.0000)
  30 Pd     1.478417    4.089491   16.965953    ( 0.0000,  0.0000,  0.0000)
  31 Ru     4.309739    4.077619   17.117837    ( 0.0000,  0.0000,  0.0000)
  32 Pt     7.009586    4.085129   16.982766    ( 0.0000,  0.0000,  0.0000)
  33 Ag     2.831229    6.515805   16.960472    ( 0.0000,  0.0000,  0.0000)
  34 Pt     5.641129    6.465295   16.962381    ( 0.0000,  0.0000,  0.0000)
  35 Ru     8.307222    6.448504   17.124372    ( 0.0000,  0.0000,  0.0000)
  36 Pd     0.107791    0.042502   19.307203    ( 0.0000,  0.0000,  0.0000)
  37 Ru     2.894225   -0.036851   19.117980    ( 0.0000,  0.0000,  0.0000)
  38 Pd     5.611819    0.018275   19.316017    ( 0.0000,  0.0000,  0.0000)
  39 Pt     1.438216    2.442286   19.286151    ( 0.0000,  0.0000,  0.0000)
  40 Pd     4.209191    2.449158   19.285778    ( 0.0000,  0.0000,  0.0000)
  41 Pd     7.075416    2.490980   19.297133    ( 0.0000,  0.0000,  0.0000)
  42 Pt     2.815648    4.826216   19.231743    ( 0.0000,  0.0000,  0.0000)
  43 Pd     5.661996    4.883651   19.330810    ( 0.0000,  0.0000,  0.0000)
  44 Ru     8.424174    4.974119   19.112671    ( 0.0000,  0.0000,  0.0000)

Unit cell:
           periodic     x           y           z      points  spacing
  1. axis:    yes    8.379498    0.000000    0.000000    35     0.2073
  2. axis:    yes    4.189749    7.256858    0.000000    35     0.2073
  3. axis:    no     0.000000    0.000000   29.243062   135     0.2166

  Lengths:   8.379498   8.379498  29.243062
  Angles:   90.000000  90.000000  60.000000

Effective grid spacing dv^(1/3) = 0.2207

                     log10-error:    total        iterations:
           time      wfs    density  energy       fermi  poisson
iter:   1  17:44:00  -2.03   +inf  -184.016746    4             
iter:   2  17:45:27  -1.13  -1.80  -318.324768    37            
iter:   3  17:46:53  -1.66  -1.23  -184.509037    38            
iter:   4  17:48:20  -2.42  -1.87  -179.266669    35            
iter:   5  17:49:31  -2.85  -2.14  -177.947665    3             
iter:   6  17:50:41  -3.93  -2.36  -177.576410    2             
iter:   7  17:51:51  -3.95  -2.70  -177.484833    2             
iter:   8  17:53:04  -4.55  -2.90  -177.470113    2             
iter:   9  17:54:13  -4.95  -2.96  -177.473464    3             
iter:  10  17:55:24  -4.28  -2.95  -177.576662    3             
iter:  11  17:56:34  -4.41  -2.62  -177.463833    3             
iter:  12  17:57:44  -5.01  -3.06  -177.447806    2             
iter:  13  17:58:55  -5.48  -3.28  -177.447306    2             
iter:  14  18:00:05  -5.34  -3.36  -177.448944    2             
iter:  15  18:01:16  -5.59  -3.21  -177.446086    2             
iter:  16  18:02:26  -5.42  -3.43  -177.445319    2             
iter:  17  18:03:37  -5.36  -3.57  -177.446318    2             
iter:  18  18:04:47  -6.09  -3.54  -177.444458    2             
iter:  19  18:05:57  -6.50  -3.80  -177.444705    2             
iter:  20  18:07:08  -6.45  -4.00  -177.443991    2             
iter:  21  18:08:18  -6.52  -4.03  -177.445013    2             
iter:  22  18:09:29  -6.82  -3.95  -177.444517    2             
iter:  23  18:10:40  -6.99  -4.22  -177.444458    2             
iter:  24  18:11:51  -7.39  -4.41  -177.444496    2             
iter:  25  18:13:01  -7.83  -4.52  -177.444424    2             

Converged after 25 iterations.

Dipole moment: (26.203633, 20.398899, -0.082333) |e|*Ang

Energy contributions relative to reference atoms: (reference = -9071410.444371)

Kinetic:       -152.047103
Potential:      +10.430468
External:        +0.000000
XC:             -30.244871
Entropy (-ST):   -2.025981
Local:           -4.569928
--------------------------
Free energy:   -178.457414
Extrapolated:  -177.444424

Fermi level: 0.85545

Showing only first 2 kpts
 Kpt  Band  Eigenvalues  Occupancy
  0   364      0.84293    0.13281
  0   365      0.87884    0.11045
  0   366      0.89595    0.10003
  0   367      0.91975    0.08614

  1   364      0.75262    0.18415
  1   365      0.78591    0.16679
  1   366      0.81155    0.15201
  1   367      0.83408    0.13830



Forces in eV/Ang:
  0 Pd    0.09738    0.50656   -0.42583
  1 Ag    0.10642    0.49370   -0.52752
  2 Pt   -0.23352    0.51188    0.81397
  3 Pd    0.10057    0.03611   -0.08599
  4 Pd    0.10887   -0.37172    0.19962
  5 Pt   -0.13525   -0.29458   -0.08718
  6 Pd   -0.17378   -0.39712   -0.06018
  7 Ag   -0.12586   -0.45341   -0.71067
  8 Pd   -0.24874   -0.30522    0.25492
  9 Ag    0.55164    0.20148    0.17894
 10 Ru    2.22765    1.26310    0.22038
 11 Ru   -1.81144    0.86859   -0.51934
 12 Pd    1.13645   -0.22802   -0.18950
 13 Ru   -0.52036   -1.47854   -1.09131
 14 Ag   -0.40598    0.15342    0.02908
 15 Pd    0.19809   -0.57739   -0.10040
 16 Ag   -0.14977   -0.35929    0.10683
 17 Pd   -0.34574    0.53664   -0.19914
 18 Ag   -0.03888    0.03298    0.00655
 19 Ag   -0.01965    0.02531    0.02620
 20 Pt    0.03697   -0.01481    0.02918
 21 Ag   -0.04070    0.00695    0.01610
 22 Ag   -0.03542   -0.05195    0.01414
 23 Ag    0.01546   -0.04873   -0.00647
 24 Pd   -0.12841    0.04717   -0.00376
 25 Pd   -0.09694   -0.01378    0.01247
 26 Ag    0.04092    0.00715    0.00204
 27 Pt   -0.02429   -0.03450    0.07662
 28 Pd   -0.01270   -0.09559    0.10122
 29 Pd   -0.00311   -0.06749    0.13590
 30 Pd   -0.08479    0.00153    0.09259
 31 Ru   -0.07157    0.01037    0.12211
 32 Pt   -0.01406    0.07619    0.13112
 33 Ag   -0.12394    0.02277    0.19370
 34 Pt    0.09869   -0.01512    0.22969
 35 Ru    0.00722    0.03229   -0.01265
 36 Pd   -0.00868   -0.04688    0.09225
 37 Ru    0.01718   -0.03709    0.01982
 38 Pd   -0.02996   -0.09823    0.04664
 39 Pt    0.02342    0.04790    0.05581
 40 Pd    0.02729   -0.10220    0.21874
 41 Pd    0.01458   -0.01704    0.10901
 42 Pt   -0.03419    0.12126    0.15022
 43 Pd    0.06802    0.07316    0.21329
 44 Ru    0.03751    0.04966    0.07458

System changes: positions 

Initializing position-dependent things.

Density initialized from wave functions
                                            
                                            
                                            
                                            
                        Pd                  
                 Pt            Ru           
            Pt    APd    PPd   Ru           
       Pd            Pd                     
             PRu    Ru     Pt               
        Pt     Pd     Pd                    
                     Pd     Pd    Ag        
                Ag     Ag     Ag            
           Ag     Ag     Pt                 
                 Pd     Ag     Pd           
            Pd     Ru     Ag                
                  Pd     Ag     Pd          
       Ag    PRu    PRu    Pt               
                                            
        Pd     Ag     Pt                    
                                            
                                            
                                            
                                            

Positions:
   0 Pd     0.000000    1.633958   10.000000    ( 0.0000,  0.0000,  0.0000)
   1 Ag     2.830098    1.633958   10.000000    ( 0.0000,  0.0000,  0.0000)
   2 Pt     5.660196    1.633958   10.000000    ( 0.0000,  0.0000,  0.0000)
   3 Pd     1.415049    4.084895   10.000000    ( 0.0000,  0.0000,  0.0000)
   4 Pd     4.245147    4.084895   10.000000    ( 0.0000,  0.0000,  0.0000)
   5 Pt     7.075245    4.084895   10.000000    ( 0.0000,  0.0000,  0.0000)
   6 Pd     2.830098    6.535832   10.000000    ( 0.0000,  0.0000,  0.0000)
   7 Ag     5.660196    6.535832   10.000000    ( 0.0000,  0.0000,  0.0000)
   8 Pd     8.490294    6.535832   10.000000    ( 0.0000,  0.0000,  0.0000)
   9 Ag     0.000000    0.000000   12.310765    ( 0.0000,  0.0000,  0.0000)
  10 Ru     2.830098    0.000000   12.310765    ( 0.0000,  0.0000,  0.0000)
  11 Ru     5.660196    0.000000   12.310765    ( 0.0000,  0.0000,  0.0000)
  12 Pd     1.415049    2.450937   12.310765    ( 0.0000,  0.0000,  0.0000)
  13 Ru     4.245147    2.450937   12.310765    ( 0.0000,  0.0000,  0.0000)
  14 Ag     7.075245    2.450937   12.310765    ( 0.0000,  0.0000,  0.0000)
  15 Pd     2.830098    4.901874   12.310765    ( 0.0000,  0.0000,  0.0000)
  16 Ag     5.660196    4.901874   12.310765    ( 0.0000,  0.0000,  0.0000)
  17 Pd     8.490294    4.901874   12.310765    ( 0.0000,  0.0000,  0.0000)
  18 Ag     1.439475    0.848704   14.636762    ( 0.0000,  0.0000,  0.0000)
  19 Ag     4.248371    0.836511   14.637521    ( 0.0000,  0.0000,  0.0000)
  20 Pt     7.020045    0.825485   14.627467    ( 0.0000,  0.0000,  0.0000)
  21 Ag     2.880029    3.283603   14.653592    ( 0.0000,  0.0000,  0.0000)
  22 Ag     5.636850    3.274773   14.652811    ( 0.0000,  0.0000,  0.0000)
  23 Ag     8.431624    3.277528   14.659536    ( 0.0000,  0.0000,  0.0000)
  24 Pd     4.251850    5.660790   14.728123    ( 0.0000,  0.0000,  0.0000)
  25 Pd     7.054288    5.728098   14.651799    ( 0.0000,  0.0000,  0.0000)
  26 Ag     9.830289    5.686225   14.667784    ( 0.0000,  0.0000,  0.0000)
  27 Pt     0.063513    1.666164   16.985460    ( 0.0000,  0.0000,  0.0000)
  28 Pd     2.885481    1.673730   16.991223    ( 0.0000,  0.0000,  0.0000)
  29 Pd     5.612378    1.658526   16.993104    ( 0.0000,  0.0000,  0.0000)
  30 Pd     1.476788    4.087068   16.979096    ( 0.0000,  0.0000,  0.0000)
  31 Ru     4.311728    4.075931   17.176378    ( 0.0000,  0.0000,  0.0000)
  32 Pt     6.995685    4.079266   17.003894    ( 0.0000,  0.0000,  0.0000)
  33 Ag     2.805705    6.527622   16.999509    ( 0.0000,  0.0000,  0.0000)
  34 Pt     5.635283    6.459566   16.992066    ( 0.0000,  0.0000,  0.0000)
  35 Ru     8.291281    6.441101   17.121446    ( 0.0000,  0.0000,  0.0000)
  36 Pd     0.124085    0.045302   19.333039    ( 0.0000,  0.0000,  0.0000)
  37 Ru     2.896129   -0.039118   19.123784    ( 0.0000,  0.0000,  0.0000)
  38 Pd     5.615599    0.012221   19.343806    ( 0.0000,  0.0000,  0.0000)
  39 Pt     1.442137    2.446814   19.306143    ( 0.0000,  0.0000,  0.0000)
  40 Pd     4.208103    2.432753   19.336390    ( 0.0000,  0.0000,  0.0000)
  41 Pd     7.081281    2.491908   19.325686    ( 0.0000,  0.0000,  0.0000)
  42 Pt     2.808938    4.836679   19.256669    ( 0.0000,  0.0000,  0.0000)
  43 Pd     5.669581    4.890278   19.394635    ( 0.0000,  0.0000,  0.0000)
  44 Ru     8.417811    4.981686   19.116621    ( 0.0000,  0.0000,  0.0000)

Unit cell:
           periodic     x           y           z      points  spacing
  1. axis:    yes    8.379498    0.000000    0.000000    35     0.2073
  2. axis:    yes    4.189749    7.256858    0.000000    35     0.2073
  3. axis:    no     0.000000    0.000000   29.243062   135     0.2166

  Lengths:   8.379498   8.379498  29.243062
  Angles:   90.000000  90.000000  60.000000

Effective grid spacing dv^(1/3) = 0.2207

                     log10-error:    total        iterations:
           time      wfs    density  energy       fermi  poisson
iter:   1  18:14:42  -1.86   +inf  -195.020013    3             
iter:   2  18:15:53  -0.58  -1.62  -420.019497    38            
iter:   3  18:17:04  -1.30  -1.08  -190.595642    39            
iter:   4  18:18:14  -2.10  -1.74  -180.060805    36            
iter:   5  18:19:25  -2.67  -2.13  -178.115965    3             
iter:   6  18:20:35  -3.58  -2.38  -177.755929    2             
iter:   7  18:21:45  -3.48  -2.65  -177.592338    3             
iter:   8  18:23:01  -4.17  -2.79  -177.555074    2             
iter:   9  18:24:15  -4.49  -2.88  -177.587929    3             
iter:  10  18:25:11  -4.64  -2.73  -177.565479    2             
iter:  11  18:26:08  -4.07  -2.82  -177.530215    3             
iter:  12  18:27:04  -4.68  -3.02  -177.513709    2             
iter:  13  18:28:00  -5.28  -3.24  -177.513450    2             
iter:  14  18:28:56  -5.58  -3.31  -177.513591    2             
iter:  15  18:29:53  -5.62  -3.24  -177.511112    2             
iter:  16  18:30:49  -5.06  -3.40  -177.511777    2             
iter:  17  18:31:45  -5.14  -3.33  -177.524455    3             
iter:  18  18:32:43  -5.37  -3.12  -177.508913    2             
iter:  19  18:34:10  -6.09  -3.54  -177.508740    2             
iter:  20  18:35:37  -6.30  -3.74  -177.508308    2             
iter:  21  18:37:04  -6.37  -3.63  -177.508357    2             
iter:  22  18:38:30  -6.65  -4.02  -177.508198    2             
iter:  23  18:39:57  -6.59  -4.11  -177.508133    2             
iter:  24  18:41:24  -6.73  -4.14  -177.508497    2             
iter:  25  18:42:51  -7.44  -4.18  -177.508570    2             

Converged after 25 iterations.

Dipole moment: (25.487544, 20.634785, -0.087678) |e|*Ang

Energy contributions relative to reference atoms: (reference = -9071410.444371)

Kinetic:       -156.802681
Potential:      +14.283167
External:        +0.000000
XC:             -29.395959
Entropy (-ST):   -2.019112
Local:           -4.583540
--------------------------
Free energy:   -178.518127
Extrapolated:  -177.508570

Fermi level: 0.85293

Showing only first 2 kpts
 Kpt  Band  Eigenvalues  Occupancy
  0   364      0.83934    0.13348
  0   365      0.87310    0.11243
  0   366      0.89274    0.10044
  0   367      0.91892    0.08519

  1   364      0.75023    0.18408
  1   365      0.78136    0.16791
  1   366      0.81066    0.15103
  1   367      0.82392    0.14300



Forces in eV/Ang:
  0 Pd    0.09438    0.50881   -0.42052
  1 Ag    0.10627    0.49433   -0.52345
  2 Pt   -0.23020    0.51285    0.82337
  3 Pd    0.09890    0.03633   -0.08091
  4 Pd    0.11058   -0.37191    0.20678
  5 Pt   -0.13445   -0.29709   -0.07954
  6 Pd   -0.17529   -0.39591   -0.05293
  7 Ag   -0.12657   -0.45498   -0.70379
  8 Pd   -0.24617   -0.30655    0.26342
  9 Ag    0.55323    0.19500    0.21723
 10 Ru    2.22852    1.27337    0.26926
 11 Ru   -1.82280    0.86309   -0.47132
 12 Pd    1.13679   -0.21945   -0.16158
 13 Ru   -0.52956   -1.48478   -1.04831
 14 Ag   -0.41065    0.14513    0.07398
 15 Pd    0.19003   -0.57395   -0.05993
 16 Ag   -0.17010   -0.36160    0.15927
 17 Pd   -0.34817    0.53875   -0.14428
 18 Ag    0.01447   -0.05682    0.04335
 19 Ag   -0.02136   -0.01227   -0.00660
 20 Pt   -0.02457    0.02775    0.06579
 21 Ag   -0.05397   -0.03660    0.03090
 22 Ag   -0.02035   -0.01305    0.07421
 23 Ag   -0.01062    0.03083    0.01576
 24 Pd   -0.01361    0.04459    0.05669
 25 Pd   -0.05179   -0.02671    0.02444
 26 Ag   -0.02425    0.01821   -0.02700
 27 Pt   -0.05902   -0.02464    0.05377
 28 Pd   -0.03903   -0.01455    0.10554
 29 Pd   -0.03849    0.06336    0.08397
 30 Pd   -0.07741   -0.01613    0.10304
 31 Ru   -0.09145    0.00710    0.02299
 32 Pt   -0.00120    0.05222    0.10089
 33 Ag    0.05569   -0.07929    0.02952
 34 Pt   -0.02827   -0.02615    0.09654
 35 Ru    0.08981    0.04461    0.03154
 36 Pd   -0.08509   -0.04012    0.11072
 37 Ru    0.05759   -0.02562    0.13855
 38 Pd   -0.08009   -0.05186    0.07361
 39 Pt    0.02921    0.05792    0.03373
 40 Pd    0.02409   -0.00464    0.12237
 41 Pd   -0.01416   -0.01680    0.08706
 42 Pt    0.02743    0.00371    0.18564
 43 Pd    0.04331   -0.00108    0.10172
 44 Ru    0.06327    0.01382    0.15174

System changes: positions 

Initializing position-dependent things.

Density initialized from wave functions
                                            
                                            
                                            
                                            
                                            
                 Pt     Pd     Ru           
            Pt     Pd     Pd                
       Pd         Ag Pd  Pt    Ru           
             PRu    Ru     Pt               
                                            
        Pt     Pd    PPd    Pd    Ag        
                                            
                Ag     Ag     Ag            
           Ag     Ag     Pt                 
                 Pd     Ag     Pd           
            Pd     Ru     Ag                
       Ag     Ru  Pd Ru  Ag     Pd          
             Pd     Pd     Pt               
        Pd     Ag     Pt                    
                                            
                                            
                                            
                                            
                                            

Positions:
   0 Pd     0.000000    1.633958   10.000000    ( 0.0000,  0.0000,  0.0000)
   1 Ag     2.830098    1.633958   10.000000    ( 0.0000,  0.0000,  0.0000)
   2 Pt     5.660196    1.633958   10.000000    ( 0.0000,  0.0000,  0.0000)
   3 Pd     1.415049    4.084895   10.000000    ( 0.0000,  0.0000,  0.0000)
   4 Pd     4.245147    4.084895   10.000000    ( 0.0000,  0.0000,  0.0000)
   5 Pt     7.075245    4.084895   10.000000    ( 0.0000,  0.0000,  0.0000)
   6 Pd     2.830098    6.535832   10.000000    ( 0.0000,  0.0000,  0.0000)
   7 Ag     5.660196    6.535832   10.000000    ( 0.0000,  0.0000,  0.0000)
   8 Pd     8.490294    6.535832   10.000000    ( 0.0000,  0.0000,  0.0000)
   9 Ag     0.000000    0.000000   12.310765    ( 0.0000,  0.0000,  0.0000)
  10 Ru     2.830098    0.000000   12.310765    ( 0.0000,  0.0000,  0.0000)
  11 Ru     5.660196    0.000000   12.310765    ( 0.0000,  0.0000,  0.0000)
  12 Pd     1.415049    2.450937   12.310765    ( 0.0000,  0.0000,  0.0000)
  13 Ru     4.245147    2.450937   12.310765    ( 0.0000,  0.0000,  0.0000)
  14 Ag     7.075245    2.450937   12.310765    ( 0.0000,  0.0000,  0.0000)
  15 Pd     2.830098    4.901874   12.310765    ( 0.0000,  0.0000,  0.0000)
  16 Ag     5.660196    4.901874   12.310765    ( 0.0000,  0.0000,  0.0000)
  17 Pd     8.490294    4.901874   12.310765    ( 0.0000,  0.0000,  0.0000)
  18 Ag     1.435118    0.848425   14.655513    ( 0.0000,  0.0000,  0.0000)
  19 Ag     4.242705    0.835834   14.651955    ( 0.0000,  0.0000,  0.0000)
  20 Pt     7.014552    0.820868   14.649516    ( 0.0000,  0.0000,  0.0000)
  21 Ag     2.872279    3.284152   14.673445    ( 0.0000,  0.0000,  0.0000)
  22 Ag     5.625776    3.269488   14.677539    ( 0.0000,  0.0000,  0.0000)
  23 Ag     8.420188    3.277332   14.676179    ( 0.0000,  0.0000,  0.0000)
  24 Pd     4.231281    5.670043   14.765899    ( 0.0000,  0.0000,  0.0000)
  25 Pd     7.027287    5.726229   14.664979    ( 0.0000,  0.0000,  0.0000)
  26 Ag     9.815767    5.685972   14.681978    ( 0.0000,  0.0000,  0.0000)
  27 Pt     0.059976    1.660527   17.018693    ( 0.0000,  0.0000,  0.0000)
  28 Pd     2.886021    1.671794   17.026935    ( 0.0000,  0.0000,  0.0000)
  29 Pd     5.604018    1.660578   17.040205    ( 0.0000,  0.0000,  0.0000)
  30 Pd     1.467076    4.080320   17.009845    ( 0.0000,  0.0000,  0.0000)
  31 Ru     4.303952    4.073725   17.258283    ( 0.0000,  0.0000,  0.0000)
  32 Pt     6.976126    4.073651   17.043236    ( 0.0000,  0.0000,  0.0000)
  33 Ag     2.787771    6.529481   17.047309    ( 0.0000,  0.0000,  0.0000)
  34 Pt     5.613440    6.447834   17.035276    ( 0.0000,  0.0000,  0.0000)
  35 Ru     8.282559    6.435367   17.125798    ( 0.0000,  0.0000,  0.0000)
  36 Pd     0.133656    0.046048   19.384380    ( 0.0000,  0.0000,  0.0000)
  37 Ru     2.908956   -0.044735   19.154794    ( 0.0000,  0.0000,  0.0000)
  38 Pd     5.608814    0.001597   19.394798    ( 0.0000,  0.0000,  0.0000)
  39 Pt     1.451429    2.460206   19.337809    ( 0.0000,  0.0000,  0.0000)
  40 Pd     4.208631    2.415683   19.416606    ( 0.0000,  0.0000,  0.0000)
  41 Pd     7.086250    2.491646   19.375386    ( 0.0000,  0.0000,  0.0000)
  42 Pt     2.806668    4.843102   19.315609    ( 0.0000,  0.0000,  0.0000)
  43 Pd     5.683216    4.893919   19.491475    ( 0.0000,  0.0000,  0.0000)
  44 Ru     8.416512    4.992367   19.143064    ( 0.0000,  0.0000,  0.0000)

Unit cell:
           periodic     x           y           z      points  spacing
  1. axis:    yes    8.379498    0.000000    0.000000    35     0.2073
  2. axis:    yes    4.189749    7.256858    0.000000    35     0.2073
  3. axis:    no     0.000000    0.000000   29.243062   135     0.2166

  Lengths:   8.379498   8.379498  29.243062
  Angles:   90.000000  90.000000  60.000000

Effective grid spacing dv^(1/3) = 0.2207

                     log10-error:    total        iterations:
           time      wfs    density  energy       fermi  poisson
iter:   1  18:44:55  -1.42   +inf  -224.422268    3             
iter:   2  18:46:22  +0.33  -1.39  -654.051954    37            
iter:   3  18:47:49  -0.68  -0.88  -201.308116    38            
iter:   4  18:49:15  -1.73  -1.63  -181.349106    37            
iter:   5  18:50:42  -2.44  -2.13  -179.315152    3             
iter:   6  18:52:09  -3.23  -2.17  -178.586758    2             
iter:   7  18:53:36  -2.76  -2.37  -178.213198    3             
iter:   8  18:55:03  -3.29  -2.33  -179.210016    3             
iter:   9  18:56:30  -3.55  -2.10  -177.878520    3             
iter:  10  18:57:57  -3.17  -2.53  -177.656885    3             
iter:  11  18:59:24  -4.05  -2.75  -177.614742    3             
iter:  12  19:00:50  -4.46  -2.92  -177.598745    3             
iter:  13  19:02:17  -5.19  -2.97  -177.593596    2             
iter:  14  19:03:43  -5.18  -3.00  -177.593392    3             
iter:  15  19:04:48  -4.58  -3.04  -177.586732    3             
iter:  16  19:05:59  -4.87  -2.96  -177.571888    3             
iter:  17  19:07:09  -4.99  -3.06  -177.562145    2             
iter:  18  19:08:20  -5.44  -3.43  -177.560822    2             
iter:  19  19:09:30  -5.49  -3.40  -177.559087    2             
iter:  20  19:10:41  -5.57  -3.48  -177.559829    3             
iter:  21  19:11:52  -6.12  -3.63  -177.559502    2             
iter:  22  19:13:07  -6.13  -3.73  -177.558711    2             
iter:  23  19:14:22  -5.92  -3.76  -177.559712    2             
iter:  24  19:15:36  -6.35  -3.82  -177.559654    2             
iter:  25  19:16:50  -6.69  -3.93  -177.559543    2             
iter:  26  19:18:04  -6.65  -4.02  -177.559929    2             
iter:  27  19:19:19  -6.75  -4.02  -177.560090    2             
iter:  28  19:20:33  -7.57  -4.19  -177.559701    2             

Converged after 28 iterations.

Dipole moment: (24.679654, 20.987372, -0.093413) |e|*Ang

Energy contributions relative to reference atoms: (reference = -9071410.444371)

Kinetic:       -166.844477
Potential:      +22.525183
External:        +0.000000
XC:             -27.631213
Entropy (-ST):   -2.019746
Local:           -4.599321
--------------------------
Free energy:   -178.569574
Extrapolated:  -177.559701

Fermi level: 0.84780

Showing only first 2 kpts
 Kpt  Band  Eigenvalues  Occupancy
  0   364      0.83444    0.13333
  0   365      0.86341    0.11526
  0   366      0.88570    0.10159
  0   367      0.91536    0.08431

  1   364      0.74649    0.18341
  1   365      0.77508    0.16855
  1   366      0.80750    0.14985
  1   367      0.81129    0.14756



Forces in eV/Ang:
  0 Pd    0.09943    0.50864   -0.42482
  1 Ag    0.10273    0.49435   -0.52404
  2 Pt   -0.22927    0.51311    0.82177
  3 Pd    0.10019    0.03322   -0.08327
  4 Pd    0.10830   -0.36992    0.19990
  5 Pt   -0.13150   -0.29599   -0.08561
  6 Pd   -0.17166   -0.39600   -0.05972
  7 Ag   -0.12820   -0.45382   -0.70777
  8 Pd   -0.24760   -0.30649    0.26505
  9 Ag    0.54264    0.19401    0.31758
 10 Ru    2.21716    1.28227    0.32090
 11 Ru   -1.82764    0.85952   -0.41731
 12 Pd    1.13105   -0.22193   -0.09409
 13 Ru   -0.53978   -1.48070   -0.97066
 14 Ag   -0.41994    0.13300    0.16983
 15 Pd    0.19027   -0.57114    0.02206
 16 Ag   -0.20171   -0.37260    0.24760
 17 Pd   -0.35869    0.53750   -0.08893
 18 Ag   -0.00391   -0.03797    0.04842
 19 Ag   -0.02899   -0.01634   -0.00198
 20 Pt   -0.03274    0.06878    0.04134
 21 Ag   -0.05036   -0.02690    0.02358
 22 Ag   -0.02945    0.03915    0.06253
 23 Ag   -0.01562    0.02349    0.03153
 24 Pd    0.03403   -0.05082   -0.02209
 25 Pd    0.03642   -0.03368    0.04784
 26 Ag   -0.01313   -0.00014   -0.02001
 27 Pt   -0.07382   -0.00349    0.04524
 28 Pd   -0.06973   -0.00493    0.09409
 29 Pd   -0.04504    0.05479    0.02159
 30 Pd   -0.03352    0.02304    0.08022
 31 Ru   -0.05123   -0.00928   -0.02737
 32 Pt    0.04938    0.08942    0.09312
 33 Ag    0.07074   -0.11620   -0.03699
 34 Pt    0.08723    0.02009    0.10872
 35 Ru   -0.00030    0.03131    0.18341
 36 Pd   -0.09128   -0.01389    0.03801
 37 Ru    0.00835   -0.05386    0.04383
 38 Pd   -0.01472    0.02910    0.01570
 39 Pt   -0.03893   -0.01747   -0.00053
 40 Pd    0.01540    0.08278   -0.02859
 41 Pd   -0.01322   -0.01926    0.00581
 42 Pt    0.05100   -0.05397    0.09503
 43 Pd   -0.00592   -0.03237   -0.10332
 44 Ru    0.03228   -0.03727    0.09036

System changes: positions 

Initializing position-dependent things.

Density initialized from wave functions
                                             
                                             
                                             
                                             
                                             
                 Pt      Pd    Ru            
                                             
            Pt    APd    PPd    Ru           
        Pd           Pd                      
              Ru           Pt                
         Pt    Pd    PPd    Pd     Ag        
                                             
                 Ag    Ag     Ag             
                                             
           Ag    PAg    APt    Pd            
                                             
            Pd     Ru     Ag    Pd           
       Ag    PRu    PRu    Pt                
                                             
        Pd     Ag     Pt                     
                                             
                                             
                                             
                                             
                                             

Positions:
   0 Pd     0.000000    1.633958   10.000000    ( 0.0000,  0.0000,  0.0000)
   1 Ag     2.830098    1.633958   10.000000    ( 0.0000,  0.0000,  0.0000)
   2 Pt     5.660196    1.633958   10.000000    ( 0.0000,  0.0000,  0.0000)
   3 Pd     1.415049    4.084895   10.000000    ( 0.0000,  0.0000,  0.0000)
   4 Pd     4.245147    4.084895   10.000000    ( 0.0000,  0.0000,  0.0000)
   5 Pt     7.075245    4.084895   10.000000    ( 0.0000,  0.0000,  0.0000)
   6 Pd     2.830098    6.535832   10.000000    ( 0.0000,  0.0000,  0.0000)
   7 Ag     5.660196    6.535832   10.000000    ( 0.0000,  0.0000,  0.0000)
   8 Pd     8.490294    6.535832   10.000000    ( 0.0000,  0.0000,  0.0000)
   9 Ag     0.000000    0.000000   12.310765    ( 0.0000,  0.0000,  0.0000)
  10 Ru     2.830098    0.000000   12.310765    ( 0.0000,  0.0000,  0.0000)
  11 Ru     5.660196    0.000000   12.310765    ( 0.0000,  0.0000,  0.0000)
  12 Pd     1.415049    2.450937   12.310765    ( 0.0000,  0.0000,  0.0000)
  13 Ru     4.245147    2.450937   12.310765    ( 0.0000,  0.0000,  0.0000)
  14 Ag     7.075245    2.450937   12.310765    ( 0.0000,  0.0000,  0.0000)
  15 Pd     2.830098    4.901874   12.310765    ( 0.0000,  0.0000,  0.0000)
  16 Ag     5.660196    4.901874   12.310765    ( 0.0000,  0.0000,  0.0000)
  17 Pd     8.490294    4.901874   12.310765    ( 0.0000,  0.0000,  0.0000)
  18 Ag     1.432360    0.845241   14.664386    ( 0.0000,  0.0000,  0.0000)
  19 Ag     4.238476    0.833797   14.655698    ( 0.0000,  0.0000,  0.0000)
  20 Pt     7.011557    0.826098   14.658082    ( 0.0000,  0.0000,  0.0000)
  21 Ag     2.864925    3.282102   14.679921    ( 0.0000,  0.0000,  0.0000)
  22 Ag     5.620564    3.272446   14.688365    ( 0.0000,  0.0000,  0.0000)
  23 Ag     8.417042    3.278570   14.682874    ( 0.0000,  0.0000,  0.0000)
  24 Pd     4.229276    5.667151   14.769738    ( 0.0000,  0.0000,  0.0000)
  25 Pd     7.025631    5.722543   14.672498    ( 0.0000,  0.0000,  0.0000)
  26 Ag     9.812881    5.686128   14.683500    ( 0.0000,  0.0000,  0.0000)
  27 Pt     0.051114    1.658502   17.030279    ( 0.0000,  0.0000,  0.0000)
  28 Pd     2.878297    1.670092   17.042759    ( 0.0000,  0.0000,  0.0000)
  29 Pd     5.599061    1.664536   17.051994    ( 0.0000,  0.0000,  0.0000)
  30 Pd     1.461434    4.081397   17.023141    ( 0.0000,  0.0000,  0.0000)
  31 Ru     4.297195    4.072128   17.271876    ( 0.0000,  0.0000,  0.0000)
  32 Pt     6.977899    4.080459   17.059819    ( 0.0000,  0.0000,  0.0000)
  33 Ag     2.789129    6.519822   17.054556    ( 0.0000,  0.0000,  0.0000)
  34 Pt     5.618341    6.449334   17.055259    ( 0.0000,  0.0000,  0.0000)
  35 Ru     8.282547    6.438271   17.140559    ( 0.0000,  0.0000,  0.0000)
  36 Pd     0.125875    0.044794   19.397533    ( 0.0000,  0.0000,  0.0000)
  37 Ru     2.909679   -0.050252   19.167722    ( 0.0000,  0.0000,  0.0000)
  38 Pd     5.609063    0.003060   19.406360    ( 0.0000,  0.0000,  0.0000)
  39 Pt     1.448190    2.460437   19.344144    ( 0.0000,  0.0000,  0.0000)
  40 Pd     4.210692    2.420421   19.430395    ( 0.0000,  0.0000,  0.0000)
  41 Pd     7.086553    2.488903   19.385497    ( 0.0000,  0.0000,  0.0000)
  42 Pt     2.811275    4.840692   19.336839    ( 0.0000,  0.0000,  0.0000)
  43 Pd     5.684935    4.891842   19.500909    ( 0.0000,  0.0000,  0.0000)
  44 Ru     8.419664    4.988522   19.159501    ( 0.0000,  0.0000,  0.0000)

Unit cell:
           periodic     x           y           z      points  spacing
  1. axis:    yes    8.379498    0.000000    0.000000    35     0.2073
  2. axis:    yes    4.189749    7.256858    0.000000    35     0.2073
  3. axis:    no     0.000000    0.000000   29.243062   135     0.2166

  Lengths:   8.379498   8.379498  29.243062
  Angles:   90.000000  90.000000  60.000000

Effective grid spacing dv^(1/3) = 0.2207

                     log10-error:    total        iterations:
           time      wfs    density  energy       fermi  poisson
iter:   1  19:22:20  -2.44   +inf  -184.300384    4             
iter:   2  19:23:34  -1.12  -1.81  -329.911118    36            
iter:   3  19:24:50  -1.64  -1.21  -184.929172    36            
iter:   4  19:26:00  -2.46  -1.87  -179.445340    37            
iter:   5  19:27:11  -2.95  -2.13  -177.775797    3             
iter:   6  19:28:22  -3.93  -2.63  -177.655369    2             
iter:   7  19:29:32  -4.15  -2.86  -177.598541    2             
iter:   8  19:30:43  -4.75  -3.11  -177.588719    2             
iter:   9  19:31:46  -5.13  -3.18  -177.597376    3             
iter:  10  19:32:43  -5.30  -3.05  -177.589572    2             
iter:  11  19:33:39  -4.68  -3.18  -177.580620    3             
iter:  12  19:34:54  -5.31  -3.52  -177.579454    2             
iter:  13  19:36:09  -5.97  -3.64  -177.578961    2             
iter:  14  19:37:24  -6.00  -3.66  -177.579185    2             
iter:  15  19:38:38  -5.92  -3.72  -177.578448    2             
iter:  16  19:39:53  -5.68  -3.68  -177.581595    2             
iter:  17  19:41:07  -6.21  -3.48  -177.578251    2             
iter:  18  19:42:21  -6.88  -4.08  -177.578005    2             
iter:  19  19:43:36  -7.04  -4.07  -177.577939    2             
iter:  20  19:45:03  -7.06  -4.19  -177.578322    2             
iter:  21  19:46:29  -7.15  -4.26  -177.577935    2             
iter:  22  19:47:56  -7.25  -4.52  -177.578005    2             
iter:  23  19:49:22  -7.61  -4.63  -177.577984    2             

Converged after 23 iterations.

Dipole moment: (24.686344, 21.147966, -0.082281) |e|*Ang

Energy contributions relative to reference atoms: (reference = -9071410.444371)

Kinetic:       -169.489629
Potential:      +24.734800
External:        +0.000000
XC:             -27.220340
Entropy (-ST):   -2.022962
Local:           -4.591334
--------------------------
Free energy:   -178.589465
Extrapolated:  -177.577984

Fermi level: 0.85013

Showing only first 2 kpts
 Kpt  Band  Eigenvalues  Occupancy
  0   364      0.83733    0.13299
  0   365      0.86558    0.11536
  0   366      0.88892    0.10105
[...]
  30 Pd     1.450122    4.083557   17.049804    ( 0.0000,  0.0000,  0.0000)
  31 Ru     4.283646    4.068925   17.299134    ( 0.0000,  0.0000,  0.0000)
  32 Pt     6.981454    4.094112   17.093072    ( 0.0000,  0.0000,  0.0000)
  33 Ag     2.791852    6.500453   17.069086    ( 0.0000,  0.0000,  0.0000)
  34 Pt     5.628170    6.452341   17.095328    ( 0.0000,  0.0000,  0.0000)
  35 Ru     8.282523    6.444094   17.170159    ( 0.0000,  0.0000,  0.0000)
  36 Pd     0.110273    0.042280   19.423908    ( 0.0000,  0.0000,  0.0000)
  37 Ru     2.911128   -0.061315   19.193645    ( 0.0000,  0.0000,  0.0000)
  38 Pd     5.609562    0.005994   19.429545    ( 0.0000,  0.0000,  0.0000)
  39 Pt     1.441696    2.460899   19.356846    ( 0.0000,  0.0000,  0.0000)
  40 Pd     4.214823    2.429923   19.458045    ( 0.0000,  0.0000,  0.0000)
  41 Pd     7.087159    2.483402   19.405771    ( 0.0000,  0.0000,  0.0000)
  42 Pt     2.820512    4.835859   19.379412    ( 0.0000,  0.0000,  0.0000)
  43 Pd     5.688383    4.887676   19.519828    ( 0.0000,  0.0000,  0.0000)
  44 Ru     8.425985    4.980812   19.192460    ( 0.0000,  0.0000,  0.0000)

Unit cell:
           periodic     x           y           z      points  spacing
  1. axis:    yes    8.379498    0.000000    0.000000    35     0.2073
  2. axis:    yes    4.189749    7.256858    0.000000    35     0.2073
  3. axis:    no     0.000000    0.000000   29.243062   135     0.2166

  Lengths:   8.379498   8.379498  29.243062
  Angles:   90.000000  90.000000  60.000000

Effective grid spacing dv^(1/3) = 0.2207

                     log10-error:    total        iterations:
           time      wfs    density  energy       fermi  poisson
iter:   1  19:51:26  -1.83   +inf  -201.715403    3             
iter:   2  19:52:52  -0.26  -1.56  -488.210239    39            
iter:   3  19:54:19  -1.16  -1.00  -193.225045    39            
iter:   4  19:55:45  -2.00  -1.71  -180.260429    36            
iter:   5  19:57:12  -2.60  -2.15  -178.506016    3             
iter:   6  19:58:38  -3.53  -2.26  -177.942861    2             
iter:   7  20:00:05  -3.25  -2.59  -177.711436    3             
iter:   8  20:01:31  -4.06  -2.71  -177.685990    2             
iter:   9  20:02:58  -4.17  -2.71  -177.739321    3             
iter:  10  20:04:24  -4.38  -2.58  -177.625945    2             
iter:  11  20:05:51  -4.10  -2.96  -177.632006    3             
iter:  12  20:07:17  -4.47  -2.84  -177.590161    2             
iter:  13  20:08:44  -5.24  -3.24  -177.590891    2             
iter:  14  20:10:10  -5.43  -3.28  -177.588587    2             
iter:  15  20:11:37  -5.70  -3.29  -177.587023    2             
iter:  16  20:13:03  -5.11  -3.36  -177.586517    2             
iter:  17  20:14:30  -5.54  -3.42  -177.584386    2             
iter:  18  20:15:56  -6.06  -3.64  -177.584787    2             
iter:  19  20:17:22  -6.04  -3.72  -177.583986    2             
iter:  20  20:18:28  -6.07  -3.63  -177.585205    2             
iter:  21  20:19:38  -6.17  -3.75  -177.583734    2             
iter:  22  20:20:49  -6.49  -4.12  -177.583977    2             
iter:  23  20:22:02  -6.70  -4.20  -177.583675    2             
iter:  24  20:23:16  -6.99  -4.27  -177.584154    2             
iter:  25  20:24:31  -7.36  -4.27  -177.583887    2             
iter:  26  20:25:44  -7.32  -4.39  -177.583846    2             
iter:  27  20:26:59  -7.58  -4.51  -177.583977    2             

Converged after 27 iterations.

Dipole moment: (24.718867, 21.469021, -0.077843) |e|*Ang

Energy contributions relative to reference atoms: (reference = -9071410.444371)

Kinetic:       -174.064793
Potential:      +28.538328
External:        +0.000000
XC:             -26.442641
Entropy (-ST):   -2.029746
Local:           -4.599998
--------------------------
Free energy:   -178.598850
Extrapolated:  -177.583977

Fermi level: 0.85151

Showing only first 2 kpts
 Kpt  Band  Eigenvalues  Occupancy
  0   364      0.83957    0.13245
  0   365      0.86622    0.11582
  0   366      0.89223    0.09990
  0   367      0.92105    0.08321

  1   364      0.75097    0.18303
  1   365      0.78139    0.16712
  1   366      0.81091    0.15003
  1   367      0.81675    0.14651



Forces in eV/Ang:
  0 Pd    0.10211    0.50695   -0.42479
  1 Ag    0.10357    0.49176   -0.51909
  2 Pt   -0.23430    0.51325    0.82744
  3 Pd    0.10071    0.03122   -0.08265
  4 Pd    0.10795   -0.37264    0.20262
  5 Pt   -0.13269   -0.29209   -0.08906
  6 Pd   -0.17049   -0.39298   -0.05401
  7 Ag   -0.12521   -0.45194   -0.70935
  8 Pd   -0.25156   -0.30518    0.27401
  9 Ag    0.52237    0.21334    0.42343
 10 Ru    2.20005    1.28310    0.38377
 11 Ru   -1.83952    0.87360   -0.37277
 12 Pd    1.11957   -0.24384   -0.01401
 13 Ru   -0.54018   -1.48402   -0.87486
 14 Ag   -0.43538    0.13332    0.27245
 15 Pd    0.18755   -0.57960    0.06930
 16 Ag   -0.18993   -0.38078    0.31826
 17 Pd   -0.36923    0.53597   -0.04439
 18 Ag   -0.03664   -0.03115    0.03089
 19 Ag   -0.00066    0.04795    0.04985
 20 Pt   -0.03921   -0.07120   -0.00233
 21 Ag    0.01740   -0.02868    0.03269
 22 Ag   -0.00634   -0.03576    0.02635
 23 Ag   -0.02135   -0.02625    0.04161
 24 Pd    0.03586    0.06582    0.07054
 25 Pd    0.00196    0.04742    0.06159
 26 Ag    0.04564    0.02903    0.04330
 27 Pt   -0.00560    0.00510   -0.05017
 28 Pd    0.03897    0.03822   -0.01720
 29 Pd   -0.01910   -0.05839   -0.03646
 30 Pd    0.04272    0.00049   -0.01902
 31 Ru    0.07166    0.01919   -0.07253
 32 Pt   -0.06394   -0.09839   -0.06153
 33 Ag    0.01112    0.06338   -0.03377
 34 Pt   -0.19836   -0.02540   -0.16341
 35 Ru    0.11145    0.00086    0.09924
 36 Pd    0.01678   -0.03743    0.03731
 37 Ru    0.02945    0.05072    0.19534
 38 Pd   -0.01294   -0.03014   -0.01605
 39 Pt    0.00859   -0.02386    0.12141
 40 Pd   -0.04796   -0.04140   -0.00009
 41 Pd   -0.05552    0.00648    0.05949
 42 Pt   -0.07989    0.00661   -0.02569
 43 Pd   -0.03752   -0.00392   -0.00399
 44 Ru    0.01673    0.06518    0.08143

System changes: positions 

Initializing position-dependent things.

Density initialized from wave functions
                                             
                                             
                                             
                                             
                                             
                 Pt      Pd    Ru            
                                             
            Pt    APd    PPd    Ru           
        Pd           Pd                      
              Ru           Pt                
        Pt     Pd    PPd    Pd     Ag        
                                             
                Ag     Ag     Ag             
                                             
           Ag    PAg    APt    Pd            
                                             
            Pd     Ru     Ag     Pd          
       Ag    PRu    PRu    Pt                
                                             
        Pd     Ag     Pt                     
                                             
                                             
                                             
                                             
                                             

Positions:
   0 Pd     0.000000    1.633958   10.000000    ( 0.0000,  0.0000,  0.0000)
   1 Ag     2.830098    1.633958   10.000000    ( 0.0000,  0.0000,  0.0000)
   2 Pt     5.660196    1.633958   10.000000    ( 0.0000,  0.0000,  0.0000)
   3 Pd     1.415049    4.084895   10.000000    ( 0.0000,  0.0000,  0.0000)
   4 Pd     4.245147    4.084895   10.000000    ( 0.0000,  0.0000,  0.0000)
   5 Pt     7.075245    4.084895   10.000000    ( 0.0000,  0.0000,  0.0000)
   6 Pd     2.830098    6.535832   10.000000    ( 0.0000,  0.0000,  0.0000)
   7 Ag     5.660196    6.535832   10.000000    ( 0.0000,  0.0000,  0.0000)
   8 Pd     8.490294    6.535832   10.000000    ( 0.0000,  0.0000,  0.0000)
   9 Ag     0.000000    0.000000   12.310765    ( 0.0000,  0.0000,  0.0000)
  10 Ru     2.830098    0.000000   12.310765    ( 0.0000,  0.0000,  0.0000)
  11 Ru     5.660196    0.000000   12.310765    ( 0.0000,  0.0000,  0.0000)
  12 Pd     1.415049    2.450937   12.310765    ( 0.0000,  0.0000,  0.0000)
  13 Ru     4.245147    2.450937   12.310765    ( 0.0000,  0.0000,  0.0000)
  14 Ag     7.075245    2.450937   12.310765    ( 0.0000,  0.0000,  0.0000)
  15 Pd     2.830098    4.901874   12.310765    ( 0.0000,  0.0000,  0.0000)
  16 Ag     5.660196    4.901874   12.310765    ( 0.0000,  0.0000,  0.0000)
  17 Pd     8.490294    4.901874   12.310765    ( 0.0000,  0.0000,  0.0000)
  18 Ag     1.422839    0.836358   14.687202    ( 0.0000,  0.0000,  0.0000)
  19 Ag     4.228290    0.834029   14.668537    ( 0.0000,  0.0000,  0.0000)
  20 Pt     7.000876    0.833422   14.677349    ( 0.0000,  0.0000,  0.0000)
  21 Ag     2.849410    3.275055   14.697646    ( 0.0000,  0.0000,  0.0000)
  22 Ag     5.607020    3.276035   14.715763    ( 0.0000,  0.0000,  0.0000)
  23 Ag     8.407636    3.278571   14.701685    ( 0.0000,  0.0000,  0.0000)
  24 Pd     4.226650    5.664441   14.783889    ( 0.0000,  0.0000,  0.0000)
  25 Pd     7.021524    5.717496   14.695770    ( 0.0000,  0.0000,  0.0000)
  26 Ag     9.810161    5.688371   14.690489    ( 0.0000,  0.0000,  0.0000)
  27 Pt     0.030364    1.654579   17.054310    ( 0.0000,  0.0000,  0.0000)
  28 Pd     2.863636    1.668211   17.080253    ( 0.0000,  0.0000,  0.0000)
  29 Pd     5.584811    1.668389   17.077768    ( 0.0000,  0.0000,  0.0000)
  30 Pd     1.451673    4.084780   17.054426    ( 0.0000,  0.0000,  0.0000)
  31 Ru     4.287216    4.070209   17.299465    ( 0.0000,  0.0000,  0.0000)
  32 Pt     6.976254    4.091014   17.095978    ( 0.0000,  0.0000,  0.0000)
  33 Ag     2.791829    6.501265   17.070936    ( 0.0000,  0.0000,  0.0000)
  34 Pt     5.617052    6.449501   17.092744    ( 0.0000,  0.0000,  0.0000)
  35 Ru     8.289070    6.444709   17.186717    ( 0.0000,  0.0000,  0.0000)
  36 Pd     0.109969    0.038419   19.432145    ( 0.0000,  0.0000,  0.0000)
  37 Ru     2.913932   -0.060119   19.211827    ( 0.0000,  0.0000,  0.0000)
  38 Pd     5.607656    0.003198   19.432032    ( 0.0000,  0.0000,  0.0000)
  39 Pt     1.441354    2.458850   19.369405    ( 0.0000,  0.0000,  0.0000)
  40 Pd     4.211433    2.427374   19.463642    ( 0.0000,  0.0000,  0.0000)
  41 Pd     7.082631    2.483306   19.414916    ( 0.0000,  0.0000,  0.0000)
  42 Pt     2.814800    4.836018   19.384744    ( 0.0000,  0.0000,  0.0000)
  43 Pd     5.686541    4.887569   19.522731    ( 0.0000,  0.0000,  0.0000)
  44 Ru     8.428363    4.985817   19.203811    ( 0.0000,  0.0000,  0.0000)

Unit cell:
           periodic     x           y           z      points  spacing
  1. axis:    yes    8.379498    0.000000    0.000000    35     0.2073
  2. axis:    yes    4.189749    7.256858    0.000000    35     0.2073
  3. axis:    no     0.000000    0.000000   29.243062   135     0.2166

  Lengths:   8.379498   8.379498  29.243062
  Angles:   90.000000  90.000000  60.000000

Effective grid spacing dv^(1/3) = 0.2207

                     log10-error:    total        iterations:
           time      wfs    density  energy       fermi  poisson
iter:   1  20:28:42  -2.93   +inf  -178.494832    4             
iter:   2  20:29:52  -2.09  -2.23  -208.666324    37            
iter:   3  20:31:02  -2.41  -1.54  -178.167687    36            
iter:   4  20:32:13  -3.42  -2.40  -177.706033    3             
iter:   5  20:33:23  -4.14  -2.72  -177.608295    2             
iter:   6  20:34:35  -4.67  -3.16  -177.614313    2             
iter:   7  20:35:34  -5.36  -3.04  -177.603387    2             
iter:   8  20:36:31  -5.11  -3.34  -177.599587    2             
iter:   9  20:37:27  -5.45  -3.27  -177.596912    2             
iter:  10  20:38:23  -5.50  -3.64  -177.595630    2             
iter:  11  20:39:19  -6.10  -3.61  -177.595677    2             
iter:  12  20:40:15  -6.21  -3.76  -177.594974    2             
iter:  13  20:41:11  -6.29  -3.80  -177.595705    2             
iter:  14  20:42:17  -6.45  -4.02  -177.595278    2             
iter:  15  20:43:31  -6.60  -3.78  -177.595104    2             
iter:  16  20:44:46  -7.16  -4.23  -177.595067    2             
iter:  17  20:46:00  -7.38  -4.26  -177.595202    2             
iter:  18  20:47:14  -7.22  -4.36  -177.594929    2             
iter:  19  20:48:29  -7.30  -4.30  -177.595355    2             
iter:  20  20:49:44  -7.77  -4.32  -177.595279    2             

Converged after 20 iterations.

Dipole moment: (24.880741, 21.654377, -0.083232) |e|*Ang

Energy contributions relative to reference atoms: (reference = -9071410.444371)

Kinetic:       -176.361766
Potential:      +30.456399
External:        +0.000000
XC:             -26.073705
Entropy (-ST):   -2.029996
Local:           -4.601209
--------------------------
Free energy:   -178.610277
Extrapolated:  -177.595279

Fermi level: 0.84782

Showing only first 2 kpts
 Kpt  Band  Eigenvalues  Occupancy
  0   364      0.83731    0.13156
  0   365      0.86348    0.11523
  0   366      0.88724    0.10068
  0   367      0.91718    0.08331

  1   364      0.74730    0.18302
  1   365      0.77779    0.16707
  1   366      0.80633    0.15057
  1   367      0.81532    0.14514



Forces in eV/Ang:
  0 Pd    0.09831    0.50719   -0.42171
  1 Ag    0.10474    0.49244   -0.51619
  2 Pt   -0.23206    0.51175    0.83213
  3 Pd    0.10031    0.03360   -0.08173
  4 Pd    0.10793   -0.37248    0.20498
  5 Pt   -0.13245   -0.29302   -0.08569
  6 Pd   -0.17281   -0.39193   -0.05013
  7 Ag   -0.12553   -0.45317   -0.70650
  8 Pd   -0.24949   -0.30604    0.27605
  9 Ag    0.52113    0.21399    0.43284
 10 Ru    2.20466    1.28584    0.41050
 11 Ru   -1.85058    0.87175   -0.35748
 12 Pd    1.11702   -0.24680    0.00982
 13 Ru   -0.53836   -1.48391   -0.85962
 14 Ag   -0.43711    0.13421    0.29021
 15 Pd    0.19028   -0.58180    0.09017
 16 Ag   -0.18659   -0.38273    0.34716
 17 Pd   -0.36979    0.54031   -0.01326
 18 Ag   -0.01359    0.00060   -0.00022
 19 Ag   -0.02215   -0.00783    0.02336
 20 Pt   -0.00872   -0.03167   -0.02733
 21 Ag    0.00092    0.00868    0.01136
 22 Ag    0.01652   -0.00407   -0.01610
 23 Ag   -0.00967    0.00470    0.01564
 24 Pd    0.01299    0.00919    0.00976
 25 Pd    0.03981    0.02878    0.04416
 26 Ag   -0.01012   -0.01281    0.02810
 27 Pt    0.01600    0.01845    0.02208
 28 Pd   -0.00855   -0.01228    0.01433
 29 Pd    0.01184   -0.04713   -0.01084
 30 Pd    0.00487   -0.02335    0.00303
 31 Ru    0.01430   -0.00084   -0.01756
 32 Pt    0.01536   -0.04004   -0.01432
 33 Ag   -0.00104    0.06062   -0.00409
 34 Pt    0.00002    0.03099   -0.03768
 35 Ru   -0.03634   -0.00380    0.03717
 36 Pd    0.01389   -0.00656    0.01904
 37 Ru   -0.04932    0.03010    0.05822
 38 Pd    0.03468    0.02082    0.02917
 39 Pt   -0.02749   -0.03113    0.06859
 40 Pd   -0.03278   -0.01660   -0.00162
 41 Pd   -0.02676   -0.00502    0.03220
 42 Pt   -0.03602   -0.01022   -0.03181
 43 Pd   -0.03232   -0.00351   -0.00551
 44 Ru   -0.03335   -0.02429    0.05568

Timing:                                      incl.     excl.
-------------------------------------------------------------------
Density initialized from wave functions:    34.140    34.140   0.2% |
 Symmetrize density:                         0.000     0.000   0.0% |
Forces:                                    171.571   171.571   0.8% |
Hamiltonian:                                28.571     0.077   0.0% |
 Atomic:                                     5.614     2.301   0.0% |
  XC Correction:                             3.313     3.313   0.0% |
 Calculate atomic Hamiltonians:              7.311     7.311   0.0% |
 Communicate:                                6.251     6.251   0.0% |
 Initialize Hamiltonian:                     0.000     0.000   0.0% |
 Poisson:                                    0.049     0.049   0.0% |
 XC 3D grid:                                 9.269     9.269   0.0% |
LCAO initialization:                        51.116     2.534   0.0% |
 LCAO eigensolver:                           6.405     0.002   0.0% |
  Calculate projections:                     0.053     0.053   0.0% |
  DenseAtomicCorrection:                     0.051     0.051   0.0% |
  Distribute overlap matrix:                 0.121     0.121   0.0% |
  Orbital Layouts:                           0.435     0.435   0.0% |
  Potential matrix:                          5.701     5.701   0.0% |
  Sum over cells:                            0.041     0.041   0.0% |
 LCAO to grid:                              39.831    39.831   0.2% |
 Set positions (LCAO WFS):                   2.347     0.945   0.0% |
  Basic WFS set positions:                   0.002     0.002   0.0% |
  Basis functions set positions:             0.001     0.001   0.0% |
  P tci:                                     0.535     0.535   0.0% |
  ST tci:                                    0.649     0.649   0.0% |
  mktci:                                     0.215     0.215   0.0% |
PWDescriptor:                                0.051     0.051   0.0% |
Redistribute:                                0.058     0.058   0.0% |
SCF-cycle:                               20016.999  2486.166  12.2% |----|
 Davidson:                               15981.034  3693.811  18.1% |------|
  Apply H:                                2412.053  2336.653  11.5% |----|
   HMM T:                                   75.399    75.399   0.4% |
  Subspace diag:                          2293.229     0.084   0.0% |
   calc_h_matrix:                         1308.252   499.746   2.5% ||
    Apply H:                               808.507   783.237   3.8% |-|
     HMM T:                                 25.270    25.270   0.1% |
   diagonalize:                             37.747    37.747   0.2% |
   rotate_psi:                             947.145   947.145   4.6% |-|
  calc. matrices:                         4989.401  3384.172  16.6% |------|
   Apply H:                               1605.229  1555.112   7.6% |--|
    HMM T:                                  50.118    50.118   0.2% |
  diagonalize:                             696.375   696.375   3.4% ||
  rotate_psi:                             1896.165  1896.165   9.3% |---|
 Density:                                  795.966     0.012   0.0% |
  Atomic density matrices:                   5.612     5.612   0.0% |
  Mix:                                     233.186   233.186   1.1% |
  Multipole moments:                         0.349     0.349   0.0% |
  Pseudo density:                          556.806   556.793   2.7% ||
   Symmetrize density:                       0.013     0.013   0.0% |
 Hamiltonian:                              692.107     2.004   0.0% |
  Atomic:                                  150.973    65.565   0.3% |
   XC Correction:                           85.408    85.408   0.4% |
  Calculate atomic Hamiltonians:           185.691   185.691   0.9% |
  Communicate:                             110.939   110.939   0.5% |
  Poisson:                                   1.248     1.248   0.0% |
  XC 3D grid:                              241.252   241.252   1.2% |
 Orthonormalize:                            61.725     0.004   0.0% |
  calc_s_matrix:                             9.438     9.438   0.0% |
  inverse-cholesky:                          0.711     0.711   0.0% |
  projections:                              33.207    33.207   0.2% |
  rotate_psi_s:                             18.366    18.366   0.1% |
Set symmetry:                                0.002     0.002   0.0% |
Other:                                      81.961    81.961   0.4% |
-------------------------------------------------------------------
Total:                                             20384.468 100.0%

Date: Wed Mar  2 20:50:02 2022
