
  ___ ___ ___ _ _ _  
 |   |   |_  | | | | 
 | | | | | . | | | | 
 |__ |  _|___|_____|  1.5.1
 |___|_|             

User:   clausen@node038.cluster
Date:   Fri Mar  4 00:48:51 2022
Arch:   x86_64
Pid:    6987
Python: 3.6.12
gpaw:   /software/kemi/gpaw/1.5.1/gpaw
_gpaw:  /software/kemi/gpaw/1.5.1/bin/gpaw-python
ase:    /software/kemi/ase/3.17.0/ase (version 3.17.0)
numpy:  /opt/rh/rh-python36/root/usr/lib64/python3.6/site-packages/numpy (version 1.13.1)
scipy:  /opt/rh/rh-python36/root/usr/lib64/python3.6/site-packages/scipy (version 0.19.1)
units:  Angstrom and eV
cores:  16

Input parameters:
  kpts: [4 4 1]
  mode: {ecut: 400.0,
         gammacentered: False,
         name: pw}
  xc: RPBE

System changes: positions, numbers, cell, pbc, initial_charges, initial_magmoms 

Initialize ...

Pd-setup:
  name: Palladium
  id: 6da19bfba079f22767af9506641940b9
  Z: 46
  valence: 16
  core: 30
  charge: 0.0
  file: /software/kemi/gpaw-setups/0.9.20000/Pd.RPBE.gz
  cutoffs: 1.19(comp), 2.38(filt), 2.28(core), lmax=2
  valence states:
                energy  radius
    5s(0.00)    -3.225   1.228
    4p(6.00)   -51.131   1.360
    5p(0.00)    -0.373   1.360
    4d(10.00)    -3.964   1.228
    *s          23.987   1.228
    *d          23.247   1.228

  Using partial waves for Pd as LCAO basis

Ag-setup:
  name: Silver
  id: c05e55bab2c3858b3f9398f6d75cb77c
  Z: 47
  valence: 17
  core: 30
  charge: 0.0
  file: /software/kemi/gpaw-setups/0.9.20000/Ag.RPBE.gz
  cutoffs: 1.25(comp), 2.35(filt), 2.19(core), lmax=2
  valence states:
                energy  radius
    5s(1.00)    -4.277   1.286
    4p(6.00)   -58.523   1.328
    5p(0.00)    -0.755   1.328
    4d(10.00)    -7.386   1.180
    *s          22.934   1.286
    *d          19.826   1.180

  Using partial waves for Ag as LCAO basis

Pt-setup:
  name: Platinum
  id: f04f522592575c47ad794f6b4a415b4b
  Z: 78
  valence: 16
  core: 62
  charge: 0.0
  file: /software/kemi/gpaw-setups/0.9.20000/Pt.RPBE.gz
  cutoffs: 1.29(comp), 2.26(filt), 2.26(core), lmax=2
  valence states:
                energy  radius
    6s(1.00)    -5.516   1.307
    5p(6.00)   -55.971   1.371
    6p(0.00)    -0.856   1.371
    5d(9.00)    -6.087   1.307
    *s          21.695   1.307
    *d          21.125   1.307

  Using partial waves for Pt as LCAO basis

Ru-setup:
  name: Ruthenium
  id: 76477906e28f51dc1b29884d53556fe9
  Z: 44
  valence: 16
  core: 28
  charge: 0.0
  file: /software/kemi/gpaw-setups/0.9.20000/Ru.RPBE.gz
  cutoffs: 1.23(comp), 2.16(filt), 1.30(core), lmax=2
  valence states:
                energy  radius
    4s(2.00)   -76.255   1.281
    5s(1.00)    -4.126   1.281
    4p(6.00)   -46.371   1.286
    5p(0.00)    -0.913   1.286
    4d(7.00)    -5.146   1.254
    *d          22.066   1.254

  Using partial waves for Ru as LCAO basis

O-setup:
  name: Oxygen
  id: 08071ca1eed670e7821b24b7eb4d558c
  Z: 8
  valence: 6
  core: 2
  charge: 0.0
  file: /software/kemi/gpaw-setups/0.9.20000/O.RPBE.gz
  cutoffs: 0.67(comp), 1.17(filt), 0.83(core), lmax=2
  valence states:
                energy  radius
    2s(2.00)   -24.041   0.688
    2p(4.00)    -8.984   0.598
    *s           3.170   0.688
    *p          18.228   0.598
    *d           0.000   0.619

  Using partial waves for O as LCAO basis

H-setup:
  name: Hydrogen
  id: ea3f9156a1dc40d47a60fdce8f8bd75d
  Z: 1
  valence: 1
  core: 0
  charge: 0.0
  file: /software/kemi/gpaw-setups/0.9.20000/H.RPBE.gz
  cutoffs: 0.48(comp), 0.85(filt), 0.53(core), lmax=2
  valence states:
                energy  radius
    1s(1.00)    -6.572   0.476
    *s          20.639   0.476
    *p           0.000   0.476

  Using partial waves for H as LCAO basis

Reference energy: -9073466.092496

Spin-paired calculation

Occupation numbers:
  Fermi-Dirac: width=0.1000 eV

Convergence criteria:
  Maximum total energy change: 0.0005 eV / electron
  Maximum integral of absolute density change: 0.0001 electrons
  Maximum integral of absolute eigenstate change: 4e-08 eV^2
  Maximum number of iterations: 333

Symmetries present (total): 1

  ( 1  0  0)
  ( 0  1  0)
  ( 0  0  1)

16 k-points: 4 x 4 x 1 Monkhorst-Pack grid
8 k-points in the irreducible part of the Brillouin zone
       k-points in crystal coordinates                weights
   0:     0.12500000   -0.37500000    0.00000000          2/16
   1:     0.12500000   -0.12500000    0.00000000          2/16
   2:     0.12500000    0.12500000    0.00000000          2/16
   3:     0.12500000    0.37500000    0.00000000          2/16
   4:     0.37500000   -0.37500000    0.00000000          2/16
   5:     0.37500000   -0.12500000    0.00000000          2/16
   6:     0.37500000    0.12500000    0.00000000          2/16
   7:     0.37500000    0.37500000    0.00000000          2/16

Wave functions: Plane wave expansion
  Cutoff energy: 400.000 eV
  Number of coefficients (min, max): 32266, 32339
  Pulay-stress correction: 0.000000 eV/Ang^3 (de/decut=0.000000)
  Using FFTW library
  ScaLapack parameters: grid=1x1, blocksize=None
  Wavefunction extrapolation:
    Improved wavefunction reuse through dual PAW basis 

Eigensolver
   Davidson(niter=2, smin=None, normalize=True) 

Densities:
  Coarse grid: 35*35*135 grid
  Fine grid: 70*70*270 grid
  Total Charge: 0.000000 

Density mixing:
  Method: separate
  Backend: pulay
  Linear mixing parameter: 0.05
  Mixing with 5 old densities
  Damping of long wave oscillations: 50 

Hamiltonian:
  XC and Coulomb potentials evaluated on a 70*70*270 grid
  Using the RPBE Exchange-Correlation functional
 

XC parameters: RPBE with 2 nearest neighbor stencil

Memory estimate:
  Process memory now: 152.04 MiB
  Calculator: 552.99 MiB
    Density: 51.61 MiB
      Arrays: 16.41 MiB
      Localized functions: 28.84 MiB
      Mixer: 6.36 MiB
    Hamiltonian: 11.64 MiB
      Arrays: 10.73 MiB
      XC: 0.00 MiB
      Poisson: 0.00 MiB
      vbar: 0.91 MiB
    Wavefunctions: 489.75 MiB
      Arrays psit_nG: 221.07 MiB
      Eigensolver: 254.17 MiB
      Projections: 2.83 MiB
      Projectors: 5.06 MiB
      PW-descriptor: 6.62 MiB

Total number of cores used: 16
Parallelization over k-points: 8
Domain decomposition: 1 x 1 x 2

Number of atoms: 47
Number of atomic orbitals: 552
Number of bands in calculation: 448
Bands to converge: occupied states only
Number of valence electrons: 739

... initialized

Initializing position-dependent things.

Density initialized from atomic densities
Creating initial wave functions:
  448 bands from LCAO basis set

                                             
                                             
                                             
                                             
                           H                 
                         O                   
                                             
                                             
                 Pt      Pd    Ru            
                                             
            Pt    APd    PPd    Ru           
        Pd           Pd                      
              Ru           Pt                
        Pt     Pd    PPd    Pd     Ag        
                                             
                Ag     Ag     Ag             
                                             
           Ag    PAg    APt    Pd            
                                             
            Pd     Ru     Ag     Pd          
       Ag    PRu    PRu    Pt                
                                             
        Pd     Ag     Pt                     
                                             
                                             
                                             
                                             
                                             

Positions:
   0 Pd     0.000000    1.633958   10.000000    ( 0.0000,  0.0000,  0.0000)
   1 Ag     2.830098    1.633958   10.000000    ( 0.0000,  0.0000,  0.0000)
   2 Pt     5.660196    1.633958   10.000000    ( 0.0000,  0.0000,  0.0000)
   3 Pd     1.415049    4.084895   10.000000    ( 0.0000,  0.0000,  0.0000)
   4 Pd     4.245147    4.084895   10.000000    ( 0.0000,  0.0000,  0.0000)
   5 Pt     7.075245    4.084895   10.000000    ( 0.0000,  0.0000,  0.0000)
   6 Pd     2.830098    6.535832   10.000000    ( 0.0000,  0.0000,  0.0000)
   7 Ag     5.660196    6.535832   10.000000    ( 0.0000,  0.0000,  0.0000)
   8 Pd     8.490294    6.535832   10.000000    ( 0.0000,  0.0000,  0.0000)
   9 Ag     0.000000    0.000000   12.310765    ( 0.0000,  0.0000,  0.0000)
  10 Ru     2.830098    0.000000   12.310765    ( 0.0000,  0.0000,  0.0000)
  11 Ru     5.660196    0.000000   12.310765    ( 0.0000,  0.0000,  0.0000)
  12 Pd     1.415049    2.450937   12.310765    ( 0.0000,  0.0000,  0.0000)
  13 Ru     4.245147    2.450937   12.310765    ( 0.0000,  0.0000,  0.0000)
  14 Ag     7.075245    2.450937   12.310765    ( 0.0000,  0.0000,  0.0000)
  15 Pd     2.830098    4.901874   12.310765    ( 0.0000,  0.0000,  0.0000)
  16 Ag     5.660196    4.901874   12.310765    ( 0.0000,  0.0000,  0.0000)
  17 Pd     8.490294    4.901874   12.310765    ( 0.0000,  0.0000,  0.0000)
  18 Ag     1.422839    0.836358   14.687202    ( 0.0000,  0.0000,  0.0000)
  19 Ag     4.228290    0.834029   14.668537    ( 0.0000,  0.0000,  0.0000)
  20 Pt     7.000876    0.833422   14.677349    ( 0.0000,  0.0000,  0.0000)
  21 Ag     2.849410    3.275055   14.697646    ( 0.0000,  0.0000,  0.0000)
  22 Ag     5.607020    3.276035   14.715763    ( 0.0000,  0.0000,  0.0000)
  23 Ag     8.407636    3.278571   14.701685    ( 0.0000,  0.0000,  0.0000)
  24 Pd     4.226650    5.664441   14.783889    ( 0.0000,  0.0000,  0.0000)
  25 Pd     7.021524    5.717496   14.695770    ( 0.0000,  0.0000,  0.0000)
  26 Ag     9.810161    5.688371   14.690489    ( 0.0000,  0.0000,  0.0000)
  27 Pt     0.030364    1.654579   17.054310    ( 0.0000,  0.0000,  0.0000)
  28 Pd     2.863636    1.668211   17.080253    ( 0.0000,  0.0000,  0.0000)
  29 Pd     5.584811    1.668389   17.077768    ( 0.0000,  0.0000,  0.0000)
  30 Pd     1.451673    4.084780   17.054426    ( 0.0000,  0.0000,  0.0000)
  31 Ru     4.287216    4.070209   17.299465    ( 0.0000,  0.0000,  0.0000)
  32 Pt     6.976254    4.091014   17.095978    ( 0.0000,  0.0000,  0.0000)
  33 Ag     2.791829    6.501265   17.070936    ( 0.0000,  0.0000,  0.0000)
  34 Pt     5.617052    6.449501   17.092744    ( 0.0000,  0.0000,  0.0000)
  35 Ru     8.289070    6.444709   17.186717    ( 0.0000,  0.0000,  0.0000)
  36 Pd     0.109969    0.038419   19.432145    ( 0.0000,  0.0000,  0.0000)
  37 Ru     2.913932   -0.060119   19.211827    ( 0.0000,  0.0000,  0.0000)
  38 Pd     5.607656    0.003198   19.432032    ( 0.0000,  0.0000,  0.0000)
  39 Pt     1.441354    2.458850   19.369405    ( 0.0000,  0.0000,  0.0000)
  40 Pd     4.211433    2.427374   19.463642    ( 0.0000,  0.0000,  0.0000)
  41 Pd     7.082631    2.483306   19.414916    ( 0.0000,  0.0000,  0.0000)
  42 Pt     2.814800    4.836018   19.384744    ( 0.0000,  0.0000,  0.0000)
  43 Pd     5.686541    4.887569   19.522731    ( 0.0000,  0.0000,  0.0000)
  44 Ru     8.428363    4.985817   19.203811    ( 0.0000,  0.0000,  0.0000)
  45 O      5.686541    4.887569   21.522731    ( 0.0000,  0.0000,  0.0000)
  46 H      6.336541    5.537569   21.922731    ( 0.0000,  0.0000,  0.0000)

Unit cell:
           periodic     x           y           z      points  spacing
  1. axis:    yes    8.379498    0.000000    0.000000    35     0.2073
  2. axis:    yes    4.189749    7.256858    0.000000    35     0.2073
  3. axis:    no     0.000000    0.000000   29.243062   135     0.2166

  Lengths:   8.379498   8.379498  29.243062
  Angles:   90.000000  90.000000  60.000000

Effective grid spacing dv^(1/3) = 0.2207

                     log10-error:    total        iterations:
           time      wfs    density  energy       fermi  poisson
iter:   1  00:50:39  +0.50   +inf  -242.900290    3             
iter:   2  00:51:32  -1.06  -1.20  -213.509218    3             
iter:   3  00:52:23  -1.43  -1.32  -216.970939    36            
iter:   4  00:53:13  -1.34  -1.32  -273.823807    36            
iter:   5  00:54:04  -1.56  -1.20  -196.354490    36            
iter:   6  00:54:55  -1.73  -1.50  -189.221880    36            
iter:   7  00:55:45  -1.98  -1.67  -188.606809    37            
iter:   8  00:56:34  -3.08  -1.74  -187.596242    3             
iter:   9  00:57:25  -2.29  -1.77  -195.527133    4             
iter:  10  00:58:16  -2.39  -1.63  -188.080055    4             
iter:  11  00:59:05  -2.60  -1.84  -186.124962    3             
iter:  12  00:59:55  -3.09  -2.05  -185.934443    3             
iter:  13  01:00:46  -3.01  -2.11  -186.375429    3             
iter:  14  01:01:36  -3.34  -2.11  -186.086317    3             
iter:  15  01:02:25  -3.72  -2.18  -185.723948    3             
iter:  16  01:03:14  -3.83  -2.32  -185.740039    3             
iter:  17  01:04:03  -3.96  -2.34  -185.574223    3             
iter:  18  01:04:52  -3.45  -2.46  -185.786198    3             
iter:  19  01:05:41  -3.94  -2.35  -185.471848    3             
iter:  20  01:06:30  -4.09  -2.64  -185.451323    3             
iter:  21  01:07:19  -4.02  -2.70  -185.404816    3             
iter:  22  01:08:08  -3.92  -2.84  -185.385675    2             
iter:  23  01:08:57  -4.57  -3.07  -185.387334    3             
iter:  24  01:09:46  -4.55  -3.16  -185.436959    2             
iter:  25  01:10:35  -5.04  -2.78  -185.381631    2             
iter:  26  01:11:24  -5.45  -3.29  -185.384547    2             
iter:  27  01:12:13  -5.63  -3.30  -185.382046    2             
iter:  28  01:13:01  -5.67  -3.35  -185.381931    2             
iter:  29  01:13:50  -5.77  -3.41  -185.382873    2             
iter:  30  01:14:39  -5.24  -3.56  -185.381484    2             
iter:  31  01:15:27  -5.94  -3.73  -185.379876    2             
iter:  32  01:16:16  -6.35  -3.85  -185.380860    2             
iter:  33  01:17:05  -6.85  -4.01  -185.380789    2             
iter:  34  01:17:54  -6.89  -3.86  -185.380524    2             
iter:  35  01:18:43  -6.74  -4.09  -185.380984    2             
iter:  36  01:19:34  -7.47  -4.07  -185.380666    2             

Converged after 36 iterations.

Dipole moment: (25.058075, 21.752529, -0.261284) |e|*Ang

Energy contributions relative to reference atoms: (reference = -9073466.092496)

Kinetic:       -172.211036
Potential:      +26.209025
External:        +0.000000
XC:             -33.990418
Entropy (-ST):   -2.037669
Local:           -4.369402
--------------------------
Free energy:   -186.399501
Extrapolated:  -185.380666

Fermi level: 0.81523

Showing only first 2 kpts
 Kpt  Band  Eigenvalues  Occupancy
  0   367      0.79113    0.13999
  0   368      0.82488    0.11898
  0   369      0.84561    0.10616
  0   370      0.87023    0.09146

  1   367      0.71027    0.18517
  1   368      0.74055    0.16962
  1   369      0.76093    0.15813
  1   370      0.77614    0.14913



Forces in eV/Ang:
  0 Pd    0.10546    0.51094   -0.41035
  1 Ag    0.10766    0.49269   -0.51334
  2 Pt   -0.23604    0.50929    0.84529
  3 Pd    0.10357    0.03664   -0.06892
  4 Pd    0.10301   -0.37134    0.20247
  5 Pt   -0.12635   -0.29151   -0.06911
  6 Pd   -0.17531   -0.39996   -0.05376
  7 Ag   -0.12601   -0.45492   -0.71383
  8 Pd   -0.24766   -0.30566    0.28050
  9 Ag    0.52070    0.21209    0.42376
 10 Ru    2.21039    1.28240    0.39063
 11 Ru   -1.84341    0.86526   -0.36642
 12 Pd    1.11713   -0.24204   -0.02188
 13 Ru   -0.53117   -1.48411   -0.87554
 14 Ag   -0.43968    0.13871    0.28310
 15 Pd    0.18589   -0.57626    0.08155
 16 Ag   -0.18518   -0.38353    0.34006
 17 Pd   -0.36565    0.53683   -0.02557
 18 Ag   -0.00929    0.01620   -0.00217
 19 Ag   -0.02495   -0.00781    0.02783
 20 Pt   -0.00466   -0.03004   -0.03333
 21 Ag   -0.02060   -0.00783   -0.00074
 22 Ag    0.00608    0.00169    0.01566
 23 Ag    0.01377   -0.00272    0.01821
 24 Pd    0.02402    0.00106    0.05823
 25 Pd    0.01346    0.01768    0.03690
 26 Ag   -0.01636   -0.01316    0.03049
 27 Pt    0.01915    0.00546    0.05608
 28 Pd   -0.00920   -0.02259    0.04884
 29 Pd    0.00048   -0.04396   -0.01215
 30 Pd    0.00941   -0.00966    0.04104
 31 Ru   -0.04584   -0.03836   -0.23397
 32 Pt   -0.02644   -0.08288    0.04235
 33 Ag   -0.00602    0.06161    0.00530
 34 Pt   -0.05529    0.06182   -0.02821
 35 Ru    0.00165    0.00573    0.05005
 36 Pd   -0.04751    0.06257   -0.00903
 37 Ru   -0.03543    0.22531   -0.00868
 38 Pd    0.02405    0.02110   -0.00727
 39 Pt   -0.00835   -0.03764    0.04201
 40 Pd   -0.07200   -0.10340   -0.07615
 41 Pd    0.01912   -0.09306   -0.00349
 42 Pt   -0.18884   -0.00186   -0.17285
 43 Pd    0.14216    0.12199    0.05410
 44 Ru    0.12861   -0.10076    0.03311
 45 O     0.43368    0.35679    0.52719
 46 H    -0.38791   -0.37492   -0.40836

System changes: positions 

Initializing position-dependent things.

Density initialized from wave functions
                                            
                                            
                                            
                                            
                          H                 
                        O                   
                                            
                                            
                 Pt     Pd     Ru           
            Pt     Pd     Pd                
       Pd         Ag Pd  Pt    Ru           
             PRu    Ru     Pt               
        Pt     Pd     Pd                    
                     Pd     Pd    Ag        
                                            
                Ag     Ag     Ag            
           Ag     Ag     Pt                 
                 Pd     Ag     Pd           
            Pd     Ru     Ag                
       Ag     Ru  Pd Ru  Ag     Pd          
             Pd     Pd     Pt               
        Pd     Ag     Pt                    
                                            
                                            
                                            
                                            
                                            

Positions:
   0 Pd     0.000000    1.633958   10.000000    ( 0.0000,  0.0000,  0.0000)
   1 Ag     2.830098    1.633958   10.000000    ( 0.0000,  0.0000,  0.0000)
   2 Pt     5.660196    1.633958   10.000000    ( 0.0000,  0.0000,  0.0000)
   3 Pd     1.415049    4.084895   10.000000    ( 0.0000,  0.0000,  0.0000)
   4 Pd     4.245147    4.084895   10.000000    ( 0.0000,  0.0000,  0.0000)
   5 Pt     7.075245    4.084895   10.000000    ( 0.0000,  0.0000,  0.0000)
   6 Pd     2.830098    6.535832   10.000000    ( 0.0000,  0.0000,  0.0000)
   7 Ag     5.660196    6.535832   10.000000    ( 0.0000,  0.0000,  0.0000)
   8 Pd     8.490294    6.535832   10.000000    ( 0.0000,  0.0000,  0.0000)
   9 Ag     0.000000    0.000000   12.310765    ( 0.0000,  0.0000,  0.0000)
  10 Ru     2.830098    0.000000   12.310765    ( 0.0000,  0.0000,  0.0000)
  11 Ru     5.660196    0.000000   12.310765    ( 0.0000,  0.0000,  0.0000)
  12 Pd     1.415049    2.450937   12.310765    ( 0.0000,  0.0000,  0.0000)
  13 Ru     4.245147    2.450937   12.310765    ( 0.0000,  0.0000,  0.0000)
  14 Ag     7.075245    2.450937   12.310765    ( 0.0000,  0.0000,  0.0000)
  15 Pd     2.830098    4.901874   12.310765    ( 0.0000,  0.0000,  0.0000)
  16 Ag     5.660196    4.901874   12.310765    ( 0.0000,  0.0000,  0.0000)
  17 Pd     8.490294    4.901874   12.310765    ( 0.0000,  0.0000,  0.0000)
  18 Ag     1.421909    0.837979   14.686985    ( 0.0000,  0.0000,  0.0000)
  19 Ag     4.225796    0.833248   14.671320    ( 0.0000,  0.0000,  0.0000)
  20 Pt     7.000410    0.830417   14.674015    ( 0.0000,  0.0000,  0.0000)
  21 Ag     2.847350    3.274272   14.697572    ( 0.0000,  0.0000,  0.0000)
  22 Ag     5.607628    3.276204   14.717328    ( 0.0000,  0.0000,  0.0000)
  23 Ag     8.409013    3.278300   14.703506    ( 0.0000,  0.0000,  0.0000)
  24 Pd     4.229052    5.664546   14.789712    ( 0.0000,  0.0000,  0.0000)
  25 Pd     7.022870    5.719264   14.699460    ( 0.0000,  0.0000,  0.0000)
  26 Ag     9.808526    5.687055   14.693538    ( 0.0000,  0.0000,  0.0000)
  27 Pt     0.032279    1.655125   17.059918    ( 0.0000,  0.0000,  0.0000)
  28 Pd     2.862716    1.665952   17.085137    ( 0.0000,  0.0000,  0.0000)
  29 Pd     5.584859    1.663993   17.076553    ( 0.0000,  0.0000,  0.0000)
  30 Pd     1.452614    4.083814   17.058530    ( 0.0000,  0.0000,  0.0000)
  31 Ru     4.282632    4.066373   17.276067    ( 0.0000,  0.0000,  0.0000)
  32 Pt     6.973610    4.082726   17.100214    ( 0.0000,  0.0000,  0.0000)
  33 Ag     2.791227    6.507426   17.071466    ( 0.0000,  0.0000,  0.0000)
  34 Pt     5.611523    6.455683   17.089922    ( 0.0000,  0.0000,  0.0000)
  35 Ru     8.289235    6.445281   17.191721    ( 0.0000,  0.0000,  0.0000)
  36 Pd     0.105218    0.044676   19.431242    ( 0.0000,  0.0000,  0.0000)
  37 Ru     2.910389   -0.037588   19.210959    ( 0.0000,  0.0000,  0.0000)
  38 Pd     5.610061    0.005308   19.431305    ( 0.0000,  0.0000,  0.0000)
  39 Pt     1.440519    2.455086   19.373606    ( 0.0000,  0.0000,  0.0000)
  40 Pd     4.204233    2.417034   19.456026    ( 0.0000,  0.0000,  0.0000)
  41 Pd     7.084543    2.473999   19.414566    ( 0.0000,  0.0000,  0.0000)
  42 Pt     2.795916    4.835832   19.367459    ( 0.0000,  0.0000,  0.0000)
  43 Pd     5.700757    4.899768   19.528141    ( 0.0000,  0.0000,  0.0000)
  44 Ru     8.441224    4.975741   19.207123    ( 0.0000,  0.0000,  0.0000)
  45 O      5.729909    4.923248   21.575450    ( 0.0000,  0.0000,  0.0000)
  46 H      6.297750    5.500077   21.881895    ( 0.0000,  0.0000,  0.0000)

Unit cell:
           periodic     x           y           z      points  spacing
  1. axis:    yes    8.379498    0.000000    0.000000    35     0.2073
  2. axis:    yes    4.189749    7.256858    0.000000    35     0.2073
  3. axis:    no     0.000000    0.000000   29.243062   135     0.2166

  Lengths:   8.379498   8.379498  29.243062
  Angles:   90.000000  90.000000  60.000000

Effective grid spacing dv^(1/3) = 0.2207

                     log10-error:    total        iterations:
           time      wfs    density  energy       fermi  poisson
iter:   1  01:20:51  -2.36   +inf  -191.236359    4             
iter:   2  01:21:42  -1.21  -1.82  -323.776238    37            
iter:   3  01:22:34  -1.30  -1.23  -202.463567    37            
iter:   4  01:23:40  -2.59  -1.67  -188.361179    35            
iter:   5  01:24:47  -2.90  -2.05  -185.850561    3             
iter:   6  01:25:54  -3.20  -2.33  -185.139827    3             
iter:   7  01:27:02  -3.76  -2.70  -185.064030    3             
iter:   8  01:28:00  -3.95  -2.79  -185.204456    3             
iter:   9  01:28:52  -4.15  -2.51  -185.054521    3             
iter:  10  01:29:44  -3.84  -2.91  -185.029219    3             
iter:  11  01:30:37  -4.58  -2.83  -184.986436    2             
iter:  12  01:31:30  -5.17  -3.18  -184.987357    2             
iter:  13  01:32:22  -5.26  -3.19  -184.986212    2             
iter:  14  01:33:15  -5.11  -3.21  -184.983020    3             
iter:  15  01:34:07  -5.39  -3.30  -184.991550    2             
iter:  16  01:34:59  -5.76  -3.21  -184.982228    2             
iter:  17  01:35:52  -5.49  -3.55  -184.981473    3             
iter:  18  01:36:45  -5.58  -3.43  -184.982643    2             
iter:  19  01:37:38  -6.00  -3.70  -184.981543    2             
iter:  20  01:38:30  -6.42  -3.88  -184.981161    2             
iter:  21  01:39:27  -6.28  -3.81  -184.980593    2             
iter:  22  01:40:28  -6.25  -3.97  -184.982867    2             
iter:  23  01:41:36  -6.42  -3.91  -184.981336    2             
iter:  24  01:42:45  -6.81  -3.90  -184.981303    2             
iter:  25  01:43:53  -7.16  -4.26  -184.981302    2             
iter:  26  01:45:00  -7.35  -4.32  -184.981305    2             
iter:  27  01:46:07  -7.13  -4.35  -184.981007    2             
iter:  28  01:47:00  -7.26  -4.42  -184.981659    2             
iter:  29  01:47:52  -8.02  -4.07  -184.981384    2             

Converged after 29 iterations.

Dipole moment: (25.409416, 20.523056, -0.348074) |e|*Ang

Energy contributions relative to reference atoms: (reference = -9073466.092496)

Kinetic:       -169.741348
Potential:      +25.770193
External:        +0.000000
XC:             -35.534798
Entropy (-ST):   -2.043979
Local:           -4.453442
--------------------------
Free energy:   -186.003374
Extrapolated:  -184.981384

Fermi level: 0.77808

Showing only first 2 kpts
 Kpt  Band  Eigenvalues  Occupancy
  0   367      0.75400    0.13998
  0   368      0.78828    0.11863
  0   369      0.80882    0.10594
  0   370      0.83421    0.09081

  1   367      0.67391    0.18480
  1   368      0.70382    0.16939
  1   369      0.72161    0.15939
  1   370      0.74203    0.14729



Forces in eV/Ang:
  0 Pd    0.10208    0.51018   -0.40809
  1 Ag    0.10328    0.49042   -0.51105
  2 Pt   -0.23369    0.51211    0.83951
  3 Pd    0.09555    0.03335   -0.06943
  4 Pd    0.11048   -0.37203    0.21369
  5 Pt   -0.12900   -0.29293   -0.07044
  6 Pd   -0.17201   -0.39404   -0.04796
  7 Ag   -0.12576   -0.45337   -0.70362
  8 Pd   -0.25034   -0.30471    0.27810
  9 Ag    0.52421    0.20803    0.43016
 10 Ru    2.20623    1.27945    0.41130
 11 Ru   -1.84104    0.86939   -0.34420
 12 Pd    1.11503   -0.24398   -0.01354
 13 Ru   -0.52999   -1.48299   -0.85781
 14 Ag   -0.43549    0.14203    0.29315
 15 Pd    0.19445   -0.57548    0.10211
 16 Ag   -0.18279   -0.37843    0.34793
 17 Pd   -0.37427    0.53371   -0.00457
 18 Ag   -0.01920    0.00960    0.00088
 19 Ag    0.00206    0.00528    0.01868
 20 Pt   -0.00682   -0.01043   -0.02512
 21 Ag   -0.00110    0.00335    0.00194
 22 Ag    0.01151   -0.01752   -0.00653
 23 Ag   -0.01081   -0.01159    0.02480
 24 Pd   -0.00521   -0.00628    0.02837
 25 Pd   -0.00254   -0.00710    0.03788
 26 Ag    0.00461   -0.00510    0.02232
 27 Pt    0.00176    0.01044   -0.01210
 28 Pd   -0.01021   -0.00108   -0.02576
 29 Pd   -0.00509   -0.01442   -0.02354
 30 Pd   -0.02136   -0.01037   -0.02600
 31 Ru    0.00971    0.02049   -0.04957
 32 Pt   -0.02612    0.01855    0.05373
 33 Ag   -0.00439    0.02851   -0.02276
 34 Pt    0.02432   -0.02126    0.02322
 35 Ru   -0.06657   -0.04879    0.14667
 36 Pd   -0.01878   -0.00391    0.01669
 37 Ru   -0.01750    0.07967   -0.03472
 38 Pd   -0.02505   -0.00466    0.01464
 39 Pt   -0.01539   -0.04615    0.07760
 40 Pd   -0.03260    0.00285   -0.08936
 41 Pd   -0.01581   -0.02988    0.01405
 42 Pt   -0.02997   -0.01702   -0.12407
 43 Pd    0.06571    0.07695    0.48406
 44 Ru    0.02828   -0.01400   -0.01298
 45 O    -5.33854   -5.47530   -2.94378
 46 H     5.36672    5.47376    2.82237

System changes: positions 

Initializing position-dependent things.

Density initialized from wave functions
                                             
                                             
                                             
                                             
                           H                 
                         O                   
                                             
                                             
                 Pt      Pd    Ru            
                                             
            Pt    APd    PPd    Ru           
        Pd           Pd                      
              Ru           Pt                
        Pt     Pd    PPd    Pd     Ag        
                                             
                Ag     Ag     Ag             
                                             
           Ag    PAg    APt    Pd            
                                             
            Pd     Ru     Ag     Pd          
       Ag    PRu    PRu    Pt                
                                             
        Pd     Ag     Pt                     
                                             
                                             
                                             
                                             
                                             

Positions:
   0 Pd     0.000000    1.633958   10.000000    ( 0.0000,  0.0000,  0.0000)
   1 Ag     2.830098    1.633958   10.000000    ( 0.0000,  0.0000,  0.0000)
   2 Pt     5.660196    1.633958   10.000000    ( 0.0000,  0.0000,  0.0000)
   3 Pd     1.415049    4.084895   10.000000    ( 0.0000,  0.0000,  0.0000)
   4 Pd     4.245147    4.084895   10.000000    ( 0.0000,  0.0000,  0.0000)
   5 Pt     7.075245    4.084895   10.000000    ( 0.0000,  0.0000,  0.0000)
   6 Pd     2.830098    6.535832   10.000000    ( 0.0000,  0.0000,  0.0000)
   7 Ag     5.660196    6.535832   10.000000    ( 0.0000,  0.0000,  0.0000)
   8 Pd     8.490294    6.535832   10.000000    ( 0.0000,  0.0000,  0.0000)
   9 Ag     0.000000    0.000000   12.310765    ( 0.0000,  0.0000,  0.0000)
  10 Ru     2.830098    0.000000   12.310765    ( 0.0000,  0.0000,  0.0000)
  11 Ru     5.660196    0.000000   12.310765    ( 0.0000,  0.0000,  0.0000)
  12 Pd     1.415049    2.450937   12.310765    ( 0.0000,  0.0000,  0.0000)
  13 Ru     4.245147    2.450937   12.310765    ( 0.0000,  0.0000,  0.0000)
  14 Ag     7.075245    2.450937   12.310765    ( 0.0000,  0.0000,  0.0000)
  15 Pd     2.830098    4.901874   12.310765    ( 0.0000,  0.0000,  0.0000)
  16 Ag     5.660196    4.901874   12.310765    ( 0.0000,  0.0000,  0.0000)
  17 Pd     8.490294    4.901874   12.310765    ( 0.0000,  0.0000,  0.0000)
  18 Ag     1.422700    0.836600   14.687170    ( 0.0000,  0.0000,  0.0000)
  19 Ag     4.227919    0.833913   14.668952    ( 0.0000,  0.0000,  0.0000)
  20 Pt     7.000807    0.832974   14.676852    ( 0.0000,  0.0000,  0.0000)
  21 Ag     2.849103    3.274938   14.697635    ( 0.0000,  0.0000,  0.0000)
  22 Ag     5.607110    3.276060   14.715996    ( 0.0000,  0.0000,  0.0000)
  23 Ag     8.407841    3.278531   14.701956    ( 0.0000,  0.0000,  0.0000)
  24 Pd     4.227008    5.664456   14.784757    ( 0.0000,  0.0000,  0.0000)
  25 Pd     7.021725    5.717759   14.696320    ( 0.0000,  0.0000,  0.0000)
  26 Ag     9.809918    5.688175   14.690943    ( 0.0000,  0.0000,  0.0000)
  27 Pt     0.030649    1.654660   17.055145    ( 0.0000,  0.0000,  0.0000)
  28 Pd     2.863499    1.667874   17.080980    ( 0.0000,  0.0000,  0.0000)
  29 Pd     5.584818    1.667734   17.077587    ( 0.0000,  0.0000,  0.0000)
  30 Pd     1.451813    4.084636   17.055037    ( 0.0000,  0.0000,  0.0000)
  31 Ru     4.286533    4.069638   17.295980    ( 0.0000,  0.0000,  0.0000)
  32 Pt     6.975860    4.089780   17.096609    ( 0.0000,  0.0000,  0.0000)
  33 Ag     2.791740    6.502182   17.071015    ( 0.0000,  0.0000,  0.0000)
  34 Pt     5.616229    6.450421   17.092323    ( 0.0000,  0.0000,  0.0000)
  35 Ru     8.289095    6.444794   17.187462    ( 0.0000,  0.0000,  0.0000)
  36 Pd     0.109261    0.039351   19.432011    ( 0.0000,  0.0000,  0.0000)
  37 Ru     2.913404   -0.056763   19.211697    ( 0.0000,  0.0000,  0.0000)
  38 Pd     5.608014    0.003513   19.431924    ( 0.0000,  0.0000,  0.0000)
  39 Pt     1.441230    2.458289   19.370031    ( 0.0000,  0.0000,  0.0000)
  40 Pd     4.210361    2.425834   19.462507    ( 0.0000,  0.0000,  0.0000)
  41 Pd     7.082916    2.481920   19.414864    ( 0.0000,  0.0000,  0.0000)
  42 Pt     2.811987    4.835990   19.382170    ( 0.0000,  0.0000,  0.0000)
  43 Pd     5.688658    4.889386   19.523537    ( 0.0000,  0.0000,  0.0000)
  44 Ru     8.430278    4.984316   19.204304    ( 0.0000,  0.0000,  0.0000)
  45 O      5.692999    4.892883   21.530582    ( 0.0000,  0.0000,  0.0000)
  46 H      6.330764    5.531985   21.916649    ( 0.0000,  0.0000,  0.0000)

Unit cell:
           periodic     x           y           z      points  spacing
  1. axis:    yes    8.379498    0.000000    0.000000    35     0.2073
  2. axis:    yes    4.189749    7.256858    0.000000    35     0.2073
  3. axis:    no     0.000000    0.000000   29.243062   135     0.2166

  Lengths:   8.379498   8.379498  29.243062
  Angles:   90.000000  90.000000  60.000000

Effective grid spacing dv^(1/3) = 0.2207

                     log10-error:    total        iterations:
           time      wfs    density  energy       fermi  poisson
iter:   1  01:49:09  -2.24   +inf  -191.323637    34            
iter:   2  01:50:01  -1.21  -1.83  -327.389386    38            
iter:   3  01:50:53  -1.68  -1.21  -191.737526    37            
iter:   4  01:51:45  -2.60  -1.88  -186.276235    4             
iter:   5  01:52:36  -3.11  -2.33  -185.604986    3             
iter:   6  01:53:28  -3.41  -2.66  -185.723775    3             
iter:   7  01:54:20  -3.52  -2.40  -186.125037    3             
iter:   8  01:55:12  -3.71  -2.30  -185.450759    3             
iter:   9  01:56:01  -4.47  -2.83  -185.413503    3             
iter:  10  01:56:50  -4.89  -3.07  -185.420442    3             
iter:  11  01:57:39  -4.25  -3.01  -185.411986    2             
iter:  12  01:58:29  -4.61  -3.00  -185.394365    2             
iter:  13  01:59:18  -5.51  -3.36  -185.392919    2             
iter:  14  02:00:08  -5.58  -3.42  -185.394587    2             
iter:  15  02:01:00  -5.37  -3.38  -185.390293    2             
iter:  16  02:01:51  -5.50  -3.78  -185.391980    2             
iter:  17  02:02:43  -6.33  -3.80  -185.391437    2             
iter:  18  02:03:35  -6.11  -3.86  -185.391582    2             
iter:  19  02:04:26  -6.48  -3.75  -185.391077    2             
iter:  20  02:05:17  -6.53  -4.08  -185.391376    2             
iter:  21  02:06:20  -6.64  -4.15  -185.390972    2             
iter:  22  02:07:28  -6.53  -3.93  -185.391654    2             
iter:  23  02:08:35  -7.08  -3.94  -185.390906    2             
iter:  24  02:09:43  -7.30  -4.24  -185.391027    2             
iter:  25  02:10:50  -7.24  -4.39  -185.390948    2             
iter:  26  02:11:58  -7.46  -4.32  -185.391118    2             

Converged after 26 iterations.

Dipole moment: (25.107358, 21.569989, -0.276404) |e|*Ang

Energy contributions relative to reference atoms: (reference = -9073466.092496)

Kinetic:       -173.725893
Potential:      +27.968858
External:        +0.000000
XC:             -34.212760
Entropy (-ST):   -2.038410
Local:           -4.402119
--------------------------
Free energy:   -186.410323
Extrapolated:  -185.391118

Fermi level: 0.81166

Showing only first 2 kpts
 Kpt  Band  Eigenvalues  Occupancy
  0   367      0.78754    0.14000
  0   368      0.82165    0.11877
  0   369      0.84222    0.10605
  0   370      0.86699    0.09128

  1   367      0.70647    0.18528
  1   368      0.73671    0.16977
  1   369      0.75722    0.15821
  1   370      0.77349    0.14857



Forces in eV/Ang:
  0 Pd    0.09927    0.50978   -0.39912
  1 Ag    0.10644    0.48913   -0.50325
  2 Pt   -0.23385    0.51128    0.84934
  3 Pd    0.09517    0.03510   -0.06171
  4 Pd    0.11264   -0.37311    0.22232
  5 Pt   -0.13076   -0.29316   -0.06338
  6 Pd   -0.17405   -0.39119   -0.03637
  7 Ag   -0.12379   -0.45362   -0.69583
  8 Pd   -0.24952   -0.30428    0.28764
  9 Ag    0.51882    0.21212    0.42943
 10 Ru    2.21123    1.28263    0.40789
 11 Ru   -1.84198    0.87298   -0.35517
 12 Pd    1.11833   -0.24521   -0.01182
 13 Ru   -0.53032   -1.48646   -0.86508
 14 Ag   -0.43916    0.13636    0.28747
 15 Pd    0.19216   -0.57644    0.09172
 16 Ag   -0.18433   -0.38108    0.34715
 17 Pd   -0.37169    0.53830   -0.01378
 18 Ag   -0.01676    0.01432    0.00374
 19 Ag   -0.01418   -0.00631    0.02910
 20 Pt   -0.00723   -0.02926   -0.02588
 21 Ag   -0.01619   -0.00122    0.00339
 22 Ag    0.00595   -0.00334    0.01635
 23 Ag    0.00949   -0.00807    0.02533
 24 Pd    0.01775    0.00141    0.06423
 25 Pd    0.00956    0.01491    0.04084
 26 Ag   -0.00884   -0.00909    0.03277
 27 Pt    0.01488    0.00466    0.03276
 28 Pd   -0.00938   -0.02001    0.03392
 29 Pd    0.00397   -0.03467   -0.02697
 30 Pd    0.00385   -0.00895    0.03115
 31 Ru   -0.03690   -0.02333   -0.21488
 32 Pt   -0.02679   -0.06108    0.03456
 33 Ag    0.00011    0.05703   -0.00798
 34 Pt   -0.04019    0.04341   -0.02719
 35 Ru   -0.02054   -0.01183    0.07670
 36 Pd   -0.03719    0.06189   -0.00161
 37 Ru   -0.01989    0.18954   -0.01707
 38 Pd    0.00312    0.00258    0.00683
 39 Pt   -0.01685   -0.04470    0.07777
 40 Pd   -0.07595   -0.08878   -0.06538
 41 Pd    0.02989   -0.08712    0.00959
 42 Pt   -0.17066   -0.00457   -0.14826
 43 Pd    0.12705    0.11676    0.15184
 44 Ru    0.11294   -0.06524    0.02602
 45 O    -0.15832   -0.23408    0.03403
 46 H     0.18246    0.19680   -0.04886

System changes: positions 

Initializing position-dependent things.

Density initialized from wave functions
                                            
                                            
                                            
                                            
                          H                 
                        O                   
                                            
                                            
                 Pt     Pd     Ru           
            Pt     Pd     Pd                
       Pd         Ag Pd  Pt    Ru           
             PRu    Ru     Pt               
               Pd     Pd                    
        Pt           Pd     Pd    Ag        
                                            
                Ag     Ag     Ag            
           Ag     Ag     Pt                 
                 Pd     Ag     Pd           
            Pd     Ru     Ag                
       Ag     Ru  Pd Ru  Ag     Pd          
             Pd     Pd     Pt               
        Pd     Ag     Pt                    
                                            
                                            
                                            
                                            
                                            

Positions:
   0 Pd     0.000000    1.633958   10.000000    ( 0.0000,  0.0000,  0.0000)
   1 Ag     2.830098    1.633958   10.000000    ( 0.0000,  0.0000,  0.0000)
   2 Pt     5.660196    1.633958   10.000000    ( 0.0000,  0.0000,  0.0000)
   3 Pd     1.415049    4.084895   10.000000    ( 0.0000,  0.0000,  0.0000)
   4 Pd     4.245147    4.084895   10.000000    ( 0.0000,  0.0000,  0.0000)
   5 Pt     7.075245    4.084895   10.000000    ( 0.0000,  0.0000,  0.0000)
   6 Pd     2.830098    6.535832   10.000000    ( 0.0000,  0.0000,  0.0000)
   7 Ag     5.660196    6.535832   10.000000    ( 0.0000,  0.0000,  0.0000)
   8 Pd     8.490294    6.535832   10.000000    ( 0.0000,  0.0000,  0.0000)
   9 Ag     0.000000    0.000000   12.310765    ( 0.0000,  0.0000,  0.0000)
  10 Ru     2.830098    0.000000   12.310765    ( 0.0000,  0.0000,  0.0000)
  11 Ru     5.660196    0.000000   12.310765    ( 0.0000,  0.0000,  0.0000)
  12 Pd     1.415049    2.450937   12.310765    ( 0.0000,  0.0000,  0.0000)
  13 Ru     4.245147    2.450937   12.310765    ( 0.0000,  0.0000,  0.0000)
  14 Ag     7.075245    2.450937   12.310765    ( 0.0000,  0.0000,  0.0000)
  15 Pd     2.830098    4.901874   12.310765    ( 0.0000,  0.0000,  0.0000)
  16 Ag     5.660196    4.901874   12.310765    ( 0.0000,  0.0000,  0.0000)
  17 Pd     8.490294    4.901874   12.310765    ( 0.0000,  0.0000,  0.0000)
  18 Ag     1.420688    0.838577   14.687486    ( 0.0000,  0.0000,  0.0000)
  19 Ag     4.225683    0.833020   14.672810    ( 0.0000,  0.0000,  0.0000)
  20 Pt     6.999918    0.829030   14.673153    ( 0.0000,  0.0000,  0.0000)
  21 Ag     2.846796    3.274569   14.697960    ( 0.0000,  0.0000,  0.0000)
  22 Ag     5.607912    3.275770   14.718165    ( 0.0000,  0.0000,  0.0000)
  23 Ag     8.409245    3.277617   14.705127    ( 0.0000,  0.0000,  0.0000)
  24 Pd     4.229581    5.664634   14.793173    ( 0.0000,  0.0000,  0.0000)
  25 Pd     7.023127    5.719843   14.701667    ( 0.0000,  0.0000,  0.0000)
  26 Ag     9.808499    5.686830   14.695262    ( 0.0000,  0.0000,  0.0000)
  27 Pt     0.032776    1.655309   17.060261    ( 0.0000,  0.0000,  0.0000)
  28 Pd     2.862248    1.665113   17.085989    ( 0.0000,  0.0000,  0.0000)
  29 Pd     5.585241    1.662800   17.074437    ( 0.0000,  0.0000,  0.0000)
  30 Pd     1.452502    4.083415   17.059519    ( 0.0000,  0.0000,  0.0000)
  31 Ru     4.281311    4.066043   17.266601    ( 0.0000,  0.0000,  0.0000)
  32 Pt     6.972283    4.080918   17.101482    ( 0.0000,  0.0000,  0.0000)
  33 Ag     2.791563    6.509964   17.070360    ( 0.0000,  0.0000,  0.0000)
  34 Pt     5.610374    6.456811   17.088649    ( 0.0000,  0.0000,  0.0000)
  35 Ru     8.287037    6.443758   17.196904    ( 0.0000,  0.0000,  0.0000)
  36 Pd     0.103958    0.047662   19.431563    ( 0.0000,  0.0000,  0.0000)
  37 Ru     2.910254   -0.030259   19.209673    ( 0.0000,  0.0000,  0.0000)
  38 Pd     5.609086    0.004436   19.432398    ( 0.0000,  0.0000,  0.0000)
  39 Pt     1.439238    2.452522   19.379331    ( 0.0000,  0.0000,  0.0000)
  40 Pd     4.200311    2.413486   19.453414    ( 0.0000,  0.0000,  0.0000)
  41 Pd     7.086583    2.470065   19.415740    ( 0.0000,  0.0000,  0.0000)
  42 Pt     2.788561    4.835462   19.361543    ( 0.0000,  0.0000,  0.0000)
  43 Pd     5.706147    4.905189   19.540824    ( 0.0000,  0.0000,  0.0000)
  44 Ru     8.445895    4.974469   19.208011    ( 0.0000,  0.0000,  0.0000)
  45 O      5.690274    4.879975   21.550536    ( 0.0000,  0.0000,  0.0000)
  46 H      6.337398    5.540498   21.898882    ( 0.0000,  0.0000,  0.0000)

Unit cell:
           periodic     x           y           z      points  spacing
  1. axis:    yes    8.379498    0.000000    0.000000    35     0.2073
  2. axis:    yes    4.189749    7.256858    0.000000    35     0.2073
  3. axis:    no     0.000000    0.000000   29.243062   135     0.2166

  Lengths:   8.379498   8.379498  29.243062
  Angles:   90.000000  90.000000  60.000000

Effective grid spacing dv^(1/3) = 0.2207

                     log10-error:    total        iterations:
           time      wfs    density  energy       fermi  poisson
iter:   1  02:13:36  -2.52   +inf  -186.591013    2             
iter:   2  02:14:43  -2.00  -2.17  -222.934463    37            
iter:   3  02:15:50  -2.32  -1.50  -185.980715    36            
iter:   4  02:16:58  -3.31  -2.35  -185.459582    3             
iter:   5  02:18:05  -4.09  -2.94  -185.430782    2             
iter:   6  02:19:12  -4.54  -3.10  -185.424468    2             
iter:   7  02:20:20  -5.09  -3.10  -185.424558    2             
iter:   8  02:21:27  -5.18  -3.18  -185.418659    2             
iter:   9  02:22:34  -5.06  -3.24  -185.413931    2             
iter:  10  02:23:42  -5.19  -3.52  -185.416029    2             
iter:  11  02:24:49  -5.77  -3.52  -185.413342    2             
iter:  12  02:25:57  -6.19  -3.60  -185.413801    2             
iter:  13  02:27:05  -6.15  -3.69  -185.415213    2             
iter:  14  02:28:13  -6.54  -3.56  -185.414259    1             
iter:  15  02:29:20  -6.38  -3.81  -185.413281    2             
iter:  16  02:30:27  -6.66  -3.94  -185.413722    2             
iter:  17  02:31:27  -6.59  -3.95  -185.413449    2             
iter:  18  02:32:30  -6.88  -3.88  -185.413373    2             
iter:  19  02:33:34  -6.64  -4.10  -185.413300    2             
iter:  20  02:34:37  -6.93  -4.21  -185.413825    2             
iter:  21  02:35:41  -7.01  -4.28  -185.413309    2             
iter:  22  02:36:45  -7.50  -4.17  -185.413437    2             

Converged after 22 iterations.

Dipole moment: (25.563381, 20.156769, -0.292753) |e|*Ang

Energy contributions relative to reference atoms: (reference = -9073466.092496)

Kinetic:       -174.703004
Potential:      +28.679767
External:        +0.000000
XC:             -33.978854
Entropy (-ST):   -2.044817
Local:           -4.388938
--------------------------
Free energy:   -186.435846
Extrapolated:  -185.413437

Fermi level: 0.80264

Showing only first 2 kpts
 Kpt  Band  Eigenvalues  Occupancy
  0   367      0.77883    0.13981
  0   368      0.81286    0.11862
  0   369      0.83278    0.10630
  0   370      0.85746    0.09157

  1   367      0.69812    0.18496
  1   368      0.72749    0.16988
  1   369      0.74701    0.15890
  1   370      0.76612    0.14757



Forces in eV/Ang:
  0 Pd    0.10444    0.50838   -0.41854
  1 Ag    0.10448    0.49004   -0.51707
  2 Pt   -0.23663    0.50841    0.82583
  3 Pd    0.09770    0.03302   -0.08161
  4 Pd    0.10849   -0.37144    0.20260
  5 Pt   -0.12871   -0.29067   -0.08745
  6 Pd   -0.17124   -0.39371   -0.05805
  7 Ag   -0.12619   -0.45216   -0.71144
  8 Pd   -0.24851   -0.30295    0.26825
  9 Ag    0.52466    0.20406    0.42804
 10 Ru    2.20718    1.27862    0.41564
 11 Ru   -1.84285    0.86573   -0.33953
 12 Pd    1.11574   -0.24338   -0.01260
 13 Ru   -0.52747   -1.48166   -0.84918
 14 Ag   -0.43866    0.14258    0.29541
 15 Pd    0.19658   -0.57244    0.10518
 16 Ag   -0.18500   -0.37806    0.36180
 17 Pd   -0.37298    0.53796   -0.00012
 18 Ag   -0.00977    0.00927   -0.00947
 19 Ag   -0.00417    0.00647    0.00893
 20 Pt   -0.00378    0.00136   -0.02690
 21 Ag    0.00668    0.00149   -0.00649
 22 Ag    0.01447   -0.01985   -0.02629
 23 Ag   -0.01704   -0.00787    0.01836
 24 Pd   -0.01139   -0.01132    0.00461
 25 Pd   -0.00405   -0.01490    0.04044
 26 Ag    0.00031   -0.00767    0.01537
 27 Pt    0.00046    0.01690   -0.02302
 28 Pd   -0.01111    0.01152   -0.05235
 29 Pd   -0.01551   -0.01189   -0.01128
 30 Pd   -0.03308   -0.01579   -0.05456
 31 Ru    0.00551    0.02588   -0.00233
 32 Pt   -0.04179    0.05792    0.08527
 33 Ag   -0.01630    0.01529   -0.01690
 34 Pt    0.04514   -0.06701    0.07187
 35 Ru   -0.06425   -0.05678    0.11779
 36 Pd   -0.04573   -0.05547    0.00120
 37 Ru   -0.01996    0.04236   -0.03753
 38 Pd   -0.01920    0.00995    0.01696
 39 Pt   -0.00162   -0.03459    0.06046
 40 Pd    0.00389    0.06819   -0.08759
 41 Pd   -0.06783   -0.00498    0.01248
 42 Pt    0.06396   -0.02061   -0.08608
 43 Pd    0.03052    0.02859    0.06319
 44 Ru   -0.02297   -0.01353   -0.03427
 45 O     0.08451    0.02996    0.20299
 46 H    -0.01795   -0.00319   -0.03671

System changes: positions 

Initializing position-dependent things.

Density initialized from wave functions
                                            
                                            
                                            
                                            
                          H                 
                        O                   
                                            
                                            
                 Pt     Pd     Ru           
            Pt     Pd     Pd                
       Pd         Ag Pd  Pt    Ru           
             PRu    Ru     Pt               
               Pd     Pd                    
        Pt           Pd     Pd    Ag        
                                            
                Ag     Ag     Ag            
           Ag     Ag     Pt                 
                 Pd     Ag     Pd           
            Pd     Ru     Ag                
       Ag     Ru  Pd Ru  Ag     Pd          
             Pd     Pd     Pt               
        Pd     Ag     Pt                    
                                            
                                            
                                            
                                            
                                            

Positions:
   0 Pd     0.000000    1.633958   10.000000    ( 0.0000,  0.0000,  0.0000)
   1 Ag     2.830098    1.633958   10.000000    ( 0.0000,  0.0000,  0.0000)
   2 Pt     5.660196    1.633958   10.000000    ( 0.0000,  0.0000,  0.0000)
   3 Pd     1.415049    4.084895   10.000000    ( 0.0000,  0.0000,  0.0000)
   4 Pd     4.245147    4.084895   10.000000    ( 0.0000,  0.0000,  0.0000)
   5 Pt     7.075245    4.084895   10.000000    ( 0.0000,  0.0000,  0.0000)
   6 Pd     2.830098    6.535832   10.000000    ( 0.0000,  0.0000,  0.0000)
   7 Ag     5.660196    6.535832   10.000000    ( 0.0000,  0.0000,  0.0000)
   8 Pd     8.490294    6.535832   10.000000    ( 0.0000,  0.0000,  0.0000)
   9 Ag     0.000000    0.000000   12.310765    ( 0.0000,  0.0000,  0.0000)
  10 Ru     2.830098    0.000000   12.310765    ( 0.0000,  0.0000,  0.0000)
  11 Ru     5.660196    0.000000   12.310765    ( 0.0000,  0.0000,  0.0000)
  12 Pd     1.415049    2.450937   12.310765    ( 0.0000,  0.0000,  0.0000)
  13 Ru     4.245147    2.450937   12.310765    ( 0.0000,  0.0000,  0.0000)
  14 Ag     7.075245    2.450937   12.310765    ( 0.0000,  0.0000,  0.0000)
  15 Pd     2.830098    4.901874   12.310765    ( 0.0000,  0.0000,  0.0000)
  16 Ag     5.660196    4.901874   12.310765    ( 0.0000,  0.0000,  0.0000)
  17 Pd     8.490294    4.901874   12.310765    ( 0.0000,  0.0000,  0.0000)
  18 Ag     1.418418    0.840673   14.686566    ( 0.0000,  0.0000,  0.0000)
  19 Ag     4.224160    0.833363   14.675850    ( 0.0000,  0.0000,  0.0000)
  20 Pt     6.998988    0.827206   14.668119    ( 0.0000,  0.0000,  0.0000)
  21 Ag     2.846479    3.274628   14.697385    ( 0.0000,  0.0000,  0.0000)
  22 Ag     5.610058    3.273182   14.716104    ( 0.0000,  0.0000,  0.0000)
  23 Ag     8.407861    3.276151   14.709015    ( 0.0000,  0.0000,  0.0000)
  24 Pd     4.229447    5.663365   14.798047    ( 0.0000,  0.0000,  0.0000)
  25 Pd     7.023310    5.719075   14.709282    ( 0.0000,  0.0000,  0.0000)
  26 Ag     9.807895    5.685269   14.699320    ( 0.0000,  0.0000,  0.0000)
  27 Pt     0.033864    1.657663   17.059839    ( 0.0000,  0.0000,  0.0000)
  28 Pd     2.860277    1.665129   17.082069    ( 0.0000,  0.0000,  0.0000)
  29 Pd     5.583623    1.658967   17.071334    ( 0.0000,  0.0000,  0.0000)
  30 Pd     1.448812    4.080903   17.055117    ( 0.0000,  0.0000,  0.0000)
  31 Ru     4.279423    4.067494   17.251652    ( 0.0000,  0.0000,  0.0000)
  32 Pt     6.965439    4.083629   17.114133    ( 0.0000,  0.0000,  0.0000)
  33 Ag     2.789574    6.515695   17.067858    ( 0.0000,  0.0000,  0.0000)
  34 Pt     5.613001    6.451788   17.095453    ( 0.0000,  0.0000,  0.0000)
  35 Ru     8.278034    6.436219   17.216132    ( 0.0000,  0.0000,  0.0000)
  36 Pd     0.095875    0.045182   19.431557    ( 0.0000,  0.0000,  0.0000)
  37 Ru     2.906416   -0.012114   19.204044    ( 0.0000,  0.0000,  0.0000)
  38 Pd     5.607102    0.005912   19.434824    ( 0.0000,  0.0000,  0.0000)
  39 Pt     1.437948    2.445368   19.391681    ( 0.0000,  0.0000,  0.0000)
  40 Pd     4.195655    2.415597   19.438379    ( 0.0000,  0.0000,  0.0000)
  41 Pd     7.080383    2.463529   19.417820    ( 0.0000,  0.0000,  0.0000)
  42 Pt     2.784594    4.832686   19.340996    ( 0.0000,  0.0000,  0.0000)
  43 Pd     5.718516    4.916572   19.558176    ( 0.0000,  0.0000,  0.0000)
  44 Ru     8.450871    4.968222   19.205687    ( 0.0000,  0.0000,  0.0000)
  45 O      5.693021    4.871015   21.580031    ( 0.0000,  0.0000,  0.0000)
  46 H      6.344420    5.550262   21.889145    ( 0.0000,  0.0000,  0.0000)

Unit cell:
           periodic     x           y           z      points  spacing
  1. axis:    yes    8.379498    0.000000    0.000000    35     0.2073
  2. axis:    yes    4.189749    7.256858    0.000000    35     0.2073
  3. axis:    no     0.000000    0.000000   29.243062   135     0.2166

  Lengths:   8.379498   8.379498  29.243062
  Angles:   90.000000  90.000000  60.000000

Effective grid spacing dv^(1/3) = 0.2207

                     log10-error:    total        iterations:
           time      wfs    density  energy       fermi  poisson
iter:   1  02:38:19  -2.83   +inf  -185.655725    3             
iter:   2  02:39:23  -2.79  -2.53  -193.797405    3             
iter:   3  02:40:27  -2.98  -1.75  -185.570298    3             
iter:   4  02:41:31  -4.47  -2.66  -185.459680    2             
iter:   5  02:42:36  -4.73  -2.96  -185.433598    3             
iter:   6  02:43:32  -5.14  -3.17  -185.430675    2             
iter:   7  02:44:21  -5.49  -3.36  -185.431346    2             
iter:   8  02:45:06  -5.58  -3.42  -185.427176    2             
iter:   9  02:45:50  -5.58  -3.54  -185.427989    2             
iter:  10  02:46:35  -5.65  -3.57  -185.428524    2             
iter:  11  02:47:20  -5.73  -3.70  -185.426333    2             
iter:  12  02:48:05  -6.00  -3.72  -185.428117    2             
iter:  13  02:48:49  -6.44  -3.59  -185.427160    2             
iter:  14  02:49:34  -6.69  -3.94  -185.426723    2             
iter:  15  02:50:18  -6.96  -3.95  -185.427096    2             
iter:  16  02:51:03  -6.62  -4.01  -185.427234    2             
iter:  17  02:51:48  -6.85  -4.08  -185.426829    2             
iter:  18  02:52:32  -7.25  -3.85  -185.426777    2             
iter:  19  02:53:17  -7.17  -4.26  -185.427045    2             
iter:  20  02:54:01  -7.26  -4.27  -185.426806    2             
iter:  21  02:54:46  -7.46  -4.13  -185.426929    2             

Converged after 21 iterations.

Dipole moment: (25.158672, 19.275868, -0.318644) |e|*Ang

Energy contributions relative to reference atoms: (reference = -9073466.092496)

Kinetic:       -173.588092
Potential:      +27.682809
External:        +0.000000
XC:             -34.105082
Entropy (-ST):   -2.041018
Local:           -4.396055
--------------------------
Free energy:   -186.447438
Extrapolated:  -185.426929

Fermi level: 0.79270

Showing only first 2 kpts
 Kpt  Band  Eigenvalues  Occupancy
  0   367      0.76825    0.14021
  0   368      0.80380    0.11807
  0   369      0.82162    0.10705
  0   370      0.84914    0.09063

  1   367      0.68771    0.18519
  1   368      0.71653    0.17043
  1   369      0.73609    0.15947
  1   370      0.75538    0.14806



Forces in eV/Ang:
  0 Pd    0.10318    0.50811   -0.41807
  1 Ag    0.10512    0.48895   -0.51474
  2 Pt   -0.23653    0.50666    0.82781
  3 Pd    0.09673    0.03337   -0.08033
  4 Pd    0.10929   -0.37296    0.20525
  5 Pt   -0.12802   -0.28972   -0.08643
  6 Pd   -0.17196   -0.39195   -0.05617
  7 Ag   -0.12506   -0.45193   -0.71067
  8 Pd   -0.24835   -0.30265    0.26874
  9 Ag    0.52927    0.19918    0.42029
 10 Ru    2.21149    1.27666    0.42108
 11 Ru   -1.85115    0.85885   -0.33105
 12 Pd    1.11434   -0.23844   -0.01169
 13 Ru   -0.53115   -1.48661   -0.85334
 14 Ag   -0.43237    0.14774    0.28542
 15 Pd    0.19384   -0.57092    0.11069
 16 Ag   -0.18056   -0.37221    0.36734
 17 Pd   -0.37230    0.53963    0.01500
 18 Ag    0.00137   -0.02990   -0.00468
 19 Ag   -0.00346   -0.01482   -0.01019
 20 Pt   -0.00047    0.00425   -0.01539
 21 Ag    0.01789    0.00431   -0.02396
 22 Ag    0.00921   -0.00205   -0.02064
 23 Ag   -0.03025    0.01001   -0.00432
 24 Pd    0.00032   -0.00860   -0.02287
 25 Pd   -0.01651   -0.01753    0.01881
 26 Ag   -0.01361    0.00512   -0.01127
 27 Pt   -0.01236   -0.00466    0.01123
 28 Pd   -0.03590    0.02218   -0.07577
 29 Pd   -0.00526    0.01845   -0.00773
 30 Pd   -0.04311   -0.02155   -0.04303
 31 Ru    0.01384    0.02486    0.04844
 32 Pt   -0.02175   -0.05196    0.03119
 33 Ag   -0.01779   -0.00307   -0.01869
 34 Pt   -0.05424    0.00659    0.05325
 35 Ru    0.05045    0.01729   -0.06628
 36 Pd   -0.02952   -0.07500   -0.01361
 37 Ru   -0.06823    0.02522    0.09801
 38 Pd   -0.03052   -0.01009    0.02301
 39 Pt   -0.01663   -0.01623   -0.01745
 40 Pd    0.06035    0.11095   -0.04922
 41 Pd   -0.06066    0.03967   -0.00028
 42 Pt    0.10870   -0.00340    0.00492
 43 Pd   -0.04652   -0.05090    0.16101
 44 Ru   -0.02415   -0.05490    0.07196
 45 O     0.18900    0.14262    0.09163
 46 H    -0.09316   -0.08060    0.01975

System changes: positions 

Initializing position-dependent things.

Density initialized from wave functions
                                            
                                            
                                            
                                            
                          H                 
                        O                   
                                            
                        Pd                  
                 Pt            Ru           
            Pt     Pd     Pd                
       Pd         Ag Pd  Pt    Ru           
             PRu    Ru     Pt               
               Pd                           
        Pt           PPd    Pd    Ag        
                                            
                Ag     Ag     Ag            
           Ag     Ag     Pt                 
                 Pd     Ag     Pd           
            Pd     Ru     Ag                
       Ag     Ru  Pd Ru  Ag     Pd          
             Pd     Pd     Pt               
        Pd     Ag     Pt                    
                                            
                                            
                                            
                                            
                                            

Positions:
   0 Pd     0.000000    1.633958   10.000000    ( 0.0000,  0.0000,  0.0000)
   1 Ag     2.830098    1.633958   10.000000    ( 0.0000,  0.0000,  0.0000)
   2 Pt     5.660196    1.633958   10.000000    ( 0.0000,  0.0000,  0.0000)
   3 Pd     1.415049    4.084895   10.000000    ( 0.0000,  0.0000,  0.0000)
   4 Pd     4.245147    4.084895   10.000000    ( 0.0000,  0.0000,  0.0000)
   5 Pt     7.075245    4.084895   10.000000    ( 0.0000,  0.0000,  0.0000)
   6 Pd     2.830098    6.535832   10.000000    ( 0.0000,  0.0000,  0.0000)
   7 Ag     5.660196    6.535832   10.000000    ( 0.0000,  0.0000,  0.0000)
   8 Pd     8.490294    6.535832   10.000000    ( 0.0000,  0.0000,  0.0000)
   9 Ag     0.000000    0.000000   12.310765    ( 0.0000,  0.0000,  0.0000)
  10 Ru     2.830098    0.000000   12.310765    ( 0.0000,  0.0000,  0.0000)
  11 Ru     5.660196    0.000000   12.310765    ( 0.0000,  0.0000,  0.0000)
  12 Pd     1.415049    2.450937   12.310765    ( 0.0000,  0.0000,  0.0000)
  13 Ru     4.245147    2.450937   12.310765    ( 0.0000,  0.0000,  0.0000)
  14 Ag     7.075245    2.450937   12.310765    ( 0.0000,  0.0000,  0.0000)
  15 Pd     2.830098    4.901874   12.310765    ( 0.0000,  0.0000,  0.0000)
  16 Ag     5.660196    4.901874   12.310765    ( 0.0000,  0.0000,  0.0000)
  17 Pd     8.490294    4.901874   12.310765    ( 0.0000,  0.0000,  0.0000)
  18 Ag     1.416727    0.838975   14.685621    ( 0.0000,  0.0000,  0.0000)
  19 Ag     4.222723    0.831880   14.677197    ( 0.0000,  0.0000,  0.0000)
  20 Pt     6.998183    0.826013   14.662900    ( 0.0000,  0.0000,  0.0000)
  21 Ag     2.848006    3.275208   14.694530    ( 0.0000,  0.0000,  0.0000)
  22 Ag     5.612527    3.271183   14.712841    ( 0.0000,  0.0000,  0.0000)
  23 Ag     8.403792    3.276092   14.711557    ( 0.0000,  0.0000,  0.0000)
  24 Pd     4.229616    5.661652   14.799857    ( 0.0000,  0.0000,  0.0000)
  25 Pd     7.021739    5.716898   14.716935    ( 0.0000,  0.0000,  0.0000)
  26 Ag     9.805984    5.684733   14.701275    ( 0.0000,  0.0000,  0.0000)
  27 Pt     0.033408    1.658723   17.061029    ( 0.0000,  0.0000,  0.0000)
  28 Pd     2.854951    1.667243   17.071706    ( 0.0000,  0.0000,  0.0000)
  29 Pd     5.582140    1.658068   17.067842    ( 0.0000,  0.0000,  0.0000)
  30 Pd     1.441761    4.076816   17.048034    ( 0.0000,  0.0000,  0.0000)
  31 Ru     4.279217    4.070931   17.243964    ( 0.0000,  0.0000,  0.0000)
  32 Pt     6.958249    4.078952   17.126061    ( 0.0000,  0.0000,  0.0000)
  33 Ag     2.786462    6.519929   17.063907    ( 0.0000,  0.0000,  0.0000)
  34 Pt     5.608289    6.449801   17.105118    ( 0.0000,  0.0000,  0.0000)
  35 Ru     8.277126    6.432850   17.222859    ( 0.0000,  0.0000,  0.0000)
  36 Pd     0.087024    0.036506   19.430150    ( 0.0000,  0.0000,  0.0000)
  37 Ru     2.896427    0.004945   19.210714    ( 0.0000,  0.0000,  0.0000)
  38 Pd     5.602276    0.005534   19.439189    ( 0.0000,  0.0000,  0.0000)
  39 Pt     1.434905    2.438178   19.399492    ( 0.0000,  0.0000,  0.0000)
  40 Pd     4.197888    2.427682   19.422482    ( 0.0000,  0.0000,  0.0000)
  41 Pd     7.070510    2.462264   19.419464    ( 0.0000,  0.0000,  0.0000)
  42 Pt     2.791203    4.830433   19.326243    ( 0.0000,  0.0000,  0.0000)
  43 Pd     5.723307    4.920222   19.590749    ( 0.0000,  0.0000,  0.0000)
  44 Ru     8.453141    4.957650   19.212389    ( 0.0000,  0.0000,  0.0000)
  45 O      5.704187    4.868393   21.602350    ( 0.0000,  0.0000,  0.0000)
  46 H      6.350007    5.559227   21.889359    ( 0.0000,  0.0000,  0.0000)

Unit cell:
           periodic     x           y           z      points  spacing
  1. axis:    yes    8.379498    0.000000    0.000000    35     0.2073
  2. axis:    yes    4.189749    7.256858    0.000000    35     0.2073
  3. axis:    no     0.000000    0.000000   29.243062   135     0.2166

  Lengths:   8.379498   8.379498  29.243062
  Angles:   90.000000  90.000000  60.000000

Effective grid spacing dv^(1/3) = 0.2207

                     log10-error:    total        iterations:
           time      wfs    density  energy       fermi  poisson
iter:   1  02:56:04  -2.82   +inf  -185.515841    3             
iter:   2  02:56:56  -3.32  -2.75  -186.895373    2             
iter:   3  02:57:48  -3.44  -2.13  -185.821480    3             
iter:   4  02:58:41  -4.28  -2.40  -185.451412    2             
iter:   5  02:59:33  -4.93  -3.19  -185.438411    3             
iter:   6  03:00:24  -5.33  -3.32  -185.438524    2             
iter:   7  03:01:23  -5.43  -3.36  -185.438722    2             
iter:   8  03:02:28  -5.37  -3.30  -185.436075    2             
iter:   9  03:03:34  -5.54  -3.54  -185.435744    2             
iter:  10  03:04:39  -5.76  -3.52  -185.435954    2             
iter:  11  03:05:45  -6.26  -3.84  -185.435179    2             
iter:  12  03:06:50  -6.14  -3.63  -185.434708    2             
iter:  13  03:07:55  -6.56  -3.93  -185.435485    2             
iter:  14  03:09:01  -6.49  -3.98  -185.435201    2             
iter:  15  03:10:06  -6.96  -4.14  -185.435048    2             
iter:  16  03:11:12  -6.79  -4.21  -185.435397    2             
iter:  17  03:12:17  -7.15  -4.07  -185.434939    2             
iter:  18  03:13:22  -7.26  -4.19  -185.435021    2             
iter:  19  03:14:28  -7.33  -4.44  -185.435251    2             
iter:  20  03:15:31  -7.50  -4.42  -185.435067    2             

Converged after 20 iterations.

Dipole moment: (24.492483, 18.795710, -0.326566) |e|*Ang

Energy contributions relative to reference atoms: (reference = -9073466.092496)

Kinetic:       -175.055841
Potential:      +28.949485
External:        +0.000000
XC:             -33.911326
Entropy (-ST):   -2.041046
Local:           -4.396862
--------------------------
Free energy:   -186.455590
Extrapolated:  -185.435067

Fermi level: 0.78984

Showing only first 2 kpts
 Kpt  Band  Eigenvalues  Occupancy
  0   367      0.76467    0.14064
  0   368      0.80039    0.11841
  0   369      0.81838    0.10728
  0   370      0.84722    0.09009

  1   367      0.68401    0.18559
  1   368      0.71226    0.17119
  1   369      0.73411    0.15896
  1   370      0.75301    0.14776



Forces in eV/Ang:
  0 Pd    0.10375    0.50969   -0.41802
  1 Ag    0.10479    0.48978   -0.51408
  2 Pt   -0.23719    0.50724    0.82712
  3 Pd    0.09655    0.03287   -0.07933
  4 Pd    0.10944   -0.37348    0.20661
  5 Pt   -0.12744   -0.28980   -0.08397
  6 Pd   -0.17227   -0.39323   -0.05663
  7 Ag   -0.12544   -0.45274   -0.71033
  8 Pd   -0.24792   -0.30375    0.26854
  9 Ag    0.53452    0.19315    0.41157
 10 Ru    2.21310    1.26805    0.42648
 11 Ru   -1.85786    0.85241   -0.32406
 12 Pd    1.10946   -0.23706   -0.00800
 13 Ru   -0.52940   -1.49171   -0.86170
 14 Ag   -0.42722    0.15348    0.27243
 15 Pd    0.19193   -0.56516    0.10964
 16 Ag   -0.17528   -0.36582    0.36856
 17 Pd   -0.37645    0.54322    0.02613
 18 Ag   -0.00125   -0.02931    0.00038
 19 Ag   -0.00132   -0.02094   -0.02557
 20 Pt    0.00052   -0.00160    0.00408
 21 Ag    0.00105   -0.00153   -0.02450
 22 Ag   -0.00969    0.00270   -0.00501
 23 Ag   -0.00819    0.00083   -0.02311
 24 Pd    0.00326    0.00580   -0.02662
 25 Pd   -0.01866   -0.00565    0.01811
 26 Ag   -0.01351    0.00778   -0.03104
 27 Pt   -0.02886   -0.02633    0.01607
 28 Pd   -0.01899   -0.01877   -0.02098
 29 Pd   -0.01856    0.00535   -0.00860
 30 Pd   -0.03066    0.01565    0.02428
 31 Ru    0.01662    0.02562    0.04383
 32 Pt    0.00231    0.01498    0.02043
 33 Ag   -0.03889   -0.02870   -0.01273
 34 Pt    0.00928    0.00316    0.05639
 35 Ru   -0.02353    0.02736    0.05945
 36 Pd   -0.02207   -0.03330    0.01441
 37 Ru   -0.00453   -0.05319   -0.01297
 38 Pd   -0.06460   -0.03733    0.00440
 39 Pt   -0.00940    0.00098   -0.04831
 40 Pd    0.05243    0.05078    0.00143
 41 Pd   -0.01072    0.03116    0.02469
 42 Pt    0.03146    0.01694    0.06445
 43 Pd   -0.05405   -0.06202   -0.04312
 44 Ru   -0.03004    0.02052   -0.00408
 45 O     0.13963    0.08075    0.15677
 46 H    -0.03065   -0.01355    0.11072

System changes: positions 

Initializing position-dependent things.

Density initialized from wave functions
                                            
                                            
                                            
                                            
                          H                 
                        O                   
                                            
                        Pd                  
                 Pt            Ru           
            Pt     Pd     Pd                
       Pd         Ag Pd  Pt    Ru           
             PRu    Ru     Pt               
                                            
        Pt     Pd    PPd    Pd    Ag        
                                            
                Ag     Ag     Ag            
           Ag     Ag     Pt                 
                 Pd     Ag     Pd           
            Pd     Ru     Ag                
       Ag     Ru  Pd Ru  Ag     Pd          
             Pd     Pd     Pt               
        Pd     Ag     Pt                    
                                            
                                            
                                            
                                            
                                            

Positions:
   0 Pd     0.000000    1.633958   10.000000    ( 0.0000,  0.0000,  0.0000)
   1 Ag     2.830098    1.633958   10.000000    ( 0.0000,  0.0000,  0.0000)
   2 Pt     5.660196    1.633958   10.000000    ( 0.0000,  0.0000,  0.0000)
   3 Pd     1.415049    4.084895   10.000000    ( 0.0000,  0.0000,  0.0000)
   4 Pd     4.245147    4.084895   10.000000    ( 0.0000,  0.0000,  0.0000)
   5 Pt     7.075245    4.084895   10.000000    ( 0.0000,  0.0000,  0.0000)
   6 Pd     2.830098    6.535832   10.000000    ( 0.0000,  0.0000,  0.0000)
   7 Ag     5.660196    6.535832   10.000000    ( 0.0000,  0.0000,  0.0000)
   8 Pd     8.490294    6.535832   10.000000    ( 0.0000,  0.0000,  0.0000)
   9 Ag     0.000000    0.000000   12.310765    ( 0.0000,  0.0000,  0.0000)
  10 Ru     2.830098    0.000000   12.310765    ( 0.0000,  0.0000,  0.0000)
  11 Ru     5.660196    0.000000   12.310765    ( 0.0000,  0.0000,  0.0000)
  12 Pd     1.415049    2.450937   12.310765    ( 0.0000,  0.0000,  0.0000)
  13 Ru     4.245147    2.450937   12.310765    ( 0.0000,  0.0000,  0.0000)
  14 Ag     7.075245    2.450937   12.310765    ( 0.0000,  0.0000,  0.0000)
  15 Pd     2.830098    4.901874   12.310765    ( 0.0000,  0.0000,  0.0000)
  16 Ag     5.660196    4.901874   12.310765    ( 0.0000,  0.0000,  0.0000)
  17 Pd     8.490294    4.901874   12.310765    ( 0.0000,  0.0000,  0.0000)
  18 Ag     1.415324    0.834364   14.685192    ( 0.0000,  0.0000,  0.0000)
  19 Ag     4.221650    0.828311   14.675163    ( 0.0000,  0.0000,  0.0000)
  20 Pt     6.997661    0.824817   14.660025    ( 0.0000,  0.0000,  0.0000)
  21 Ag     2.849006    3.275447   14.689810    ( 0.0000,  0.0000,  0.0000)
  22 Ag     5.612922    3.270244   14.710391    ( 0.0000,  0.0000,  0.0000)
  23 Ag     8.400281    3.276079   14.710577    ( 0.0000,  0.0000,  0.0000)
  24 Pd     4.230256    5.661318   14.798340    ( 0.0000,  0.0000,  0.0000)
  25 Pd     7.018515    5.714969   14.724239    ( 0.0000,  0.0000,  0.0000)
  26 Ag     9.803112    5.685341   14.698977    ( 0.0000,  0.0000,  0.0000)
  27 Pt     0.029684    1.656157   17.063891    ( 0.0000,  0.0000,  0.0000)
  28 Pd     2.849179    1.666147   17.062833    ( 0.0000,  0.0000,  0.0000)
  29 Pd     5.579076    1.658019   17.064235    ( 0.0000,  0.0000,  0.0000)
  30 Pd     1.433619    4.076083   17.046816    ( 0.0000,  0.0000,  0.0000)
  31 Ru     4.280871    4.076100   17.242820    ( 0.0000,  0.0000,  0.0000)
  32 Pt     6.953875    4.077171   17.136015    ( 0.0000,  0.0000,  0.0000)
  33 Ag     2.779877    6.519513   17.059695    ( 0.0000,  0.0000,  0.0000)
  34 Pt     5.605958    6.449403   17.117641    ( 0.0000,  0.0000,  0.0000)
  35 Ru     8.273641    6.434014   17.234671    ( 0.0000,  0.0000,  0.0000)
  36 Pd     0.078665    0.027611   19.431041    ( 0.0000,  0.0000,  0.0000)
  37 Ru     2.889506    0.010454   19.213449    ( 0.0000,  0.0000,  0.0000)
  38 Pd     5.591229    0.000545   19.442659    ( 0.0000,  0.0000,  0.0000)
  39 Pt     1.431584    2.433396   19.399349    ( 0.0000,  0.0000,  0.0000)
  40 Pd     4.205040    2.440772   19.412407    ( 0.0000,  0.0000,  0.0000)
  41 Pd     7.063507    2.464628   19.423664    ( 0.0000,  0.0000,  0.0000)
  42 Pt     2.797816    4.831072   19.324035    ( 0.0000,  0.0000,  0.0000)
  43 Pd     5.720539    4.915777   19.608481    ( 0.0000,  0.0000,  0.0000)
  44 Ru     8.451815    4.953201   19.216554    ( 0.0000,  0.0000,  0.0000)
  45 O      5.720716    4.868549   21.630056    ( 0.0000,  0.0000,  0.0000)
  46 H      6.357175    5.570706   21.906354    ( 0.0000,  0.0000,  0.0000)

Unit cell:
           periodic     x           y           z      points  spacing
  1. axis:    yes    8.379498    0.000000    0.000000    35     0.2073
  2. axis:    yes    4.189749    7.256858    0.000000    35     0.2073
  3. axis:    no     0.000000    0.000000   29.243062   135     0.2166

  Lengths:   8.379498   8.379498  29.243062
  Angles:   90.000000  90.000000  60.000000

Effective grid spacing dv^(1/3) = 0.2207

                     log10-error:    total        iterations:
           time      wfs    density  energy       fermi  poisson
iter:   1  03:17:09  -3.01   +inf  -185.470938    3             
iter:   2  03:18:16  -3.95  -3.01  -185.481932    3             
iter:   3  03:19:15  -4.31  -2.94  -185.567928    2             
iter:   4  03:20:19  -4.70  -2.62  -185.445419    3             
iter:   5  03:21:24  -5.20  -3.38  -185.446328    2             
iter:   6  03:22:27  -5.32  -3.36  -185.443166    2             
iter:   7  03:23:31  -5.36  -3.53  -185.442410    2             
iter:   8  03:24:35  -5.69  -3.54  -185.442688    2             
iter:   9  03:25:39  -5.86  -3.81  -185.442497    2             
iter:  10  03:26:43  -6.08  -3.88  -185.442200    2             
iter:  11  03:27:48  -6.51  -3.99  -185.442834    2             
iter:  12  03:28:45  -6.54  -4.01  -185.442460    2             
iter:  13  03:29:35  -6.85  -3.99  -185.442392    2             
iter:  14  03:30:25  -6.86  -4.29  -185.442716    2             
iter:  15  03:31:14  -7.19  -4.10  -185.442385    2             
iter:  16  03:32:04  -7.50  -4.41  -185.442318    2             

Converged after 16 iterations.

Dipole moment: (24.292991, 18.993707, -0.340403) |e|*Ang

Energy contributions relative to reference atoms: (reference = -9073466.092496)

Kinetic:       -175.554094
Potential:      +29.356734
External:        +0.000000
XC:             -33.820098
Entropy (-ST):   -2.038852
Local:           -4.405434
--------------------------
Free energy:   -186.461744
Extrapolated:  -185.442318

Fermi level: 0.78354

Showing only first 2 kpts
 Kpt  Band  Eigenvalues  Occupancy
  0   367      0.75691    0.14154
  0   368      0.79429    0.11829
  0   369      0.81219    0.10721
  0   370      0.84321    0.08877

  1   367      0.67695    0.18595
  1   368      0.70505    0.17168
  1   369      0.72835    0.15864
  1   370      0.74704    0.14756



Forces in eV/Ang:
  0 Pd    0.10383    0.50857   -0.41678
  1 Ag    0.10404    0.48963   -0.51509
  2 Pt   -0.23639    0.50841    0.82589
  3 Pd    0.09687    0.03236   -0.08047
  4 Pd    0.11043   -0.37277    0.20680
  5 Pt   -0.12844   -0.28908   -0.08261
  6 Pd   -0.17007   -0.39310   -0.05820
  7 Ag   -0.12628   -0.45297   -0.71076
  8 Pd   -0.24948   -0.30481    0.26682
  9 Ag    0.53518    0.19223    0.40141
 10 Ru    2.20674    1.25882    0.42276
 11 Ru   -1.85368    0.85584   -0.33186
 12 Pd    1.10263   -0.24413   -0.01159
 13 Ru   -0.52193   -1.49369   -0.87217
 14 Ag   -0.42815    0.15210    0.26310
 15 Pd    0.19699   -0.55797    0.09909
 16 Ag   -0.16965   -0.36215    0.36876
 17 Pd   -0.38842    0.54401    0.02160
 18 Ag   -0.00647    0.00277    0.01016
 19 Ag   -0.00359    0.00012   -0.01839
 20 Pt   -0.00243    0.00333    0.01142
 21 Ag   -0.01972   -0.00708    0.00613
 22 Ag   -0.02161   -0.00028    0.01414
 23 Ag    0.01413   -0.01469   -0.00259
 24 Pd   -0.00430    0.00707   -0.00690
 25 Pd   -0.00755   -0.00383    0.01262
 26 Ag   -0.00534   -0.01299   -0.01882
 27 Pt   -0.03455   -0.01629    0.00672
 28 Pd    0.00866   -0.00162    0.03235
 29 Pd   -0.01975   -0.00187    0.00330
 30 Pd    0.01074    0.01805    0.04787
 31 Ru   -0.01140    0.00415    0.03116
 32 Pt    0.02264    0.02229   -0.02486
 33 Ag   -0.02842   -0.03503    0.00606
 34 Pt   -0.01463   -0.00009   -0.01633
 35 Ru   -0.01337    0.01704   -0.01201
 36 Pd   -0.01538    0.02572    0.03562
 37 Ru   -0.01475   -0.02081    0.01971
 38 Pd   -0.01235    0.00583    0.00164
 39 Pt    0.02095    0.01343   -0.05975
 40 Pd   -0.01073   -0.04442    0.03374
 41 Pd    0.03662   -0.01309    0.02680
 42 Pt   -0.05027    0.00875    0.06702
 43 Pd   -0.03763   -0.02425    0.04766
 44 Ru   -0.01970   -0.00371    0.01284
 45 O     0.12381    0.09249   -0.13911
 46 H     0.00769    0.03326    0.12605

System changes: positions 

Initializing position-dependent things.

Density initialized from wave functions
                                            
                                            
                                            
                                            
                          H                 
                        O                   
                                            
                        Pd                  
                 Pt            Ru           
            Pt     Pd     Pd                
       Pd         Ag Pd  Pt    Ru           
             PRu    Ru     Pt               
                                            
        Pt     Pd    PPd    Pd    Ag        
                                            
                Ag     Ag     Ag            
           Ag     Ag     Pt                 
                 Pd     Ag     Pd           
            Pd     Ru     Ag                
       Ag     Ru  Pd Ru  Ag     Pd          
             Pd     Pd     Pt               
        Pd     Ag     Pt                    
                                            
                                            
                                            
                                            
                                            

Positions:
   0 Pd     0.000000    1.633958   10.000000    ( 0.0000,  0.0000,  0.0000)
   1 Ag     2.830098    1.633958   10.000000    ( 0.0000,  0.0000,  0.0000)
   2 Pt     5.660196    1.633958   10.000000    ( 0.0000,  0.0000,  0.0000)
   3 Pd     1.415049    4.084895   10.000000    ( 0.0000,  0.0000,  0.0000)
   4 Pd     4.245147    4.084895   10.000000    ( 0.0000,  0.0000,  0.0000)
   5 Pt     7.075245    4.084895   10.000000    ( 0.0000,  0.0000,  0.0000)
   6 Pd     2.830098    6.535832   10.000000    ( 0.0000,  0.0000,  0.0000)
   7 Ag     5.660196    6.535832   10.000000    ( 0.0000,  0.0000,  0.0000)
   8 Pd     8.490294    6.535832   10.000000    ( 0.0000,  0.0000,  0.0000)
   9 Ag     0.000000    0.000000   12.310765    ( 0.0000,  0.0000,  0.0000)
  10 Ru     2.830098    0.000000   12.310765    ( 0.0000,  0.0000,  0.0000)
  11 Ru     5.660196    0.000000   12.310765    ( 0.0000,  0.0000,  0.0000)
  12 Pd     1.415049    2.450937   12.310765    ( 0.0000,  0.0000,  0.0000)
  13 Ru     4.245147    2.450937   12.310765    ( 0.0000,  0.0000,  0.0000)
  14 Ag     7.075245    2.450937   12.310765    ( 0.0000,  0.0000,  0.0000)
  15 Pd     2.830098    4.901874   12.310765    ( 0.0000,  0.0000,  0.0000)
  16 Ag     5.660196    4.901874   12.310765    ( 0.0000,  0.0000,  0.0000)
  17 Pd     8.490294    4.901874   12.310765    ( 0.0000,  0.0000,  0.0000)
  18 Ag     1.414609    0.832116   14.686086    ( 0.0000,  0.0000,  0.0000)
  19 Ag     4.221367    0.826806   14.671371    ( 0.0000,  0.0000,  0.0000)
  20 Pt     6.997450    0.825365   14.661219    ( 0.0000,  0.0000,  0.0000)
  21 Ag     2.847715    3.274837   14.688345    ( 0.0000,  0.0000,  0.0000)
  22 Ag     5.610416    3.270170   14.710740    ( 0.0000,  0.0000,  0.0000)
  23 Ag     8.400320    3.274825   14.708755    ( 0.0000,  0.0000,  0.0000)
  24 Pd     4.229752    5.662138   14.795109    ( 0.0000,  0.0000,  0.0000)
  25 Pd     7.016111    5.713649   14.727014    ( 0.0000,  0.0000,  0.0000)
  26 Ag     9.801632    5.684747   14.694798    ( 0.0000,  0.0000,  0.0000)
  27 Pt     0.024056    1.652850   17.065069    ( 0.0000,  0.0000,  0.0000)
  28 Pd     2.848128    1.665426   17.062398    ( 0.0000,  0.0000,  0.0000)
  29 Pd     5.575739    1.658811   17.063806    ( 0.0000,  0.0000,  0.0000)
  30 Pd     1.431532    4.078442   17.051499    ( 0.0000,  0.0000,  0.0000)
  31 Ru     4.281552    4.079194   17.251518    ( 0.0000,  0.0000,  0.0000)
  32 Pt     6.955725    4.080618   17.135792    ( 0.0000,  0.0000,  0.0000)
  33 Ag     2.774200    6.513782   17.058890    ( 0.0000,  0.0000,  0.0000)
  34 Pt     5.605065    6.448620   17.121495    ( 0.0000,  0.0000,  0.0000)
  35 Ru     8.271076    6.437206   17.236883    ( 0.0000,  0.0000,  0.0000)
  36 Pd     0.075275    0.025657   19.435313    ( 0.0000,  0.0000,  0.0000)
  37 Ru     2.886779    0.003747   19.215960    ( 0.0000,  0.0000,  0.0000)
  38 Pd     5.584822   -0.001688   19.443756    ( 0.0000,  0.0000,  0.0000)
  39 Pt     1.432726    2.434483   19.390353    ( 0.0000,  0.0000,  0.0000)
  40 Pd     4.209102    2.443178   19.414882    ( 0.0000,  0.0000,  0.0000)
  41 Pd     7.064644    2.466841   19.428056    ( 0.0000,  0.0000,  0.0000)
  42 Pt     2.799018    4.832817   19.335673    ( 0.0000,  0.0000,  0.0000)
  43 Pd     5.711555    4.907675   19.613510    ( 0.0000,  0.0000,  0.0000)
  44 Ru     8.446226    4.954081   19.218222    ( 0.0000,  0.0000,  0.0000)
  45 O      5.740028    4.880344   21.623890    ( 0.0000,  0.0000,  0.0000)
  46 H      6.359509    5.576877   21.930617    ( 0.0000,  0.0000,  0.0000)

Unit cell:
           periodic     x           y           z      points  spacing
  1. axis:    yes    8.379498    0.000000    0.000000    35     0.2073
  2. axis:    yes    4.189749    7.256858    0.000000    35     0.2073
  3. axis:    no     0.000000    0.000000   29.243062   135     0.2166

  Lengths:   8.379498   8.379498  29.243062
  Angles:   90.000000  90.000000  60.000000

Effective grid spacing dv^(1/3) = 0.2207

                     log10-error:    total        iterations:
[...]
  25 Pd     7.015561    5.712276   14.729699    ( 0.0000,  0.0000,  0.0000)
  26 Ag     9.799908    5.682115   14.692141    ( 0.0000,  0.0000,  0.0000)
  27 Pt     0.017754    1.650243   17.065553    ( 0.0000,  0.0000,  0.0000)
  28 Pd     2.846916    1.665598   17.064659    ( 0.0000,  0.0000,  0.0000)
  29 Pd     5.572803    1.659577   17.064760    ( 0.0000,  0.0000,  0.0000)
  30 Pd     1.431243    4.079550   17.056297    ( 0.0000,  0.0000,  0.0000)
  31 Ru     4.281049    4.081431   17.261114    ( 0.0000,  0.0000,  0.0000)
  32 Pt     6.956155    4.079985   17.134563    ( 0.0000,  0.0000,  0.0000)
  33 Ag     2.769091    6.508638   17.060076    ( 0.0000,  0.0000,  0.0000)
  34 Pt     5.597524    6.449434   17.122044    ( 0.0000,  0.0000,  0.0000)
  35 Ru     8.270185    6.440242   17.233719    ( 0.0000,  0.0000,  0.0000)
  36 Pd     0.071766    0.026492   19.441417    ( 0.0000,  0.0000,  0.0000)
  37 Ru     2.879178    0.001584   19.223280    ( 0.0000,  0.0000,  0.0000)
  38 Pd     5.581681   -0.000767   19.445969    ( 0.0000,  0.0000,  0.0000)
  39 Pt     1.434914    2.434153   19.381803    ( 0.0000,  0.0000,  0.0000)
  40 Pd     4.208282    2.439095   19.419283    ( 0.0000,  0.0000,  0.0000)
  41 Pd     7.068094    2.466976   19.432782    ( 0.0000,  0.0000,  0.0000)
  42 Pt     2.793984    4.834493   19.346416    ( 0.0000,  0.0000,  0.0000)
  43 Pd     5.705613    4.905462   19.610152    ( 0.0000,  0.0000,  0.0000)
  44 Ru     8.439839    4.951411   19.224721    ( 0.0000,  0.0000,  0.0000)
  45 O      5.760600    4.887371   21.633427    ( 0.0000,  0.0000,  0.0000)
  46 H      6.368461    5.594093   21.955546    ( 0.0000,  0.0000,  0.0000)

Unit cell:
           periodic     x           y           z      points  spacing
  1. axis:    yes    8.379498    0.000000    0.000000    35     0.2073
  2. axis:    yes    4.189749    7.256858    0.000000    35     0.2073
  3. axis:    no     0.000000    0.000000   29.243062   135     0.2166

  Lengths:   8.379498   8.379498  29.243062
  Angles:   90.000000  90.000000  60.000000

Effective grid spacing dv^(1/3) = 0.2207

                     log10-error:    total        iterations:
           time      wfs    density  energy       fermi  poisson
iter:   1  03:53:15  -3.29   +inf  -185.489475    3             
iter:   2  03:54:22  -3.81  -2.90  -185.591929    3             
iter:   3  03:55:29  -3.98  -2.64  -185.790877    2             
iter:   4  03:56:36  -4.57  -2.42  -185.458622    3             
iter:   5  03:57:43  -5.34  -3.21  -185.452156    2             
iter:   6  03:58:51  -5.53  -3.57  -185.452450    2             
iter:   7  03:59:58  -5.26  -3.51  -185.453103    2             
iter:   8  04:01:05  -5.76  -3.40  -185.450740    2             
iter:   9  04:02:12  -6.36  -3.76  -185.450515    2             
iter:  10  04:03:19  -6.56  -3.95  -185.450657    2             
iter:  11  04:04:26  -6.22  -4.00  -185.450519    2             
iter:  12  04:05:34  -6.61  -4.13  -185.450642    2             
iter:  13  04:06:41  -6.65  -4.16  -185.450692    2             
iter:  14  04:07:49  -6.82  -3.82  -185.450678    2             
iter:  15  04:08:56  -7.39  -4.22  -185.450397    1             
iter:  16  04:10:03  -7.63  -4.50  -185.450701    2             

Converged after 16 iterations.

Dipole moment: (24.511296, 19.364666, -0.329274) |e|*Ang

Energy contributions relative to reference atoms: (reference = -9073466.092496)

Kinetic:       -177.468751
Potential:      +30.977984
External:        +0.000000
XC:             -33.524658
Entropy (-ST):   -2.041416
Local:           -4.414569
--------------------------
Free energy:   -186.471409
Extrapolated:  -185.450701

Fermi level: 0.78753

Showing only first 2 kpts
 Kpt  Band  Eigenvalues  Occupancy
  0   367      0.76069    0.14168
  0   368      0.79715    0.11899
  0   369      0.81720    0.10659
  0   370      0.84706    0.08886

  1   367      0.68187    0.18551
  1   368      0.70901    0.17170
  1   369      0.73243    0.15859
  1   370      0.75107    0.14754



Forces in eV/Ang:
  0 Pd    0.10408    0.50886   -0.41640
  1 Ag    0.10473    0.48958   -0.51299
  2 Pt   -0.23775    0.50898    0.82847
  3 Pd    0.09766    0.03276   -0.07713
  4 Pd    0.10936   -0.37419    0.20815
  5 Pt   -0.12845   -0.28842   -0.08208
  6 Pd   -0.17213   -0.39364   -0.05513
  7 Ag   -0.12471   -0.45253   -0.71074
  8 Pd   -0.25144   -0.30542    0.27138
  9 Ag    0.53341    0.19756    0.41195
 10 Ru    2.20162    1.25939    0.42571
 11 Ru   -1.85300    0.85448   -0.34216
 12 Pd    1.10692   -0.24788   -0.00773
 13 Ru   -0.53012   -1.49121   -0.87146
 14 Ag   -0.43081    0.15111    0.27925
 15 Pd    0.19497   -0.56560    0.09582
 16 Ag   -0.16575   -0.36454    0.37712
 17 Pd   -0.39588    0.54088    0.01963
 18 Ag   -0.00207    0.00461    0.01153
 19 Ag   -0.00785    0.00514    0.02354
 20 Pt   -0.02001   -0.01315    0.01133
 21 Ag   -0.00175    0.00062    0.03436
 22 Ag   -0.00466    0.00389    0.02451
 23 Ag   -0.01262   -0.00260    0.02594
 24 Pd   -0.01430   -0.00703    0.03264
 25 Pd    0.00771    0.00688   -0.00400
 26 Ag    0.00150    0.00011    0.02888
 27 Pt    0.00354    0.00524   -0.00918
 28 Pd    0.00379   -0.01917    0.02232
 29 Pd    0.00598   -0.00837    0.01873
 30 Pd   -0.00126   -0.00743    0.00226
 31 Ru   -0.01960   -0.02313    0.00915
 32 Pt   -0.01078    0.00051   -0.00054
 33 Ag    0.00505    0.02600    0.02667
 34 Pt    0.00840    0.01560   -0.02337
 35 Ru   -0.04558   -0.02506    0.08233
 36 Pd   -0.00169    0.02465    0.01045
 37 Ru    0.02367   -0.00665   -0.07274
 38 Pd    0.00481    0.00217   -0.01168
 39 Pt   -0.01020   -0.01732    0.04803
 40 Pd   -0.04661   -0.04809    0.02799
 41 Pd    0.00656   -0.01549   -0.00539
 42 Pt   -0.05572   -0.00500   -0.00748
 43 Pd    0.03532    0.06578    0.10534
 44 Ru   -0.00255    0.04845   -0.04032
 45 O     0.06300    0.00598   -0.04464
 46 H     0.03365    0.07574   -0.01118

System changes: positions 

Initializing position-dependent things.

Density initialized from wave functions
                                            
                                            
                                            
                                            
                          H                 
                        O                   
                                            
                                            
                 Pt     Pd     Ru           
            Pt     Pd     Pd                
                  Ag     Pt    Ru           
       Pd    PRu    RPd    Pt               
                                            
        Pt     Pd    PPd    Pd    Ag        
                                            
                Ag     Ag     Ag            
           Ag     Ag     Pt                 
                 Pd     Ag     Pd           
            Pd     Ru     Ag                
       Ag     Ru  Pd Ru  Ag     Pd          
             Pd     Pd     Pt               
        Pd     Ag     Pt                    
                                            
                                            
                                            
                                            
                                            

Positions:
   0 Pd     0.000000    1.633958   10.000000    ( 0.0000,  0.0000,  0.0000)
   1 Ag     2.830098    1.633958   10.000000    ( 0.0000,  0.0000,  0.0000)
   2 Pt     5.660196    1.633958   10.000000    ( 0.0000,  0.0000,  0.0000)
   3 Pd     1.415049    4.084895   10.000000    ( 0.0000,  0.0000,  0.0000)
   4 Pd     4.245147    4.084895   10.000000    ( 0.0000,  0.0000,  0.0000)
   5 Pt     7.075245    4.084895   10.000000    ( 0.0000,  0.0000,  0.0000)
   6 Pd     2.830098    6.535832   10.000000    ( 0.0000,  0.0000,  0.0000)
   7 Ag     5.660196    6.535832   10.000000    ( 0.0000,  0.0000,  0.0000)
   8 Pd     8.490294    6.535832   10.000000    ( 0.0000,  0.0000,  0.0000)
   9 Ag     0.000000    0.000000   12.310765    ( 0.0000,  0.0000,  0.0000)
  10 Ru     2.830098    0.000000   12.310765    ( 0.0000,  0.0000,  0.0000)
  11 Ru     5.660196    0.000000   12.310765    ( 0.0000,  0.0000,  0.0000)
  12 Pd     1.415049    2.450937   12.310765    ( 0.0000,  0.0000,  0.0000)
  13 Ru     4.245147    2.450937   12.310765    ( 0.0000,  0.0000,  0.0000)
  14 Ag     7.075245    2.450937   12.310765    ( 0.0000,  0.0000,  0.0000)
  15 Pd     2.830098    4.901874   12.310765    ( 0.0000,  0.0000,  0.0000)
  16 Ag     5.660196    4.901874   12.310765    ( 0.0000,  0.0000,  0.0000)
  17 Pd     8.490294    4.901874   12.310765    ( 0.0000,  0.0000,  0.0000)
  18 Ag     1.412530    0.832567   14.691159    ( 0.0000,  0.0000,  0.0000)
  19 Ag     4.217249    0.825188   14.669036    ( 0.0000,  0.0000,  0.0000)
  20 Pt     6.992573    0.822966   14.664675    ( 0.0000,  0.0000,  0.0000)
  21 Ag     2.841212    3.273228   14.693647    ( 0.0000,  0.0000,  0.0000)
  22 Ag     5.604721    3.270221   14.717548    ( 0.0000,  0.0000,  0.0000)
  23 Ag     8.400562    3.271213   14.713814    ( 0.0000,  0.0000,  0.0000)
  24 Pd     4.224547    5.661790   14.798175    ( 0.0000,  0.0000,  0.0000)
  25 Pd     7.015474    5.711578   14.733513    ( 0.0000,  0.0000,  0.0000)
  26 Ag     9.798071    5.680073   14.693458    ( 0.0000,  0.0000,  0.0000)
  27 Pt     0.013151    1.648778   17.065871    ( 0.0000,  0.0000,  0.0000)
  28 Pd     2.844890    1.663774   17.066468    ( 0.0000,  0.0000,  0.0000)
  29 Pd     5.570730    1.658815   17.066332    ( 0.0000,  0.0000,  0.0000)
  30 Pd     1.429026    4.078817   17.059186    ( 0.0000,  0.0000,  0.0000)
  31 Ru     4.278456    4.081494   17.265945    ( 0.0000,  0.0000,  0.0000)
  32 Pt     6.953581    4.077949   17.136776    ( 0.0000,  0.0000,  0.0000)
  33 Ag     2.764644    6.508621   17.062654    ( 0.0000,  0.0000,  0.0000)
  34 Pt     5.591359    6.451817   17.122595    ( 0.0000,  0.0000,  0.0000)
  35 Ru     8.264350    6.439560   17.242525    ( 0.0000,  0.0000,  0.0000)
  36 Pd     0.066420    0.027905   19.446814    ( 0.0000,  0.0000,  0.0000)
  37 Ru     2.873463    0.004277   19.222484    ( 0.0000,  0.0000,  0.0000)
  38 Pd     5.578090   -0.000342   19.447422    ( 0.0000,  0.0000,  0.0000)
  39 Pt     1.434554    2.430190   19.382038    ( 0.0000,  0.0000,  0.0000)
  40 Pd     4.203383    2.433538   19.421343    ( 0.0000,  0.0000,  0.0000)
  41 Pd     7.069280    2.464798   19.436411    ( 0.0000,  0.0000,  0.0000)
  42 Pt     2.784707    4.834932   19.349755    ( 0.0000,  0.0000,  0.0000)
  43 Pd     5.706430    4.911673   19.625997    ( 0.0000,  0.0000,  0.0000)
  44 Ru     8.436109    4.951575   19.227162    ( 0.0000,  0.0000,  0.0000)
  45 O      5.787508    4.893921   21.645281    ( 0.0000,  0.0000,  0.0000)
  46 H      6.378654    5.615806   21.972314    ( 0.0000,  0.0000,  0.0000)

Unit cell:
           periodic     x           y           z      points  spacing
  1. axis:    yes    8.379498    0.000000    0.000000    35     0.2073
  2. axis:    yes    4.189749    7.256858    0.000000    35     0.2073
  3. axis:    no     0.000000    0.000000   29.243062   135     0.2166

  Lengths:   8.379498   8.379498  29.243062
  Angles:   90.000000  90.000000  60.000000

Effective grid spacing dv^(1/3) = 0.2207

                     log10-error:    total        iterations:
           time      wfs    density  energy       fermi  poisson
iter:   1  04:11:41  -3.20   +inf  -185.579601    3             
iter:   2  04:12:48  -3.28  -2.64  -185.898731    3             
iter:   3  04:13:50  -3.58  -2.43  -186.286473    3             
iter:   4  04:14:54  -4.03  -2.23  -185.460944    3             
iter:   5  04:15:57  -5.20  -3.35  -185.455592    2             
iter:   6  04:17:01  -5.60  -3.53  -185.456232    2             
iter:   7  04:17:56  -5.62  -3.48  -185.454867    2             
iter:   8  04:18:46  -5.90  -3.53  -185.455974    2             
iter:   9  04:19:33  -6.16  -3.77  -185.454584    2             
iter:  10  04:20:17  -5.90  -3.67  -185.454840    2             
iter:  11  04:21:02  -6.67  -4.01  -185.454723    2             
iter:  12  04:21:46  -7.00  -4.03  -185.454301    2             
iter:  13  04:22:31  -7.23  -4.12  -185.454564    2             
iter:  14  04:23:15  -6.86  -4.09  -185.455238    2             
iter:  15  04:24:00  -6.92  -3.91  -185.454366    2             
iter:  16  04:24:50  -7.29  -4.21  -185.454413    2             
iter:  17  04:25:41  -7.61  -4.55  -185.454501    2             

Converged after 17 iterations.

Dipole moment: (24.721238, 19.148163, -0.326197) |e|*Ang

Energy contributions relative to reference atoms: (reference = -9073466.092496)

Kinetic:       -177.650733
Potential:      +31.088765
External:        +0.000000
XC:             -33.463375
Entropy (-ST):   -2.040027
Local:           -4.409144
--------------------------
Free energy:   -186.474514
Extrapolated:  -185.454501

Fermi level: 0.78839

Showing only first 2 kpts
 Kpt  Band  Eigenvalues  Occupancy
  0   367      0.76170    0.14159
  0   368      0.79645    0.11997
  0   369      0.81799    0.10663
  0   370      0.84798    0.08882

  1   367      0.68331    0.18523
  1   368      0.70853    0.17242
  1   369      0.73355    0.15844
  1   370      0.75156    0.14776



Forces in eV/Ang:
  0 Pd    0.10348    0.51028   -0.41832
  1 Ag    0.10523    0.48993   -0.51245
  2 Pt   -0.23740    0.50808    0.82794
  3 Pd    0.09728    0.03327   -0.07842
  4 Pd    0.10875   -0.37494    0.20693
  5 Pt   -0.12671   -0.28850   -0.08446
  6 Pd   -0.17364   -0.39310   -0.05717
  7 Ag   -0.12417   -0.45278   -0.71203
  8 Pd   -0.25055   -0.30611    0.27092
  9 Ag    0.53455    0.19855    0.42029
 10 Ru    2.19718    1.25877    0.42704
 11 Ru   -1.85609    0.85187   -0.34195
 12 Pd    1.10592   -0.24786    0.00009
 13 Ru   -0.53200   -1.48707   -0.86140
 14 Ag   -0.43176    0.15195    0.29176
 15 Pd    0.19544   -0.56970    0.10062
 16 Ag   -0.16564   -0.36551    0.39036
 17 Pd   -0.39788    0.53775    0.02179
 18 Ag   -0.01073   -0.00778   -0.01247
 19 Ag   -0.00179    0.00845    0.02336
 20 Pt   -0.00822    0.00123   -0.00420
 21 Ag    0.01335    0.00118    0.01407
 22 Ag   -0.00105    0.00247    0.00142
 23 Ag   -0.02789   -0.00106    0.00069
 24 Pd   -0.00501   -0.00604    0.01620
 25 Pd   -0.01197    0.00169   -0.00792
 26 Ag   -0.00246    0.00725    0.02714
 27 Pt    0.01494    0.01417    0.00566
 28 Pd   -0.00045   -0.00007    0.00426
 29 Pd   -0.00919   -0.00040    0.02933
 30 Pd   -0.01392   -0.01135    0.00847
 31 Ru   -0.00681   -0.01005    0.04829
 32 Pt   -0.03654    0.02514    0.01970
 33 Ag    0.00304    0.01382    0.02891
 34 Pt    0.01297   -0.03319   -0.00763
 35 Ru   -0.02208   -0.03409   -0.01099
 36 Pd   -0.00670   -0.01185   -0.00531
 37 Ru   -0.00032   -0.00226   -0.01564
 38 Pd    0.01128    0.00730    0.00940
 39 Pt   -0.01982   -0.00117    0.05027
 40 Pd   -0.02142    0.01210    0.02722
 41 Pd   -0.02958    0.01278   -0.02259
 42 Pt    0.00572   -0.01834   -0.00666
 43 Pd    0.01048    0.04293    0.01945
 44 Ru   -0.00744    0.00949   -0.01856
 45 O     0.06621    0.05785    0.02463
 46 H    -0.03806   -0.00454   -0.08213

Timing:                                      incl.     excl.
-------------------------------------------------------------------
Density initialized from wave functions:    28.907    28.906   0.2% |
 Symmetrize density:                         0.001     0.001   0.0% |
Forces:                                    155.922   155.922   1.2% |
Hamiltonian:                                23.842     0.091   0.0% |
 Atomic:                                     4.280     1.778   0.0% |
  XC Correction:                             2.502     2.502   0.0% |
 Calculate atomic Hamiltonians:             10.972    10.972   0.1% |
 Communicate:                                0.187     0.187   0.0% |
 Initialize Hamiltonian:                     0.001     0.001   0.0% |
 Poisson:                                    0.063     0.063   0.0% |
 XC 3D grid:                                 8.248     8.248   0.1% |
LCAO initialization:                        47.155     2.741   0.0% |
 LCAO eigensolver:                           5.240     0.002   0.0% |
  Calculate projections:                     0.044     0.044   0.0% |
  DenseAtomicCorrection:                     0.061     0.061   0.0% |
  Distribute overlap matrix:                 0.339     0.339   0.0% |
  Orbital Layouts:                           0.318     0.318   0.0% |
  Potential matrix:                          4.437     4.437   0.0% |
  Sum over cells:                            0.040     0.040   0.0% |
 LCAO to grid:                              37.475    37.475   0.3% |
 Set positions (LCAO WFS):                   1.699     0.720   0.0% |
  Basic WFS set positions:                   0.002     0.002   0.0% |
  Basis functions set positions:             0.000     0.000   0.0% |
  P tci:                                     0.390     0.390   0.0% |
  ST tci:                                    0.439     0.439   0.0% |
  mktci:                                     0.147     0.147   0.0% |
PWDescriptor:                                0.033     0.033   0.0% |
Redistribute:                                0.060     0.060   0.0% |
SCF-cycle:                               12703.557   265.765   2.0% ||
 Davidson:                               11312.310  2640.443  20.3% |-------|
  Apply H:                                1807.793  1734.247  13.3% |----|
   HMM T:                                   73.546    73.546   0.6% |
  Subspace diag:                          1645.327     0.067   0.0% |
   calc_h_matrix:                          919.877   318.296   2.4% ||
    Apply H:                               601.581   577.142   4.4% |-|
     HMM T:                                 24.439    24.439   0.2% |
   diagonalize:                             27.952    27.952   0.2% |
   rotate_psi:                             697.431   697.431   5.4% |-|
  calc. matrices:                         3347.493  2143.428  16.5% |------|
   Apply H:                               1204.066  1155.140   8.9% |---|
    HMM T:                                  48.926    48.926   0.4% |
  diagonalize:                             478.810   478.810   3.7% ||
  rotate_psi:                             1392.443  1392.443  10.7% |---|
 Density:                                  585.717     0.012   0.0% |
  Atomic density matrices:                   3.537     3.537   0.0% |
  Mix:                                     255.121   255.121   2.0% ||
  Multipole moments:                         0.237     0.237   0.0% |
  Pseudo density:                          326.811   326.799   2.5% ||
   Symmetrize density:                       0.011     0.011   0.0% |
 Hamiltonian:                              486.408     1.864   0.0% |
  Atomic:                                   95.189    42.687   0.3% |
   XC Correction:                           52.502    52.502   0.4% |
  Calculate atomic Hamiltonians:           212.172   212.172   1.6% ||
  Communicate:                               4.128     4.128   0.0% |
  Poisson:                                   1.225     1.225   0.0% |
  XC 3D grid:                              171.828   171.828   1.3% ||
 Orthonormalize:                            53.357     0.005   0.0% |
  calc_s_matrix:                             7.635     7.635   0.1% |
  inverse-cholesky:                          0.682     0.682   0.0% |
  projections:                              28.329    28.329   0.2% |
  rotate_psi_s:                             16.707    16.707   0.1% |
Set symmetry:                                0.001     0.001   0.0% |
Other:                                      61.737    61.737   0.5% |
-------------------------------------------------------------------
Total:                                             13021.213 100.0%

Date: Fri Mar  4 04:25:53 2022
