
  ___ ___ ___ _ _ _  
 |   |   |_  | | | | 
 | | | | | . | | | | 
 |__ |  _|___|_____|  1.5.1
 |___|_|             

User:   clausen@node489.cluster
Date:   Fri Mar  4 01:04:58 2022
Arch:   x86_64
Pid:    26354
Python: 3.6.12
gpaw:   /software/kemi/gpaw/1.5.1/gpaw
_gpaw:  /software/kemi/gpaw/1.5.1/bin/gpaw-python
ase:    /software/kemi/ase/3.17.0/ase (version 3.17.0)
numpy:  /opt/rh/rh-python36/root/usr/lib64/python3.6/site-packages/numpy (version 1.13.1)
scipy:  /opt/rh/rh-python36/root/usr/lib64/python3.6/site-packages/scipy (version 0.19.1)
units:  Angstrom and eV
cores:  16

Input parameters:
  kpts: [4 4 1]
  mode: {ecut: 400.0,
         gammacentered: False,
         name: pw}
  xc: RPBE

System changes: positions, numbers, cell, pbc, initial_charges, initial_magmoms 

Initialize ...

Pd-setup:
  name: Palladium
  id: 6da19bfba079f22767af9506641940b9
  Z: 46
  valence: 16
  core: 30
  charge: 0.0
  file: /software/kemi/gpaw-setups/0.9.20000/Pd.RPBE.gz
  cutoffs: 1.19(comp), 2.38(filt), 2.28(core), lmax=2
  valence states:
                energy  radius
    5s(0.00)    -3.225   1.228
    4p(6.00)   -51.131   1.360
    5p(0.00)    -0.373   1.360
    4d(10.00)    -3.964   1.228
    *s          23.987   1.228
    *d          23.247   1.228

  Using partial waves for Pd as LCAO basis

Ag-setup:
  name: Silver
  id: c05e55bab2c3858b3f9398f6d75cb77c
  Z: 47
  valence: 17
  core: 30
  charge: 0.0
  file: /software/kemi/gpaw-setups/0.9.20000/Ag.RPBE.gz
  cutoffs: 1.25(comp), 2.35(filt), 2.19(core), lmax=2
  valence states:
                energy  radius
    5s(1.00)    -4.277   1.286
    4p(6.00)   -58.523   1.328
    5p(0.00)    -0.755   1.328
    4d(10.00)    -7.386   1.180
    *s          22.934   1.286
    *d          19.826   1.180

  Using partial waves for Ag as LCAO basis

Pt-setup:
  name: Platinum
  id: f04f522592575c47ad794f6b4a415b4b
  Z: 78
  valence: 16
  core: 62
  charge: 0.0
  file: /software/kemi/gpaw-setups/0.9.20000/Pt.RPBE.gz
  cutoffs: 1.29(comp), 2.26(filt), 2.26(core), lmax=2
  valence states:
                energy  radius
    6s(1.00)    -5.516   1.307
    5p(6.00)   -55.971   1.371
    6p(0.00)    -0.856   1.371
    5d(9.00)    -6.087   1.307
    *s          21.695   1.307
    *d          21.125   1.307

  Using partial waves for Pt as LCAO basis

Ru-setup:
  name: Ruthenium
  id: 76477906e28f51dc1b29884d53556fe9
  Z: 44
  valence: 16
  core: 28
  charge: 0.0
  file: /software/kemi/gpaw-setups/0.9.20000/Ru.RPBE.gz
  cutoffs: 1.23(comp), 2.16(filt), 1.30(core), lmax=2
  valence states:
                energy  radius
    4s(2.00)   -76.255   1.281
    5s(1.00)    -4.126   1.281
    4p(6.00)   -46.371   1.286
    5p(0.00)    -0.913   1.286
    4d(7.00)    -5.146   1.254
    *d          22.066   1.254

  Using partial waves for Ru as LCAO basis

O-setup:
  name: Oxygen
  id: 08071ca1eed670e7821b24b7eb4d558c
  Z: 8
  valence: 6
  core: 2
  charge: 0.0
  file: /software/kemi/gpaw-setups/0.9.20000/O.RPBE.gz
  cutoffs: 0.67(comp), 1.17(filt), 0.83(core), lmax=2
  valence states:
                energy  radius
    2s(2.00)   -24.041   0.688
    2p(4.00)    -8.984   0.598
    *s           3.170   0.688
    *p          18.228   0.598
    *d           0.000   0.619

  Using partial waves for O as LCAO basis

Reference energy: -9073453.423555

Spin-paired calculation

Occupation numbers:
  Fermi-Dirac: width=0.1000 eV

Convergence criteria:
  Maximum total energy change: 0.0005 eV / electron
  Maximum integral of absolute density change: 0.0001 electrons
  Maximum integral of absolute eigenstate change: 4e-08 eV^2
  Maximum number of iterations: 333

Symmetries present (total): 1

  ( 1  0  0)
  ( 0  1  0)
  ( 0  0  1)

16 k-points: 4 x 4 x 1 Monkhorst-Pack grid
8 k-points in the irreducible part of the Brillouin zone
       k-points in crystal coordinates                weights
   0:     0.12500000   -0.37500000    0.00000000          2/16
   1:     0.12500000   -0.12500000    0.00000000          2/16
   2:     0.12500000    0.12500000    0.00000000          2/16
   3:     0.12500000    0.37500000    0.00000000          2/16
   4:     0.37500000   -0.37500000    0.00000000          2/16
   5:     0.37500000   -0.12500000    0.00000000          2/16
   6:     0.37500000    0.12500000    0.00000000          2/16
   7:     0.37500000    0.37500000    0.00000000          2/16

Wave functions: Plane wave expansion
  Cutoff energy: 400.000 eV
  Number of coefficients (min, max): 32266, 32339
  Pulay-stress correction: 0.000000 eV/Ang^3 (de/decut=0.000000)
  Using FFTW library
  ScaLapack parameters: grid=1x1, blocksize=None
  Wavefunction extrapolation:
    Improved wavefunction reuse through dual PAW basis 

Eigensolver
   Davidson(niter=2, smin=None, normalize=True) 

Densities:
  Coarse grid: 35*35*135 grid
  Fine grid: 70*70*270 grid
  Total Charge: 0.000000 

Density mixing:
  Method: separate
  Backend: pulay
  Linear mixing parameter: 0.05
  Mixing with 5 old densities
  Damping of long wave oscillations: 50 

Hamiltonian:
  XC and Coulomb potentials evaluated on a 70*70*270 grid
  Using the RPBE Exchange-Correlation functional
 

XC parameters: RPBE with 2 nearest neighbor stencil

Memory estimate:
  Process memory now: 150.44 MiB
  Calculator: 548.11 MiB
    Density: 48.38 MiB
      Arrays: 16.41 MiB
      Localized functions: 25.61 MiB
      Mixer: 6.36 MiB
    Hamiltonian: 11.51 MiB
      Arrays: 10.73 MiB
      XC: 0.00 MiB
      Poisson: 0.00 MiB
      vbar: 0.78 MiB
    Wavefunctions: 488.23 MiB
      Arrays psit_nG: 220.57 MiB
      Eigensolver: 253.54 MiB
      Projections: 2.81 MiB
      Projectors: 4.69 MiB
      PW-descriptor: 6.62 MiB

Total number of cores used: 16
Parallelization over k-points: 8
Domain decomposition: 1 x 1 x 2

Number of atoms: 46
Number of atomic orbitals: 551
Number of bands in calculation: 447
Bands to converge: occupied states only
Number of valence electrons: 738

... initialized

Initializing position-dependent things.

Density initialized from atomic densities
Creating initial wave functions:
  447 bands from LCAO basis set

                                             
                                             
                                             
                                             
                                             
                                             
                O        Pd                  
                 Pt            Ru            
            Pt    APd    PPd    Ru           
                                             
        Pd    Ru     Pd    Pt                
                                             
        Pt     Pd    PPd    Pd     Ag        
                Ag     Ag     Ag             
                                             
           Ag    PAg    APt    Pd            
                                             
            Pd     Ru     Ag     Pd          
       Ag     Ru     Ru                      
             Pd     Pd     Pt                
        Pd     Ag     Pt                     
                                             
                                             
                                             
                                             
                                             

Positions:
   0 Pd     0.000000    1.633958   10.000000    ( 0.0000,  0.0000,  0.0000)
   1 Ag     2.830098    1.633958   10.000000    ( 0.0000,  0.0000,  0.0000)
   2 Pt     5.660196    1.633958   10.000000    ( 0.0000,  0.0000,  0.0000)
   3 Pd     1.415049    4.084895   10.000000    ( 0.0000,  0.0000,  0.0000)
   4 Pd     4.245147    4.084895   10.000000    ( 0.0000,  0.0000,  0.0000)
   5 Pt     7.075245    4.084895   10.000000    ( 0.0000,  0.0000,  0.0000)
   6 Pd     2.830098    6.535832   10.000000    ( 0.0000,  0.0000,  0.0000)
   7 Ag     5.660196    6.535832   10.000000    ( 0.0000,  0.0000,  0.0000)
   8 Pd     8.490294    6.535832   10.000000    ( 0.0000,  0.0000,  0.0000)
   9 Ag     0.000000    0.000000   12.310765    ( 0.0000,  0.0000,  0.0000)
  10 Ru     2.830098    0.000000   12.310765    ( 0.0000,  0.0000,  0.0000)
  11 Ru     5.660196    0.000000   12.310765    ( 0.0000,  0.0000,  0.0000)
  12 Pd     1.415049    2.450937   12.310765    ( 0.0000,  0.0000,  0.0000)
  13 Ru     4.245147    2.450937   12.310765    ( 0.0000,  0.0000,  0.0000)
  14 Ag     7.075245    2.450937   12.310765    ( 0.0000,  0.0000,  0.0000)
  15 Pd     2.830098    4.901874   12.310765    ( 0.0000,  0.0000,  0.0000)
  16 Ag     5.660196    4.901874   12.310765    ( 0.0000,  0.0000,  0.0000)
  17 Pd     8.490294    4.901874   12.310765    ( 0.0000,  0.0000,  0.0000)
  18 Ag     1.422839    0.836358   14.687202    ( 0.0000,  0.0000,  0.0000)
  19 Ag     4.228290    0.834029   14.668537    ( 0.0000,  0.0000,  0.0000)
  20 Pt     7.000876    0.833422   14.677349    ( 0.0000,  0.0000,  0.0000)
  21 Ag     2.849410    3.275055   14.697646    ( 0.0000,  0.0000,  0.0000)
  22 Ag     5.607020    3.276035   14.715763    ( 0.0000,  0.0000,  0.0000)
  23 Ag     8.407636    3.278571   14.701685    ( 0.0000,  0.0000,  0.0000)
  24 Pd     4.226650    5.664441   14.783889    ( 0.0000,  0.0000,  0.0000)
  25 Pd     7.021524    5.717496   14.695770    ( 0.0000,  0.0000,  0.0000)
  26 Ag     9.810161    5.688371   14.690489    ( 0.0000,  0.0000,  0.0000)
  27 Pt     0.030364    1.654579   17.054310    ( 0.0000,  0.0000,  0.0000)
  28 Pd     2.863636    1.668211   17.080253    ( 0.0000,  0.0000,  0.0000)
  29 Pd     5.584811    1.668389   17.077768    ( 0.0000,  0.0000,  0.0000)
  30 Pd     1.451673    4.084780   17.054426    ( 0.0000,  0.0000,  0.0000)
  31 Ru     4.287216    4.070209   17.299465    ( 0.0000,  0.0000,  0.0000)
  32 Pt     6.976254    4.091014   17.095978    ( 0.0000,  0.0000,  0.0000)
  33 Ag     2.791829    6.501265   17.070936    ( 0.0000,  0.0000,  0.0000)
  34 Pt     5.617052    6.449501   17.092744    ( 0.0000,  0.0000,  0.0000)
  35 Ru     8.289070    6.444709   17.186717    ( 0.0000,  0.0000,  0.0000)
  36 Pd     0.109969    0.038419   19.432145    ( 0.0000,  0.0000,  0.0000)
  37 Ru     2.913932   -0.060119   19.211827    ( 0.0000,  0.0000,  0.0000)
  38 Pd     5.607656    0.003198   19.432032    ( 0.0000,  0.0000,  0.0000)
  39 Pt     1.441354    2.458850   19.369405    ( 0.0000,  0.0000,  0.0000)
  40 Pd     4.211433    2.427374   19.463642    ( 0.0000,  0.0000,  0.0000)
  41 Pd     7.082631    2.483306   19.414916    ( 0.0000,  0.0000,  0.0000)
  42 Pt     2.814800    4.836018   19.384744    ( 0.0000,  0.0000,  0.0000)
  43 Pd     5.686541    4.887569   19.522731    ( 0.0000,  0.0000,  0.0000)
  44 Ru     8.428363    4.985817   19.203811    ( 0.0000,  0.0000,  0.0000)
  45 O      2.822529    3.240747   20.822731    ( 0.0000,  0.0000,  0.0000)

Unit cell:
           periodic     x           y           z      points  spacing
  1. axis:    yes    8.379498    0.000000    0.000000    35     0.2073
  2. axis:    yes    4.189749    7.256858    0.000000    35     0.2073
  3. axis:    no     0.000000    0.000000   29.243062   135     0.2166

  Lengths:   8.379498   8.379498  29.243062
  Angles:   90.000000  90.000000  60.000000

Effective grid spacing dv^(1/3) = 0.2207

                     log10-error:    total        iterations:
           time      wfs    density  energy       fermi  poisson
iter:   1  01:07:31  +0.49   +inf  -237.769396    3             
iter:   2  01:08:48  -1.06  -1.21  -209.006622    3             
iter:   3  01:10:03  -1.39  -1.32  -226.403989    36            
iter:   4  01:11:04  -1.29  -1.28  -263.583576    36            
iter:   5  01:12:01  -1.53  -1.21  -192.631587    36            
iter:   6  01:12:59  -1.90  -1.49  -186.527002    34            
iter:   7  01:14:31  -2.24  -1.63  -186.259120    4             
iter:   8  01:16:05  -2.38  -1.66  -184.062895    3             
iter:   9  01:17:39  -2.11  -1.80  -184.625392    3             
iter:  10  01:19:12  -2.55  -1.87  -182.172609    35            
iter:  11  01:20:46  -3.10  -2.06  -182.668112    4             
iter:  12  01:22:20  -3.32  -2.02  -182.052548    3             
iter:  13  01:23:52  -3.36  -2.11  -181.696837    3             
iter:  14  01:25:09  -3.30  -2.22  -181.628960    3             
iter:  15  01:26:26  -3.28  -2.29  -181.676963    3             
iter:  16  01:27:43  -3.33  -2.33  -181.777602    3             
iter:  17  01:29:00  -3.60  -2.30  -181.305865    3             
iter:  18  01:30:17  -3.71  -2.71  -181.282405    2             
iter:  19  01:31:34  -4.34  -2.83  -181.282375    2             
iter:  20  01:32:51  -4.05  -2.89  -181.252910    2             
iter:  21  01:34:10  -4.76  -3.09  -181.254891    2             
iter:  22  01:35:27  -5.04  -3.14  -181.251901    2             
iter:  23  01:36:44  -5.34  -3.21  -181.251632    2             
iter:  24  01:38:00  -5.87  -3.22  -181.250259    2             
iter:  25  01:39:17  -5.48  -3.28  -181.255647    2             
iter:  26  01:40:38  -5.47  -3.34  -181.253415    2             
iter:  27  01:41:55  -5.76  -3.30  -181.251950    2             
iter:  28  01:43:13  -6.11  -3.52  -181.252212    2             
iter:  29  01:44:30  -6.01  -3.63  -181.252403    2             
iter:  30  01:45:47  -5.92  -3.80  -181.251008    2             
iter:  31  01:47:05  -6.27  -3.88  -181.253679    2             
iter:  32  01:48:22  -6.92  -3.70  -181.252514    2             
iter:  33  01:49:39  -6.52  -4.02  -181.251704    2             
iter:  34  01:50:56  -6.74  -4.14  -181.251731    2             
iter:  35  01:52:19  -7.20  -4.25  -181.251668    2             
iter:  36  01:53:36  -7.48  -4.35  -181.251524    2             

Converged after 36 iterations.

Dipole moment: (23.940862, 21.688037, -0.258506) |e|*Ang

Energy contributions relative to reference atoms: (reference = -9073453.423555)

Kinetic:       -170.631244
Potential:      +25.703629
External:        +0.000000
XC:             -30.899551
Entropy (-ST):   -2.057467
Local:           -4.395624
--------------------------
Free energy:   -182.280257
Extrapolated:  -181.251524

Fermi level: 0.81662

Showing only first 2 kpts
 Kpt  Band  Eigenvalues  Occupancy
  0   367      0.80309    0.13344
  0   368      0.85391    0.10196
  0   369      0.86642    0.09450
  0   370      0.90775    0.07168

  1   367      0.71314    0.18446
  1   368      0.73820    0.17165
  1   369      0.76758    0.15505
  1   370      0.78620    0.14387



Forces in eV/Ang:
  0 Pd    0.09562    0.51019   -0.41788
  1 Ag    0.10423    0.49047   -0.51444
  2 Pt   -0.22712    0.50994    0.84070
  3 Pd    0.09239    0.03430   -0.07552
  4 Pd    0.11307   -0.37217    0.20049
  5 Pt   -0.13230   -0.28627   -0.08575
  6 Pd   -0.16594   -0.38601   -0.05607
  7 Ag   -0.12718   -0.45751   -0.71484
  8 Pd   -0.22051   -0.29987    0.31853
  9 Ag    0.52527    0.21012    0.43081
 10 Ru    2.19825    1.28671    0.41274
 11 Ru   -1.88788    0.85581   -0.43577
 12 Pd    1.11891   -0.24383   -0.00278
 13 Ru   -0.54124   -1.47030   -0.88746
 14 Ag   -0.44062    0.13768    0.28938
 15 Pd    0.18962   -0.59402    0.07448
 16 Ag   -0.18453   -0.38153    0.34331
 17 Pd   -0.37402    0.53126   -0.01446
 18 Ag   -0.01388    0.00108   -0.00067
 19 Ag   -0.01198    0.00129    0.03282
 20 Pt   -0.04320   -0.07840   -0.13095
 21 Ag   -0.00168    0.00055    0.04822
 22 Ag    0.00951   -0.01760    0.01001
 23 Ag   -0.00594    0.00006    0.01731
 24 Pd    0.00466    0.02445    0.02299
 25 Pd    0.04052    0.02763    0.02712
 26 Ag   -0.00752   -0.00741    0.02597
 27 Pt    0.15085    0.11639    0.37483
 28 Pd   -0.00607   -0.05949   -0.14057
 29 Pd   -0.02897   -0.01003    0.18252
 30 Pd   -0.01213    0.03383   -0.11934
 31 Ru    0.14807    0.15665   -0.59870
 32 Pt    0.00691   -0.01665    0.00706
 33 Ag    0.01501   -0.03269    0.13348
 34 Pt    0.01866    0.00116   -0.04247
 35 Ru    0.00744    0.01503    0.05767
 36 Pd   -0.00611    0.02096   -0.06632
 37 Ru   -0.00447   -0.30395    0.00174
 38 Pd    0.04457    0.01424   -0.01398
 39 Pt   -0.25284   -0.28217    0.62091
 40 Pd    0.46673   -0.23809    0.10952
 41 Pd   -0.02247   -0.05364   -0.07530
 42 Pt    0.13321    0.14409    0.59429
 43 Pd    0.17334    0.09654   -0.06819
 44 Ru   -0.36302    0.19821   -0.02343
 45 O    -0.51413    0.26601   -0.89892

System changes: positions 

Initializing position-dependent things.

Density initialized from wave functions
                                             
                                             
                                             
                                             
                                             
                                             
                OPt      Pd                  
                               Ru            
            Pt    APd    PPd    Ru           
                                             
        Pd    Ru     Pd    Pt                
         Pt    Pd     Pd                     
                     Pd     Pd     Ag        
                Ag     Ag     Ag             
                                             
           Ag    PAg    APt    Pd            
                                             
            Pd     Ru     Ag     Pd          
       Ag    PRu    PRu    Pt                
                                             
        Pd     Ag     Pt                     
                                             
                                             
                                             
                                             
                                             

Positions:
   0 Pd     0.000000    1.633958   10.000000    ( 0.0000,  0.0000,  0.0000)
   1 Ag     2.830098    1.633958   10.000000    ( 0.0000,  0.0000,  0.0000)
   2 Pt     5.660196    1.633958   10.000000    ( 0.0000,  0.0000,  0.0000)
   3 Pd     1.415049    4.084895   10.000000    ( 0.0000,  0.0000,  0.0000)
   4 Pd     4.245147    4.084895   10.000000    ( 0.0000,  0.0000,  0.0000)
   5 Pt     7.075245    4.084895   10.000000    ( 0.0000,  0.0000,  0.0000)
   6 Pd     2.830098    6.535832   10.000000    ( 0.0000,  0.0000,  0.0000)
   7 Ag     5.660196    6.535832   10.000000    ( 0.0000,  0.0000,  0.0000)
   8 Pd     8.490294    6.535832   10.000000    ( 0.0000,  0.0000,  0.0000)
   9 Ag     0.000000    0.000000   12.310765    ( 0.0000,  0.0000,  0.0000)
  10 Ru     2.830098    0.000000   12.310765    ( 0.0000,  0.0000,  0.0000)
  11 Ru     5.660196    0.000000   12.310765    ( 0.0000,  0.0000,  0.0000)
  12 Pd     1.415049    2.450937   12.310765    ( 0.0000,  0.0000,  0.0000)
  13 Ru     4.245147    2.450937   12.310765    ( 0.0000,  0.0000,  0.0000)
  14 Ag     7.075245    2.450937   12.310765    ( 0.0000,  0.0000,  0.0000)
  15 Pd     2.830098    4.901874   12.310765    ( 0.0000,  0.0000,  0.0000)
  16 Ag     5.660196    4.901874   12.310765    ( 0.0000,  0.0000,  0.0000)
  17 Pd     8.490294    4.901874   12.310765    ( 0.0000,  0.0000,  0.0000)
  18 Ag     1.421451    0.836467   14.687135    ( 0.0000,  0.0000,  0.0000)
  19 Ag     4.227092    0.834157   14.671819    ( 0.0000,  0.0000,  0.0000)
  20 Pt     6.996556    0.825582   14.664253    ( 0.0000,  0.0000,  0.0000)
  21 Ag     2.849242    3.275109   14.702469    ( 0.0000,  0.0000,  0.0000)
  22 Ag     5.607970    3.274275   14.716764    ( 0.0000,  0.0000,  0.0000)
  23 Ag     8.407042    3.278577   14.703416    ( 0.0000,  0.0000,  0.0000)
  24 Pd     4.227116    5.666885   14.786188    ( 0.0000,  0.0000,  0.0000)
  25 Pd     7.025577    5.720259   14.698483    ( 0.0000,  0.0000,  0.0000)
  26 Ag     9.809409    5.687630   14.693086    ( 0.0000,  0.0000,  0.0000)
  27 Pt     0.045449    1.666218   17.091793    ( 0.0000,  0.0000,  0.0000)
  28 Pd     2.863029    1.662262   17.066195    ( 0.0000,  0.0000,  0.0000)
  29 Pd     5.581914    1.667386   17.096020    ( 0.0000,  0.0000,  0.0000)
  30 Pd     1.450460    4.088163   17.042492    ( 0.0000,  0.0000,  0.0000)
  31 Ru     4.302023    4.085873   17.239594    ( 0.0000,  0.0000,  0.0000)
  32 Pt     6.976945    4.089349   17.096684    ( 0.0000,  0.0000,  0.0000)
  33 Ag     2.793331    6.497996   17.084284    ( 0.0000,  0.0000,  0.0000)
  34 Pt     5.618918    6.449617   17.088497    ( 0.0000,  0.0000,  0.0000)
  35 Ru     8.289814    6.446212   17.192484    ( 0.0000,  0.0000,  0.0000)
  36 Pd     0.109358    0.040515   19.425513    ( 0.0000,  0.0000,  0.0000)
  37 Ru     2.913485   -0.090514   19.212001    ( 0.0000,  0.0000,  0.0000)
  38 Pd     5.612113    0.004623   19.430634    ( 0.0000,  0.0000,  0.0000)
  39 Pt     1.416070    2.430633   19.431496    ( 0.0000,  0.0000,  0.0000)
  40 Pd     4.258105    2.403565   19.474594    ( 0.0000,  0.0000,  0.0000)
  41 Pd     7.080384    2.477941   19.407385    ( 0.0000,  0.0000,  0.0000)
  42 Pt     2.828120    4.850427   19.444173    ( 0.0000,  0.0000,  0.0000)
  43 Pd     5.703874    4.897223   19.515912    ( 0.0000,  0.0000,  0.0000)
  44 Ru     8.392061    5.005638   19.201469    ( 0.0000,  0.0000,  0.0000)
  45 O      2.771116    3.267348   20.732840    ( 0.0000,  0.0000,  0.0000)

Unit cell:
           periodic     x           y           z      points  spacing
  1. axis:    yes    8.379498    0.000000    0.000000    35     0.2073
  2. axis:    yes    4.189749    7.256858    0.000000    35     0.2073
  3. axis:    no     0.000000    0.000000   29.243062   135     0.2166

  Lengths:   8.379498   8.379498  29.243062
  Angles:   90.000000  90.000000  60.000000

Effective grid spacing dv^(1/3) = 0.2207

                     log10-error:    total        iterations:
           time      wfs    density  energy       fermi  poisson
iter:   1  01:55:27  -1.99   +inf  -183.466847    4             
iter:   2  01:56:43  -1.90  -2.07  -218.446571    35            
iter:   3  01:58:00  -2.04  -1.51  -186.443372    37            
iter:   4  01:59:17  -3.23  -1.91  -182.582877    3             
iter:   5  02:00:34  -3.51  -2.28  -181.848947    3             
iter:   6  02:01:38  -3.56  -2.47  -181.583340    3             
iter:   7  02:02:39  -4.24  -2.61  -181.510038    3             
iter:   8  02:04:03  -4.16  -2.81  -181.460452    2             
iter:   9  02:05:27  -4.87  -2.90  -181.485878    2             
iter:  10  02:06:41  -4.46  -2.84  -181.458385    3             
iter:  11  02:07:57  -4.81  -2.97  -181.458173    3             
iter:  12  02:09:13  -4.57  -2.91  -181.442855    3             
iter:  13  02:10:30  -5.05  -3.10  -181.435145    2             
iter:  14  02:11:44  -5.71  -3.35  -181.433702    2             
iter:  15  02:13:01  -5.46  -3.38  -181.432429    2             
iter:  16  02:14:16  -5.97  -3.64  -181.432804    2             
iter:  17  02:15:13  -5.72  -3.64  -181.432921    2             
iter:  18  02:16:37  -6.02  -3.75  -181.431852    2             
iter:  19  02:18:11  -6.26  -3.68  -181.434198    2             
iter:  20  02:19:44  -6.48  -3.67  -181.432169    2             
iter:  21  02:21:18  -6.81  -3.74  -181.431927    2             
iter:  22  02:22:51  -6.80  -3.84  -181.432491    2             
iter:  23  02:24:25  -6.90  -4.00  -181.431886    2             
iter:  24  02:25:58  -6.91  -4.00  -181.431691    2             
iter:  25  02:27:32  -7.23  -3.98  -181.432045    2             
iter:  26  02:29:05  -7.16  -4.25  -181.432169    2             
iter:  27  02:30:39  -7.16  -4.31  -181.431690    2             
iter:  28  02:32:12  -6.88  -4.28  -181.432155    2             
iter:  29  02:33:46  -7.71  -4.33  -181.432101    2             

Converged after 29 iterations.

Dipole moment: (24.487851, 22.728386, -0.210251) |e|*Ang

Energy contributions relative to reference atoms: (reference = -9073453.423555)

Kinetic:       -169.860316
Potential:      +25.361046
External:        +0.000000
XC:             -31.470033
Entropy (-ST):   -2.043193
Local:           -4.441201
--------------------------
Free energy:   -182.453698
Extrapolated:  -181.432101

Fermi level: 0.84303

Showing only first 2 kpts
 Kpt  Band  Eigenvalues  Occupancy
  0   367      0.83301    0.13126
  0   368      0.87266    0.10662
  0   369      0.89233    0.09480
  0   370      0.93319    0.07218

  1   367      0.73573    0.18629
  1   368      0.76385    0.17206
  1   369      0.78941    0.15773
  1   370      0.81006    0.14542



Forces in eV/Ang:
  0 Pd    0.09754    0.50708   -0.41861
  1 Ag    0.09913    0.49238   -0.51695
  2 Pt   -0.22973    0.51110    0.83498
  3 Pd    0.09440    0.03274   -0.07724
  4 Pd    0.10984   -0.36836    0.20499
  5 Pt   -0.13074   -0.28650   -0.08268
  6 Pd   -0.16361   -0.38850   -0.05361
  7 Ag   -0.12954   -0.45483   -0.70931
  8 Pd   -0.21603   -0.29692    0.31863
  9 Ag    0.54270    0.20462    0.41465
 10 Ru    2.19486    1.28198    0.42016
 11 Ru   -1.89279    0.85262   -0.40873
 12 Pd    1.11791   -0.24281    0.01604
 13 Ru   -0.54533   -1.46734   -0.87732
 14 Ag   -0.43303    0.15437    0.28526
 15 Pd    0.19814   -0.60048    0.08581
 16 Ag   -0.17990   -0.37759    0.35707
 17 Pd   -0.37916    0.53008   -0.00572
 18 Ag   -0.05884    0.02167    0.02414
 19 Ag    0.00900    0.00908    0.02102
 20 Pt   -0.00258   -0.00830   -0.00831
 21 Ag    0.00640    0.00689   -0.01487
 22 Ag    0.02641   -0.04402   -0.01534
 23 Ag   -0.02498   -0.06326    0.03227
 24 Pd   -0.00682    0.01034    0.00190
 25 Pd    0.01530    0.00328   -0.01044
 26 Ag    0.00116   -0.00521    0.01668
 27 Pt    0.07852    0.02418    0.10243
 28 Pd   -0.02462    0.05756    0.09422
 29 Pd    0.04522   -0.03327    0.03251
 30 Pd    0.08530   -0.00641    0.18112
 31 Ru   -0.11534    0.03432   -0.11522
 32 Pt    0.05624   -0.03054   -0.05374
 33 Ag    0.03923    0.01836    0.08378
 34 Pt   -0.00696    0.05563   -0.07807
 35 Ru    0.09087    0.04731   -0.18292
 36 Pd   -0.06090   -0.08854    0.00496
 37 Ru   -0.04012    0.03986    0.08514
 38 Pd    0.09971   -0.06390    0.01150
 39 Pt   -0.09586   -0.15523    0.10277
 40 Pd    0.09885   -0.03373   -0.12601
 41 Pd   -0.03434   -0.04401    0.01932
 42 Pt    0.07336    0.23004   -0.06773
 43 Pd   -0.05464   -0.03752   -0.06692
 44 Ru   -0.04361   -0.04837    0.07827
 45 O    -0.28790    0.08791    0.26552

System changes: positions 

Initializing position-dependent things.

Density initialized from wave functions
                                             
                                             
                                             
                                             
                                             
                                             
                O Pt     Pd                  
                               Ru            
            Pt    APd    PPd    Ru           
                                             
        Pd    Ru     Pd    Pt                
         Pt    Pd     Pd                     
                     Pd     Pd     Ag        
                Ag     Ag     Ag             
                                             
           Ag    PAg    APt    Pd            
                                             
            Pd     Ru     Ag     Pd          
       Ag    PRu    PRu    Pt                
                                             
        Pd     Ag     Pt                     
                                             
                                             
                                             
                                             
                                             

Positions:
   0 Pd     0.000000    1.633958   10.000000    ( 0.0000,  0.0000,  0.0000)
   1 Ag     2.830098    1.633958   10.000000    ( 0.0000,  0.0000,  0.0000)
   2 Pt     5.660196    1.633958   10.000000    ( 0.0000,  0.0000,  0.0000)
   3 Pd     1.415049    4.084895   10.000000    ( 0.0000,  0.0000,  0.0000)
   4 Pd     4.245147    4.084895   10.000000    ( 0.0000,  0.0000,  0.0000)
   5 Pt     7.075245    4.084895   10.000000    ( 0.0000,  0.0000,  0.0000)
   6 Pd     2.830098    6.535832   10.000000    ( 0.0000,  0.0000,  0.0000)
   7 Ag     5.660196    6.535832   10.000000    ( 0.0000,  0.0000,  0.0000)
   8 Pd     8.490294    6.535832   10.000000    ( 0.0000,  0.0000,  0.0000)
   9 Ag     0.000000    0.000000   12.310765    ( 0.0000,  0.0000,  0.0000)
  10 Ru     2.830098    0.000000   12.310765    ( 0.0000,  0.0000,  0.0000)
  11 Ru     5.660196    0.000000   12.310765    ( 0.0000,  0.0000,  0.0000)
  12 Pd     1.415049    2.450937   12.310765    ( 0.0000,  0.0000,  0.0000)
  13 Ru     4.245147    2.450937   12.310765    ( 0.0000,  0.0000,  0.0000)
  14 Ag     7.075245    2.450937   12.310765    ( 0.0000,  0.0000,  0.0000)
  15 Pd     2.830098    4.901874   12.310765    ( 0.0000,  0.0000,  0.0000)
  16 Ag     5.660196    4.901874   12.310765    ( 0.0000,  0.0000,  0.0000)
  17 Pd     8.490294    4.901874   12.310765    ( 0.0000,  0.0000,  0.0000)
  18 Ag     1.414991    0.838776   14.689675    ( 0.0000,  0.0000,  0.0000)
  19 Ag     4.227834    0.835140   14.674614    ( 0.0000,  0.0000,  0.0000)
  20 Pt     6.995529    0.823337   14.661089    ( 0.0000,  0.0000,  0.0000)
  21 Ag     2.849889    3.275847   14.701740    ( 0.0000,  0.0000,  0.0000)
  22 Ag     5.610927    3.269316   14.715317    ( 0.0000,  0.0000,  0.0000)
  23 Ag     8.404299    3.271894   14.707128    ( 0.0000,  0.0000,  0.0000)
  24 Pd     4.226476    5.668405   14.786791    ( 0.0000,  0.0000,  0.0000)
  25 Pd     7.027901    5.721089   14.697853    ( 0.0000,  0.0000,  0.0000)
  26 Ag     9.809401    5.686950   14.695302    ( 0.0000,  0.0000,  0.0000)
  27 Pt     0.056380    1.670804   17.109160    ( 0.0000,  0.0000,  0.0000)
  28 Pd     2.860321    1.667306   17.073697    ( 0.0000,  0.0000,  0.0000)
  29 Pd     5.586187    1.663695   17.102641    ( 0.0000,  0.0000,  0.0000)
  30 Pd     1.459263    4.088076   17.059548    ( 0.0000,  0.0000,  0.0000)
  31 Ru     4.292420    4.092235   17.216968    ( 0.0000,  0.0000,  0.0000)
  32 Pt     6.983009    4.085831   17.091129    ( 0.0000,  0.0000,  0.0000)
  33 Ag     2.797738    6.499366   17.095467    ( 0.0000,  0.0000,  0.0000)
  34 Pt     5.618508    6.455516   17.079506    ( 0.0000,  0.0000,  0.0000)
  35 Ru     8.299546    6.451474   17.174161    ( 0.0000,  0.0000,  0.0000)
  36 Pd     0.102816    0.031525   19.424880    ( 0.0000,  0.0000,  0.0000)
  37 Ru     2.909167   -0.091608   19.221028    ( 0.0000,  0.0000,  0.0000)
  38 Pd     5.623427   -0.001881   19.431605    ( 0.0000,  0.0000,  0.0000)
  39 Pt     1.401526    2.409304   19.453194    ( 0.0000,  0.0000,  0.0000)
  40 Pd     4.276698    2.395845   19.463191    ( 0.0000,  0.0000,  0.0000)
  41 Pd     7.076363    2.472354   19.408113    ( 0.0000,  0.0000,  0.0000)
  42 Pt     2.838198    4.877250   19.447390    ( 0.0000,  0.0000,  0.0000)
  43 Pd     5.701127    4.894943   19.507650    ( 0.0000,  0.0000,  0.0000)
  44 Ru     8.381116    5.003987   19.209330    ( 0.0000,  0.0000,  0.0000)
  45 O      2.731719    3.281281   20.745206    ( 0.0000,  0.0000,  0.0000)

Unit cell:
           periodic     x           y           z      points  spacing
  1. axis:    yes    8.379498    0.000000    0.000000    35     0.2073
  2. axis:    yes    4.189749    7.256858    0.000000    35     0.2073
  3. axis:    no     0.000000    0.000000   29.243062   135     0.2166

  Lengths:   8.379498   8.379498  29.243062
  Angles:   90.000000  90.000000  60.000000

Effective grid spacing dv^(1/3) = 0.2207

                     log10-error:    total        iterations:
           time      wfs    density  energy       fermi  poisson
iter:   1  02:36:00  -2.54   +inf  -182.538950    3             
iter:   2  02:37:33  -1.99  -2.17  -218.426424    36            
iter:   3  02:39:06  -2.26  -1.51  -181.687020    34            
iter:   4  02:40:30  -3.35  -2.60  -181.490930    3             
iter:   5  02:41:55  -4.28  -2.87  -181.490664    3             
iter:   6  02:43:19  -4.68  -2.95  -181.464094    2             
iter:   7  02:44:36  -5.01  -3.10  -181.461050    2             
iter:   8  02:45:53  -4.78  -3.14  -181.520851    2             
iter:   9  02:47:09  -4.84  -2.80  -181.459092    2             
iter:  10  02:48:27  -5.04  -3.40  -181.453802    2             
iter:  11  02:49:43  -5.51  -3.58  -181.454336    2             
iter:  12  02:50:59  -5.86  -3.63  -181.454229    2             
iter:  13  02:52:16  -6.01  -3.70  -181.452550    2             
iter:  14  02:53:33  -5.66  -3.66  -181.453244    2             
iter:  15  02:54:49  -6.48  -3.92  -181.453750    2             
iter:  16  02:56:06  -6.61  -3.95  -181.452681    2             
iter:  17  02:57:23  -6.93  -3.91  -181.452782    2             
iter:  18  02:58:40  -6.98  -4.15  -181.453177    2             
iter:  19  02:59:58  -7.11  -4.23  -181.452765    2             
iter:  20  03:01:15  -7.24  -4.18  -181.452814    2             
iter:  21  03:02:33  -7.15  -4.36  -181.453231    2             
iter:  22  03:03:49  -7.51  -4.34  -181.453061    2             

Converged after 22 iterations.

Dipole moment: (25.233702, 23.618348, -0.224708) |e|*Ang

Energy contributions relative to reference atoms: (reference = -9073453.423555)

Kinetic:       -173.711894
Potential:      +28.536978
External:        +0.000000
XC:             -30.823245
Entropy (-ST):   -2.056247
Local:           -4.426776
--------------------------
Free energy:   -182.481185
Extrapolated:  -181.453061

Fermi level: 0.83426

Showing only first 2 kpts
 Kpt  Band  Eigenvalues  Occupancy
  0   367      0.82694    0.12957
  0   368      0.86348    0.10687
  0   369      0.88559    0.09361
  0   370      0.92738    0.07067

  1   367      0.73223    0.18376
  1   368      0.75447    0.17238
  1   369      0.78325    0.15621
  1   370      0.80296    0.14441



Forces in eV/Ang:
  0 Pd    0.09591    0.50968   -0.41989
  1 Ag    0.10041    0.49304   -0.51621
  2 Pt   -0.22973    0.50893    0.83572
  3 Pd    0.09396    0.03306   -0.07931
  4 Pd    0.10940   -0.36720    0.20245
  5 Pt   -0.12771   -0.28878   -0.08626
  6 Pd   -0.16474   -0.38871   -0.05579
  7 Ag   -0.13024   -0.45487   -0.70948
  8 Pd   -0.21044   -0.29714    0.31899
  9 Ag    0.54632    0.20368    0.40250
 10 Ru    2.18519    1.28376    0.42857
 11 Ru   -1.88992    0.85121   -0.40599
 12 Pd    1.11539   -0.24047    0.01891
 13 Ru   -0.54568   -1.46559   -0.87739
 14 Ag   -0.43059    0.15711    0.27232
 15 Pd    0.19787   -0.59898    0.08630
 16 Ag   -0.18188   -0.37946    0.36275
 17 Pd   -0.37619    0.52380    0.00083
 18 Ag    0.00509    0.01286    0.01705
 19 Ag   -0.02404    0.01347    0.01618
 20 Pt   -0.01242   -0.02112    0.04262
 21 Ag   -0.01514   -0.00018   -0.00659
 22 Ag    0.00009   -0.00904   -0.01164
 23 Ag    0.02336   -0.00832    0.04542
 24 Pd   -0.00168   -0.01177   -0.01421
 25 Pd   -0.00193    0.00207   -0.02351
 26 Ag    0.00624   -0.03887    0.03372
 27 Pt   -0.00085   -0.00942   -0.00910
 28 Pd    0.02843    0.03494    0.09470
 29 Pd    0.03698   -0.01134   -0.04889
 30 Pd    0.06148    0.00849    0.15889
 31 Ru   -0.04630   -0.01320    0.03451
 32 Pt    0.01446    0.05496   -0.00306
 33 Ag    0.03669    0.06691   -0.05597
 34 Pt    0.09798   -0.01098   -0.00148
 35 Ru   -0.06409   -0.01890    0.14474
 36 Pd   -0.02386   -0.07606    0.05376
 37 Ru    0.07467   -0.01448   -0.11511
 38 Pd   -0.03050   -0.04875    0.03745
 39 Pt    0.16050    0.05278    0.14938
 40 Pd   -0.25337    0.15543    0.04025
 41 Pd   -0.01877   -0.00532    0.06494
 42 Pt    0.01489   -0.21648    0.05965
 43 Pd   -0.07023   -0.05658   -0.08858
 44 Ru    0.00233    0.05581   -0.07059
 45 O    -0.16413    0.03734   -0.10284

System changes: positions 

Initializing position-dependent things.

Density initialized from wave functions
                                             
                                             
                                             
                                             
                                             
                                             
                O Pt     Pd                  
                               Ru            
            Pt    APd    PPd    Ru           
                                             
        Pd    Ru     Pd    Pt                
         Pt    Pd     Pd                     
                     Pd     Pd     Ag        
                Ag     Ag     Ag             
                                             
           Ag    PAg    APt    Pd            
                                             
            Pd     Ru     Ag     Pd          
       Ag    PRu    PRu    Pt                
                                             
        Pd     Ag     Pt                     
                                             
                                             
                                             
                                             
                                             

Positions:
   0 Pd     0.000000    1.633958   10.000000    ( 0.0000,  0.0000,  0.0000)
   1 Ag     2.830098    1.633958   10.000000    ( 0.0000,  0.0000,  0.0000)
   2 Pt     5.660196    1.633958   10.000000    ( 0.0000,  0.0000,  0.0000)
   3 Pd     1.415049    4.084895   10.000000    ( 0.0000,  0.0000,  0.0000)
   4 Pd     4.245147    4.084895   10.000000    ( 0.0000,  0.0000,  0.0000)
   5 Pt     7.075245    4.084895   10.000000    ( 0.0000,  0.0000,  0.0000)
   6 Pd     2.830098    6.535832   10.000000    ( 0.0000,  0.0000,  0.0000)
   7 Ag     5.660196    6.535832   10.000000    ( 0.0000,  0.0000,  0.0000)
   8 Pd     8.490294    6.535832   10.000000    ( 0.0000,  0.0000,  0.0000)
   9 Ag     0.000000    0.000000   12.310765    ( 0.0000,  0.0000,  0.0000)
  10 Ru     2.830098    0.000000   12.310765    ( 0.0000,  0.0000,  0.0000)
  11 Ru     5.660196    0.000000   12.310765    ( 0.0000,  0.0000,  0.0000)
  12 Pd     1.415049    2.450937   12.310765    ( 0.0000,  0.0000,  0.0000)
  13 Ru     4.245147    2.450937   12.310765    ( 0.0000,  0.0000,  0.0000)
  14 Ag     7.075245    2.450937   12.310765    ( 0.0000,  0.0000,  0.0000)
  15 Pd     2.830098    4.901874   12.310765    ( 0.0000,  0.0000,  0.0000)
  16 Ag     5.660196    4.901874   12.310765    ( 0.0000,  0.0000,  0.0000)
  17 Pd     8.490294    4.901874   12.310765    ( 0.0000,  0.0000,  0.0000)
  18 Ag     1.412090    0.841141   14.692541    ( 0.0000,  0.0000,  0.0000)
  19 Ag     4.226078    0.836865   14.677478    ( 0.0000,  0.0000,  0.0000)
  20 Pt     6.993946    0.820392   14.663494    ( 0.0000,  0.0000,  0.0000)
  21 Ag     2.848868    3.276216   14.700682    ( 0.0000,  0.0000,  0.0000)
  22 Ag     5.612468    3.265935   14.713494    ( 0.0000,  0.0000,  0.0000)
  23 Ag     8.404977    3.267644   14.713133    ( 0.0000,  0.0000,  0.0000)
  24 Pd     4.225982    5.668099   14.785787    ( 0.0000,  0.0000,  0.0000)
  25 Pd     7.028876    5.721662   14.695360    ( 0.0000,  0.0000,  0.0000)
  26 Ag     9.809971    5.683106   14.699455    ( 0.0000,  0.0000,  0.0000)
  27 Pt     0.061770    1.672160   17.116797    ( 0.0000,  0.0000,  0.0000)
  28 Pd     2.861474    1.673196   17.086394    ( 0.0000,  0.0000,  0.0000)
  29 Pd     5.591804    1.660758   17.101395    ( 0.0000,  0.0000,  0.0000)
  30 Pd     1.469430    4.088737   17.082993    ( 0.0000,  0.0000,  0.0000)
  31 Ru     4.282968    4.094111   17.209246    ( 0.0000,  0.0000,  0.0000)
  32 Pt     6.987475    4.088966   17.087932    ( 0.0000,  0.0000,  0.0000)
  33 Ag     2.803325    6.506164   17.096056    ( 0.0000,  0.0000,  0.0000)
  34 Pt     5.627085    6.457615   17.074736    ( 0.0000,  0.0000,  0.0000)
  35 Ru     8.298859    6.452503   17.177502    ( 0.0000,  0.0000,  0.0000)
  36 Pd     0.097252    0.019931   19.429502    ( 0.0000,  0.0000,  0.0000)
  37 Ru     2.913638   -0.092967   19.215387    ( 0.0000,  0.0000,  0.0000)
  38 Pd     5.626530   -0.009702   19.435510    ( 0.0000,  0.0000,  0.0000)
  39 Pt     1.408794    2.403368   19.476952    ( 0.0000,  0.0000,  0.0000)
  40 Pd     4.262823    2.406204   19.460656    ( 0.0000,  0.0000,  0.0000)
  41 Pd     7.072605    2.469040   19.414470    ( 0.0000,  0.0000,  0.0000)
  42 Pt     2.844590    4.871557   19.453433    ( 0.0000,  0.0000,  0.0000)
  43 Pd     5.693068    4.888490   19.495462    ( 0.0000,  0.0000,  0.0000)
  44 Ru     8.376213    5.007811   19.207130    ( 0.0000,  0.0000,  0.0000)
  45 O      2.697181    3.291488   20.743953    ( 0.0000,  0.0000,  0.0000)

Unit cell:
           periodic     x           y           z      points  spacing
  1. axis:    yes    8.379498    0.000000    0.000000    35     0.2073
  2. axis:    yes    4.189749    7.256858    0.000000    35     0.2073
  3. axis:    no     0.000000    0.000000   29.243062   135     0.2166

  Lengths:   8.379498   8.379498  29.243062
  Angles:   90.000000  90.000000  60.000000

Effective grid spacing dv^(1/3) = 0.2207

                     log10-error:    total        iterations:
           time      wfs    density  energy       fermi  poisson
iter:   1  03:05:41  -2.80   +inf  -182.354927    3             
iter:   2  03:06:58  -2.12  -2.24  -214.229171    36            
iter:   3  03:08:15  -2.35  -1.52  -182.029944    35            
iter:   4  03:09:34  -3.54  -2.47  -181.546712    3             
iter:   5  03:10:50  -4.26  -2.91  -181.503365    2             
iter:   6  03:12:07  -4.51  -3.13  -181.507233    3             
iter:   7  03:13:24  -5.14  -2.97  -181.489827    2             
iter:   8  03:14:41  -5.06  -3.25  -181.480713    2             
iter:   9  03:15:58  -5.80  -3.25  -181.480052    2             
iter:  10  03:17:22  -5.84  -3.47  -181.477660    2             
iter:  11  03:18:39  -5.34  -3.46  -181.478210    2             
iter:  12  03:19:57  -5.75  -3.35  -181.476399    2             
iter:  13  03:21:13  -6.02  -3.56  -181.477000    2             
iter:  14  03:22:30  -6.63  -3.98  -181.476112    2             
iter:  15  03:23:47  -6.51  -3.93  -181.476897    2             
iter:  16  03:25:04  -6.67  -4.10  -181.476732    2             
iter:  17  03:26:20  -6.86  -4.22  -181.476441    2             
iter:  18  03:27:38  -7.38  -4.37  -181.476352    2             
iter:  19  03:28:53  -7.70  -4.40  -181.476377    2             

Converged after 19 iterations.

Dipole moment: (24.717396, 24.633616, -0.215820) |e|*Ang

Energy contributions relative to reference atoms: (reference = -9073453.423555)

Kinetic:       -171.706291
Potential:      +26.746613
External:        +0.000000
XC:             -31.075567
Entropy (-ST):   -2.050895
Local:           -4.415685
--------------------------
Free energy:   -182.501825
Extrapolated:  -181.476377

Fermi level: 0.83854

Showing only first 2 kpts
 Kpt  Band  Eigenvalues  Occupancy
  0   367      0.83124    0.12956
  0   368      0.86759    0.10697
  0   369      0.89085    0.09304
  0   370      0.93543    0.06877

  1   367      0.73931    0.18239
  1   368      0.75925    0.17212
  1   369      0.78881    0.15546
  1   370      0.80790    0.14400



Forces in eV/Ang:
  0 Pd    0.09595    0.50964   -0.42647
  1 Ag    0.09878    0.49395   -0.51999
  2 Pt   -0.22825    0.50980    0.83245
  3 Pd    0.09427    0.03364   -0.08231
  4 Pd    0.11009   -0.36520    0.20035
  5 Pt   -0.12767   -0.28841   -0.09031
  6 Pd   -0.16311   -0.38977   -0.05980
  7 Ag   -0.13139   -0.45561   -0.71257
  8 Pd   -0.20900   -0.29853    0.31611
  9 Ag    0.54635    0.20598    0.40478
 10 Ru    2.18251    1.28701    0.42678
 11 Ru   -1.88970    0.84608   -0.39277
 12 Pd    1.11336   -0.23837    0.01940
 13 Ru   -0.55107   -1.46473   -0.88287
 14 Ag   -0.42335    0.15656    0.27916
 15 Pd    0.19606   -0.59838    0.08231
 16 Ag   -0.18367   -0.38118    0.35668
 17 Pd   -0.37162    0.51796    0.00556
 18 Ag    0.03369   -0.00603    0.01527
 19 Ag   -0.02587   -0.00185    0.01911
 20 Pt   -0.00836   -0.01270    0.01837
 21 Ag   -0.01671   -0.00634    0.02211
 22 Ag   -0.01258    0.02134   -0.00111
 23 Ag    0.03265    0.02638    0.04577
 24 Pd    0.01635   -0.02053   -0.01515
 25 Pd   -0.00895   -0.00559   -0.02181
 26 Ag   -0.00549   -0.03107    0.04314
 27 Pt   -0.00599    0.01052    0.01060
 28 Pd    0.04171    0.01205    0.01400
 29 Pd   -0.01401    0.04235   -0.00561
 30 Pd    0.01375    0.00842    0.01337
 31 Ru    0.03141   -0.02037    0.06269
 32 Pt   -0.01636    0.00352    0.01761
 33 Ag    0.02369    0.01709   -0.04903
 34 Pt    0.02232   -0.01705    0.00738
 35 Ru    0.00160   -0.00883    0.04085
 36 Pd    0.04051    0.00898    0.02576
 37 Ru    0.00341    0.00852   -0.00412
 38 Pd   -0.07848    0.03521    0.02643
 39 Pt   -0.11779   -0.09143   -0.06118
 40 Pd   -0.08558    0.01720    0.00366
 41 Pd    0.01603    0.01593    0.02955
 42 Pt   -0.02233   -0.06710   -0.03810
 43 Pd   -0.00202   -0.03336   -0.07134
 44 Ru   -0.01591   -0.00577    0.01702
 45 O    -0.13159    0.03900    0.20401

System changes: positions 

Initializing position-dependent things.

Density initialized from wave functions
                                             
                                             
                                             
                                             
                                             
                                             
                O Pt     Pd                  
                               Ru            
            Pt     Pd    PPd    Ru           
                                             
        Pd    Ru     Pd    Pt                
         Pt    Pd     Pd                     
                     Pd     Pd     Ag        
                Ag     Ag     Ag             
                                             
           Ag    PAg    APt    Pd            
                                             
            Pd     Ru     Ag     Pd          
       Ag    PRu    PRu    Pt                
                                             
        Pd     Ag     Pt                     
                                             
                                             
                                             
                                             
                                             

Positions:
   0 Pd     0.000000    1.633958   10.000000    ( 0.0000,  0.0000,  0.0000)
   1 Ag     2.830098    1.633958   10.000000    ( 0.0000,  0.0000,  0.0000)
   2 Pt     5.660196    1.633958   10.000000    ( 0.0000,  0.0000,  0.0000)
   3 Pd     1.415049    4.084895   10.000000    ( 0.0000,  0.0000,  0.0000)
   4 Pd     4.245147    4.084895   10.000000    ( 0.0000,  0.0000,  0.0000)
   5 Pt     7.075245    4.084895   10.000000    ( 0.0000,  0.0000,  0.0000)
   6 Pd     2.830098    6.535832   10.000000    ( 0.0000,  0.0000,  0.0000)
   7 Ag     5.660196    6.535832   10.000000    ( 0.0000,  0.0000,  0.0000)
   8 Pd     8.490294    6.535832   10.000000    ( 0.0000,  0.0000,  0.0000)
   9 Ag     0.000000    0.000000   12.310765    ( 0.0000,  0.0000,  0.0000)
  10 Ru     2.830098    0.000000   12.310765    ( 0.0000,  0.0000,  0.0000)
  11 Ru     5.660196    0.000000   12.310765    ( 0.0000,  0.0000,  0.0000)
  12 Pd     1.415049    2.450937   12.310765    ( 0.0000,  0.0000,  0.0000)
  13 Ru     4.245147    2.450937   12.310765    ( 0.0000,  0.0000,  0.0000)
  14 Ag     7.075245    2.450937   12.310765    ( 0.0000,  0.0000,  0.0000)
  15 Pd     2.830098    4.901874   12.310765    ( 0.0000,  0.0000,  0.0000)
  16 Ag     5.660196    4.901874   12.310765    ( 0.0000,  0.0000,  0.0000)
  17 Pd     8.490294    4.901874   12.310765    ( 0.0000,  0.0000,  0.0000)
  18 Ag     1.414094    0.842028   14.696337    ( 0.0000,  0.0000,  0.0000)
  19 Ag     4.221755    0.837811   14.681831    ( 0.0000,  0.0000,  0.0000)
  20 Pt     6.991748    0.816649   14.666927    ( 0.0000,  0.0000,  0.0000)
  21 Ag     2.846170    3.275709   14.702767    ( 0.0000,  0.0000,  0.0000)
  22 Ag     5.612044    3.266138   14.712147    ( 0.0000,  0.0000,  0.0000)
  23 Ag     8.409321    3.267897   14.722778    ( 0.0000,  0.0000,  0.0000)
  24 Pd     4.227632    5.665499   14.783355    ( 0.0000,  0.0000,  0.0000)
  25 Pd     7.028586    5.721455   14.691121    ( 0.0000,  0.0000,  0.0000)
  26 Ag     9.809668    5.676751   14.707547    ( 0.0000,  0.0000,  0.0000)
  27 Pt     0.065207    1.674714   17.124430    ( 0.0000,  0.0000,  0.0000)
  28 Pd     2.867232    1.678502   17.096304    ( 0.0000,  0.0000,  0.0000)
  29 Pd     5.593849    1.663836   17.100465    ( 0.0000,  0.0000,  0.0000)
  30 Pd     1.477980    4.090285   17.100203    ( 0.0000,  0.0000,  0.0000)
  31 Ru     4.280705    4.093411   17.209746    ( 0.0000,  0.0000,  0.0000)
  32 Pt     6.988587    4.091391   17.087864    ( 0.0000,  0.0000,  0.0000)
  33 Ag     2.810026    6.512705   17.091040    ( 0.0000,  0.0000,  0.0000)
  34 Pt     5.635557    6.457044   17.072198    ( 0.0000,  0.0000,  0.0000)
  35 Ru     8.298754    6.452239   17.184557    ( 0.0000,  0.0000,  0.0000)
  36 Pd     0.098321    0.013197   19.435519    ( 0.0000,  0.0000,  0.0000)
  37 Ru     2.916962   -0.093668   19.211258    ( 0.0000,  0.0000,  0.0000)
  38 Pd     5.619398   -0.010726   19.441292    ( 0.0000,  0.0000,  0.0000)
  39 Pt     1.398524    2.387287   19.487392    ( 0.0000,  0.0000,  0.0000)
  40 Pd     4.244718    2.414460   19.459531    ( 0.0000,  0.0000,  0.0000)
  41 Pd     7.071915    2.468529   19.422100    ( 0.0000,  0.0000,  0.0000)
  42 Pt     2.846661    4.860416   19.454489    ( 0.0000,  0.0000,  0.0000)
  43 Pd     5.687860    4.880368   19.478393    ( 0.0000,  0.0000,  0.0000)
  44 Ru     8.369889    5.010170   19.207771    ( 0.0000,  0.0000,  0.0000)
  45 O      2.656258    3.303932   20.765574    ( 0.0000,  0.0000,  0.0000)

Unit cell:
           periodic     x           y           z      points  spacing
  1. axis:    yes    8.379498    0.000000    0.000000    35     0.2073
  2. axis:    yes    4.189749    7.256858    0.000000    35     0.2073
  3. axis:    no     0.000000    0.000000   29.243062   135     0.2166

  Lengths:   8.379498   8.379498  29.243062
  Angles:   90.000000  90.000000  60.000000

Effective grid spacing dv^(1/3) = 0.2207

                     log10-error:    total        iterations:
           time      wfs    density  energy       fermi  poisson
iter:   1  03:30:53  -2.84   +inf  -181.868943    3             
iter:   2  03:32:10  -2.49  -2.41  -197.773307    4             
iter:   3  03:33:27  -2.76  -1.63  -181.619983    3             
iter:   4  03:34:44  -3.96  -2.78  -181.534248    3             
iter:   5  03:36:01  -4.49  -2.85  -181.493193    2             
iter:   6  03:37:18  -5.11  -3.29  -181.491700    2             
iter:   7  03:38:35  -5.41  -3.33  -181.493059    2             
iter:   8  03:39:51  -5.25  -3.36  -181.490231    2             
iter:   9  03:40:58  -5.73  -3.63  -181.491039    2             
iter:  10  03:42:19  -6.18  -3.60  -181.489374    2             
iter:  11  03:43:39  -5.91  -3.67  -181.494740    2             
iter:  12  03:44:55  -5.80  -3.41  -181.489807    2             
iter:  13  03:46:10  -6.15  -3.96  -181.490185    2             
iter:  14  03:47:26  -6.60  -3.96  -181.489735    2             
iter:  15  03:48:41  -7.07  -4.10  -181.489643    2             
iter:  16  03:49:56  -6.88  -4.14  -181.489429    2             
iter:  17  03:51:12  -6.80  -4.02  -181.491037    2             
iter:  18  03:52:28  -6.71  -3.79  -181.489522    2             
iter:  19  03:53:43  -7.09  -4.31  -181.489527    2             
iter:  20  03:55:02  -7.55  -4.42  -181.489555    2             

Converged after 20 iterations.

Dipole moment: (24.205908, 25.034753, -0.222323) |e|*Ang

Energy contributions relative to reference atoms: (reference = -9073453.423555)

Kinetic:       -171.707160
Potential:      +26.787216
External:        +0.000000
XC:             -31.105366
Entropy (-ST):   -2.047269
Local:           -4.440611
--------------------------
Free energy:   -182.513189
Extrapolated:  -181.489555

Fermi level: 0.83514

Showing only first 2 kpts
 Kpt  Band  Eigenvalues  Occupancy
  0   367      0.82751    0.12977
  0   368      0.86402    0.10707
  0   369      0.88899    0.09214
  0   370      0.93373    0.06793

  1   367      0.73822    0.18124
  1   368      0.75672    0.17165
  1   369      0.78725    0.15437
  1   370      0.80608    0.14303



Forces in eV/Ang:
  0 Pd    0.09622    0.51038   -0.42406
  1 Ag    0.10018    0.49378   -0.51823
  2 Pt   -0.23106    0.50887    0.83723
  3 Pd    0.09389    0.03339   -0.07992
  4 Pd    0.11048   -0.36747    0.20177
  5 Pt   -0.12849   -0.28981   -0.08865
  6 Pd   -0.16530   -0.38931   -0.05736
  7 Ag   -0.13079   -0.45510   -0.71089
  8 Pd   -0.20828   -0.29534    0.32141
  9 Ag    0.54571    0.21252    0.41801
 10 Ru    2.18477    1.28986    0.43143
 11 Ru   -1.89465    0.83823   -0.36841
 12 Pd    1.10862   -0.23986    0.03409
 13 Ru   -0.55418   -1.47253   -0.87812
 14 Ag   -0.41428    0.15455    0.30519
 15 Pd    0.18773   -0.59469    0.09300
 16 Ag   -0.18284   -0.38205    0.34607
 17 Pd   -0.36394    0.51753    0.02500
 18 Ag   -0.00007   -0.00942    0.00907
 19 Ag    0.01584   -0.02236    0.00397
 20 Pt   -0.00179    0.01872   -0.02196
 21 Ag    0.00453   -0.00902    0.01814
 22 Ag    0.00433    0.00348    0.00323
 23 Ag   -0.00895    0.00132    0.01730
 24 Pd    0.01022   -0.00390   -0.01547
 25 Pd    0.01319   -0.01082   -0.01817
 26 Ag   -0.01618    0.02180    0.00919
 27 Pt   -0.00466    0.00726    0.01456
 28 Pd   -0.00850   -0.01483   -0.03952
 29 Pd    0.01110    0.03114    0.02115
 30 Pd   -0.03350    0.00890   -0.03485
 31 Ru    0.04877    0.00474    0.04652
 32 Pt    0.01073   -0.05457   -0.00622
 33 Ag    0.00271   -0.00364    0.02978
 34 Pt   -0.05646    0.02166   -0.01637
 35 Ru    0.08325    0.00307   -0.10129
 36 Pd   -0.01572   -0.02723   -0.00180
 37 Ru   -0.08776    0.04311    0.11537
 38 Pd   -0.00770    0.04189    0.00288
 39 Pt   -0.02308   -0.01355   -0.00790
 40 Pd   -0.03120   -0.01797    0.08359
 41 Pd   -0.03803   -0.00006    0.01588
 42 Pt   -0.05668   -0.00676   -0.00585
 43 Pd    0.00477   -0.01769   -0.00227
 44 Ru    0.00828   -0.07594    0.07746
 45 O    -0.00942   -0.00411    0.02547

System changes: positions 

Initializing position-dependent things.

Density initialized from wave functions
                                             
                                             
                                             
                                             
                                             
                                             
                OPt      Pd                  
                               Ru            
            Pt     Pd    PPd    Ru           
                                             
        Pd    Ru     Pd    Pt                
         Pt    Pd     Pd                     
                     Pd     Pd     Ag        
                Ag     Ag     Ag             
                                             
           Ag    PAg    APt    Pd            
                                             
            Pd     Ru     Ag     Pd          
       Ag    PRu    PRu    Pt                
                                             
        Pd     Ag     Pt                     
                                             
                                             
                                             
                                             
                                             

Positions:
   0 Pd     0.000000    1.633958   10.000000    ( 0.0000,  0.0000,  0.0000)
   1 Ag     2.830098    1.633958   10.000000    ( 0.0000,  0.0000,  0.0000)
   2 Pt     5.660196    1.633958   10.000000    ( 0.0000,  0.0000,  0.0000)
   3 Pd     1.415049    4.084895   10.000000    ( 0.0000,  0.0000,  0.0000)
   4 Pd     4.245147    4.084895   10.000000    ( 0.0000,  0.0000,  0.0000)
   5 Pt     7.075245    4.084895   10.000000    ( 0.0000,  0.0000,  0.0000)
   6 Pd     2.830098    6.535832   10.000000    ( 0.0000,  0.0000,  0.0000)
   7 Ag     5.660196    6.535832   10.000000    ( 0.0000,  0.0000,  0.0000)
   8 Pd     8.490294    6.535832   10.000000    ( 0.0000,  0.0000,  0.0000)
   9 Ag     0.000000    0.000000   12.310765    ( 0.0000,  0.0000,  0.0000)
  10 Ru     2.830098    0.000000   12.310765    ( 0.0000,  0.0000,  0.0000)
  11 Ru     5.660196    0.000000   12.310765    ( 0.0000,  0.0000,  0.0000)
  12 Pd     1.415049    2.450937   12.310765    ( 0.0000,  0.0000,  0.0000)
  13 Ru     4.245147    2.450937   12.310765    ( 0.0000,  0.0000,  0.0000)
  14 Ag     7.075245    2.450937   12.310765    ( 0.0000,  0.0000,  0.0000)
  15 Pd     2.830098    4.901874   12.310765    ( 0.0000,  0.0000,  0.0000)
  16 Ag     5.660196    4.901874   12.310765    ( 0.0000,  0.0000,  0.0000)
  17 Pd     8.490294    4.901874   12.310765    ( 0.0000,  0.0000,  0.0000)
  18 Ag     1.414866    0.841339   14.697979    ( 0.0000,  0.0000,  0.0000)
  19 Ag     4.222069    0.836009   14.683118    ( 0.0000,  0.0000,  0.0000)
  20 Pt     6.991033    0.817474   14.666053    ( 0.0000,  0.0000,  0.0000)
  21 Ag     2.845863    3.274730   14.704885    ( 0.0000,  0.0000,  0.0000)
  22 Ag     5.612216    3.266655   14.712145    ( 0.0000,  0.0000,  0.0000)
  23 Ag     8.409734    3.268336   14.726597    ( 0.0000,  0.0000,  0.0000)
  24 Pd     4.228933    5.664439   14.781277    ( 0.0000,  0.0000,  0.0000)
  25 Pd     7.029646    5.720410   14.688404    ( 0.0000,  0.0000,  0.0000)
  26 Ag     9.808161    5.677141   14.710269    ( 0.0000,  0.0000,  0.0000)
  27 Pt     0.065018    1.675670   17.126645    ( 0.0000,  0.0000,  0.0000)
  28 Pd     2.868019    1.678226   17.095055    ( 0.0000,  0.0000,  0.0000)
  29 Pd     5.595409    1.667419   17.101569    ( 0.0000,  0.0000,  0.0000)
  30 Pd     1.476730    4.091540   17.101012    ( 0.0000,  0.0000,  0.0000)
  31 Ru     4.284947    4.093381   17.215174    ( 0.0000,  0.0000,  0.0000)
  32 Pt     6.989640    4.087524   17.087538    ( 0.0000,  0.0000,  0.0000)
  33 Ag     2.811773    6.514247   17.091774    ( 0.0000,  0.0000,  0.0000)
  34 Pt     5.633026    6.458526   17.070585    ( 0.0000,  0.0000,  0.0000)
  35 Ru     8.305329    6.452022   17.179007    ( 0.0000,  0.0000,  0.0000)
  36 Pd     0.097177    0.009048   19.437071    ( 0.0000,  0.0000,  0.0000)
  37 Ru     2.910442   -0.090152   19.219532    ( 0.0000,  0.0000,  0.0000)
  38 Pd     5.616395   -0.007174   19.443031    ( 0.0000,  0.0000,  0.0000)
  39 Pt     1.396439    2.384182   19.489636    ( 0.0000,  0.0000,  0.0000)
  40 Pd     4.235104    2.416187   19.468149    ( 0.0000,  0.0000,  0.0000)
  41 Pd     7.068250    2.468613   19.425650    ( 0.0000,  0.0000,  0.0000)
  42 Pt     2.841552    4.854133   19.455087    ( 0.0000,  0.0000,  0.0000)
  43 Pd     5.686851    4.876733   19.474242    ( 0.0000,  0.0000,  0.0000)
  44 Ru     8.369668    5.004401   19.213966    ( 0.0000,  0.0000,  0.0000)
  45 O      2.647134    3.305927   20.769868    ( 0.0000,  0.0000,  0.0000)

Unit cell:
           periodic     x           y           z      points  spacing
  1. axis:    yes    8.379498    0.000000    0.000000    35     0.2073
  2. axis:    yes    4.189749    7.256858    0.000000    35     0.2073
  3. axis:    no     0.000000    0.000000   29.243062   135     0.2166

  Lengths:   8.379498   8.379498  29.243062
  Angles:   90.000000  90.000000  60.000000

Effective grid spacing dv^(1/3) = 0.2207

                     log10-error:    total        iterations:
           time      wfs    density  energy       fermi  poisson
iter:   1  03:57:17  -3.41   +inf  -181.600401    3             
iter:   2  03:58:50  -3.13  -2.70  -185.270474    3             
iter:   3  04:00:24  -3.37  -1.90  -181.547535    2             
iter:   4  04:01:58  -4.64  -2.95  -181.499766    2             
iter:   5  04:03:32  -5.27  -3.22  -181.491930    2             
iter:   6  04:05:05  -5.67  -3.40  -181.492023    2             
iter:   7  04:06:39  -6.09  -3.64  -181.491977    2             
iter:   8  04:08:12  -5.60  -3.59  -181.491458    2             
iter:   9  04:09:46  -5.97  -3.46  -181.490574    2             
iter:  10  04:11:19  -6.31  -3.81  -181.490848    2             
iter:  11  04:12:53  -6.95  -4.07  -181.490586    2             
iter:  12  04:14:27  -6.89  -4.04  -181.491039    2             
iter:  13  04:16:00  -6.99  -4.23  -181.490976    2             
iter:  14  04:17:34  -7.22  -4.34  -181.490776    2             
iter:  15  04:19:08  -7.21  -4.23  -181.490915    2             
iter:  16  04:20:41  -7.62  -4.48  -181.491091    2             

Converged after 16 iterations.

Dipole moment: (24.084873, 24.934568, -0.222722) |e|*Ang

Energy contributions relative to reference atoms: (reference = -9073453.423555)

Kinetic:       -173.538837
Potential:      +28.325790
External:        +0.000000
XC:             -30.823948
Entropy (-ST):   -2.050271
Local:           -4.428960
--------------------------
Free energy:   -182.516227
Extrapolated:  -181.491091

Fermi level: 0.83513

Showing only first 2 kpts
 Kpt  Band  Eigenvalues  Occupancy
  0   367      0.82705    0.13005
  0   368      0.86334    0.10748
  0   369      0.88983    0.09164
  0   370      0.93408    0.06775

  1   367      0.73862    0.18104
  1   368      0.75630    0.17187
  1   369      0.78752    0.15421
  1   370      0.80716    0.14237



Forces in eV/Ang:
  0 Pd    0.09723    0.50838   -0.42025
  1 Ag    0.09938    0.49231   -0.51911
  2 Pt   -0.23198    0.51014    0.84011
  3 Pd    0.09427    0.03291   -0.07931
  4 Pd    0.11149   -0.36622    0.20317
  5 Pt   -0.13074   -0.28900   -0.08537
  6 Pd   -0.16282   -0.39006   -0.05518
  7 Ag   -0.13116   -0.45472   -0.71048
  8 Pd   -0.21122   -0.29440    0.32075
  9 Ag    0.54842    0.21353    0.42225
 10 Ru    2.18553    1.29110    0.43875
 11 Ru   -1.89662    0.83745   -0.36064
 12 Pd    1.10450   -0.24047    0.04886
 13 Ru   -0.55279   -1.47705   -0.86865
 14 Ag   -0.41038    0.15924    0.31296
 15 Pd    0.18273   -0.59420    0.10561
 16 Ag   -0.18211   -0.38325    0.34280
 17 Pd   -0.36120    0.51319    0.03859
 18 Ag   -0.01144   -0.00661   -0.00221
 19 Ag    0.01777   -0.00721   -0.00275
 20 Pt    0.00636    0.00886   -0.00815
 21 Ag    0.00800    0.00026    0.01516
 22 Ag    0.00476   -0.00601    0.00430
 23 Ag   -0.01110   -0.00857   -0.00921
 24 Pd   -0.00980    0.00895    0.00287
 25 Pd    0.00383   -0.00651    0.00679
 26 Ag    0.00904    0.01972   -0.00552
 27 Pt   -0.00136   -0.00183    0.01520
 28 Pd    0.00282   -0.02117   -0.00192
 29 Pd   -0.01578   -0.00049    0.02609
 30 Pd   -0.01057    0.00406   -0.03112
 31 Ru   -0.00359    0.00045    0.02764
 32 Pt    0.02074    0.02930    0.00977
 33 Ag   -0.00895   -0.01927    0.02939
 34 Pt    0.03680   -0.00461    0.01341
 35 Ru   -0.03991   -0.01134    0.11469
 36 Pd   -0.02470   -0.01032    0.00601
 37 Ru    0.01516   -0.06171   -0.05074
 38 Pd   -0.03366    0.00165   -0.01972
 39 Pt   -0.06416   -0.03289   -0.01937
 40 Pd    0.05179   -0.05935    0.02302
 41 Pd   -0.02154   -0.01783    0.01462
 42 Pt   -0.04259    0.07757   -0.02471
 43 Pd    0.00162    0.00444    0.01521
 44 Ru   -0.02747    0.06017   -0.02605
 45 O    -0.02119    0.01727    0.06180

System changes: positions 

Initializing position-dependent things.

Density initialized from wave functions
                                             
                                             
                                             
                                             
                                             
                                             
                OPt      Pd                  
                               Ru            
            Pt     Pd    PPd    Ru           
                                             
        Pd    Ru     Pd    Pt                
         Pt    Pd     Pd                     
                     Pd     Pd     Ag        
                Ag     Ag     Ag             
                                             
           Ag    PAg    APt    Pd            
                                             
            Pd     Ru     Ag     Pd          
       Ag    PRu    PRu    Pt                
                                             
        Pd     Ag     Pt                     
                                             
                                             
                                             
                                             
                                             

Positions:
   0 Pd     0.000000    1.633958   10.000000    ( 0.0000,  0.0000,  0.0000)
   1 Ag     2.830098    1.633958   10.000000    ( 0.0000,  0.0000,  0.0000)
   2 Pt     5.660196    1.633958   10.000000    ( 0.0000,  0.0000,  0.0000)
   3 Pd     1.415049    4.084895   10.000000    ( 0.0000,  0.0000,  0.0000)
   4 Pd     4.245147    4.084895   10.000000    ( 0.0000,  0.0000,  0.0000)
   5 Pt     7.075245    4.084895   10.000000    ( 0.0000,  0.0000,  0.0000)
   6 Pd     2.830098    6.535832   10.000000    ( 0.0000,  0.0000,  0.0000)
   7 Ag     5.660196    6.535832   10.000000    ( 0.0000,  0.0000,  0.0000)
   8 Pd     8.490294    6.535832   10.000000    ( 0.0000,  0.0000,  0.0000)
   9 Ag     0.000000    0.000000   12.310765    ( 0.0000,  0.0000,  0.0000)
  10 Ru     2.830098    0.000000   12.310765    ( 0.0000,  0.0000,  0.0000)
  11 Ru     5.660196    0.000000   12.310765    ( 0.0000,  0.0000,  0.0000)
  12 Pd     1.415049    2.450937   12.310765    ( 0.0000,  0.0000,  0.0000)
  13 Ru     4.245147    2.450937   12.310765    ( 0.0000,  0.0000,  0.0000)
  14 Ag     7.075245    2.450937   12.310765    ( 0.0000,  0.0000,  0.0000)
  15 Pd     2.830098    4.901874   12.310765    ( 0.0000,  0.0000,  0.0000)
  16 Ag     5.660196    4.901874   12.310765    ( 0.0000,  0.0000,  0.0000)
  17 Pd     8.490294    4.901874   12.310765    ( 0.0000,  0.0000,  0.0000)
  18 Ag     1.413953    0.840532   14.698296    ( 0.0000,  0.0000,  0.0000)
  19 Ag     4.224020    0.834576   14.683143    ( 0.0000,  0.0000,  0.0000)
  20 Pt     6.991353    0.818847   14.664802    ( 0.0000,  0.0000,  0.0000)
  21 Ag     2.846597    3.274360   14.706745    ( 0.0000,  0.0000,  0.0000)
  22 Ag     5.612805    3.266209   14.712529    ( 0.0000,  0.0000,  0.0000)
  23 Ag     8.408600    3.267605   14.726896    ( 0.0000,  0.0000,  0.0000)
  24 Pd     4.228545    5.664918   14.780717    ( 0.0000,  0.0000,  0.0000)
  25 Pd     7.030544    5.719457   14.687977    ( 0.0000,  0.0000,  0.0000)
  26 Ag     9.808228    5.679397   14.710399    ( 0.0000,  0.0000,  0.0000)
  27 Pt     0.064618    1.675679   17.128230    ( 0.0000,  0.0000,  0.0000)
  28 Pd     2.868009    1.676133   17.093935    ( 0.0000,  0.0000,  0.0000)
  29 Pd     5.595074    1.668517   17.104030    ( 0.0000,  0.0000,  0.0000)
  30 Pd     1.474868    4.092326   17.098392    ( 0.0000,  0.0000,  0.0000)
  31 Ru     4.286405    4.093545   17.219640    ( 0.0000,  0.0000,  0.0000)
  32 Pt     6.991900    4.087978   17.087988    ( 0.0000,  0.0000,  0.0000)
  33 Ag     2.811429    6.513194   17.094927    ( 0.0000,  0.0000,  0.0000)
  34 Pt     5.634333    6.459021   17.070956    ( 0.0000,  0.0000,  0.0000)
  35 Ru     8.305127    6.451040   17.185074    ( 0.0000,  0.0000,  0.0000)
  36 Pd     0.094174    0.006271   19.437914    ( 0.0000,  0.0000,  0.0000)
  37 Ru     2.908520   -0.093321   19.219412    ( 0.0000,  0.0000,  0.0000)
  38 Pd     5.613298   -0.005750   19.441885    ( 0.0000,  0.0000,  0.0000)
  39 Pt     1.392784    2.382194   19.489582    ( 0.0000,  0.0000,  0.0000)
  40 Pd     4.235281    2.412370   19.474348    ( 0.0000,  0.0000,  0.0000)
  41 Pd     7.064614    2.467142   19.428047    ( 0.0000,  0.0000,  0.0000)
  42 Pt     2.835826    4.857524   19.453872    ( 0.0000,  0.0000,  0.0000)
  43 Pd     5.686534    4.875883   19.474787    ( 0.0000,  0.0000,  0.0000)
  44 Ru     8.368020    5.006406   19.214461    ( 0.0000,  0.0000,  0.0000)
  45 O      2.644242    3.307217   20.773316    ( 0.0000,  0.0000,  0.0000)

Unit cell:
           periodic     x           y           z      points  spacing
  1. axis:    yes    8.379498    0.000000    0.000000    35     0.2073
  2. axis:    yes    4.189749    7.256858    0.000000    35     0.2073
  3. axis:    no     0.000000    0.000000   29.243062   135     0.2166

  Lengths:   8.379498   8.379498  29.243062
  Angles:   90.000000  90.000000  60.000000

Effective grid spacing dv^(1/3) = 0.2207

                     log10-error:    total        iterations:
           time      wfs    density  energy       fermi  poisson
iter:   1  04:22:56  -3.74   +inf  -181.576600    3             
iter:   2  04:24:30  -3.20  -2.76  -184.570614    4             
iter:   3  04:26:03  -3.50  -1.97  -181.539982    2             
iter:   4  04:27:37  -4.46  -2.94  -181.496707    3             
iter:   5  04:29:11  -5.37  -3.43  -181.493544    2             
iter:   6  04:30:45  -6.03  -3.58  -181.495961    2             
iter:   7  04:32:16  -6.42  -3.66  -181.494463    2             
iter:   8  04:33:32  -6.29  -3.82  -181.493766    2             
iter:   9  04:34:50  -6.10  -3.97  -181.493758    2             
iter:  10  04:36:06  -7.00  -4.26  -181.493712    2             
iter:  11  04:37:23  -7.24  -4.31  -181.493757    2             
iter:  12  04:38:40  -6.94  -4.36  -181.493396    2             
iter:  13  04:39:57  -7.28  -4.18  -181.494022    2             
iter:  14  04:41:14  -7.17  -4.21  -181.494024    2             
iter:  15  04:42:31  -7.47  -4.45  -181.493641    2             

Converged after 15 iterations.

Dipole moment: (24.606683, 25.097534, -0.223510) |e|*Ang

Energy contributions relative to reference atoms: (reference = -9073453.423555)

Kinetic:       -173.230095
Potential:      +28.047037
External:        +0.000000
XC:             -30.840394
Entropy (-ST):   -2.049876
Local:           -4.445251
--------------------------
Free energy:   -182.518579
Extrapolated:  -181.493641

Fermi level: 0.83449

Showing only first 2 kpts
 Kpt  Band  Eigenvalues  Occupancy
  0   367      0.82621    0.13017
  0   368      0.86370    0.10688
  0   369      0.88860    0.09198
  0   370      0.93254    0.06820

  1   367      0.73783    0.18111
  1   368      0.75601    0.17168
  1   369      0.78646    0.15446
  1   370      0.80645    0.14241



Forces in eV/Ang:
  0 Pd    0.09618    0.50971   -0.41946
  1 Ag    0.10040    0.49328   -0.51722
  2 Pt   -0.23128    0.50981    0.84054
  3 Pd    0.09389    0.03315   -0.07805
  4 Pd    0.11068   -0.36783    0.20291
  5 Pt   -0.12935   -0.29007   -0.08670
  6 Pd   -0.16421   -0.38913   -0.05539
  7 Ag   -0.13090   -0.45462   -0.71021
  8 Pd   -0.20943   -0.29463    0.32161
  9 Ag    0.54747    0.21437    0.41654
 10 Ru    2.18307    1.29369    0.43286
 11 Ru   -1.89175    0.83831   -0.37545
 12 Pd    1.10688   -0.23904    0.04617
 13 Ru   -0.55635   -1.47423   -0.87161
 14 Ag   -0.41005    0.15939    0.30110
 15 Pd    0.18200   -0.59841    0.10221
 16 Ag   -0.18328   -0.38416    0.34204
 17 Pd   -0.35830    0.50979    0.02818
 18 Ag    0.00239   -0.00368   -0.00394
 19 Ag   -0.00536    0.00908    0.00305
 20 Pt    0.01208   -0.00907    0.00799
 21 Ag    0.00530    0.00292    0.00731
 22 Ag   -0.01025    0.00722    0.00993
 23 Ag    0.00957   -0.00217   -0.01496
 24 Pd   -0.00300    0.00015    0.01545
 25 Pd   -0.01204    0.00067    0.00806
 26 Ag    0.01897   -0.00505   -0.00268
 27 Pt   -0.00198   -0.01154    0.01438
 28 Pd    0.00468    0.01333    0.01902
 29 Pd   -0.01231    0.00514    0.00974
 30 Pd    0.01260   -0.01602   -0.00998
 31 Ru   -0.01360   -0.00666    0.02162
 32 Pt   -0.01280    0.00575    0.00511
 33 Ag    0.00426   -0.00566   -0.00813
 34 Pt   -0.00367   -0.01503   -0.00863
 35 Ru   -0.01257    0.01217    0.00351
 36 Pd   -0.00838    0.00437   -0.00273
 37 Ru   -0.02395    0.00891   -0.00194
 38 Pd   -0.01532    0.01728    0.00108
 39 Pt    0.00609    0.00874    0.00504
 40 Pd   -0.02647   -0.00247    0.01426
 41 Pd   -0.00628   -0.01142    0.00104
 42 Pt   -0.02453   -0.03362    0.01055
 43 Pd   -0.02500   -0.01457    0.01036
 44 Ru    0.00126   -0.01560    0.01755
 45 O    -0.03849    0.01660   -0.02990

Timing:                                      incl.     excl.
-------------------------------------------------------------------
Density initialized from wave functions:    21.847    21.846   0.2% |
 Symmetrize density:                         0.000     0.000   0.0% |
Forces:                                    144.074   144.074   1.1% |
Hamiltonian:                                20.650     0.081   0.0% |
 Atomic:                                     5.395     2.247   0.0% |
  XC Correction:                             3.148     3.148   0.0% |
 Calculate atomic Hamiltonians:              7.534     7.534   0.1% |
 Communicate:                                0.116     0.116   0.0% |
 Initialize Hamiltonian:                     0.000     0.000   0.0% |
 Poisson:                                    0.050     0.050   0.0% |
 XC 3D grid:                                 7.473     7.473   0.1% |
LCAO initialization:                        59.502     3.630   0.0% |
 LCAO eigensolver:                           7.439     0.002   0.0% |
  Calculate projections:                     0.084     0.084   0.0% |
  DenseAtomicCorrection:                     0.091     0.091   0.0% |
  Distribute overlap matrix:                 0.473     0.473   0.0% |
  Orbital Layouts:                           0.479     0.479   0.0% |
  Potential matrix:                          6.236     6.236   0.0% |
  Sum over cells:                            0.074     0.074   0.0% |
 LCAO to grid:                              45.576    45.576   0.3% |
 Set positions (LCAO WFS):                   2.858     1.230   0.0% |
  Basic WFS set positions:                   0.003     0.003   0.0% |
  Basis functions set positions:             0.001     0.001   0.0% |
  P tci:                                     0.687     0.687   0.0% |
  ST tci:                                    0.709     0.709   0.0% |
  mktci:                                     0.228     0.228   0.0% |
PWDescriptor:                                0.050     0.050   0.0% |
Redistribute:                                0.050     0.050   0.0% |
SCF-cycle:                               12762.613   499.993   3.8% |-|
 Davidson:                               11265.474  2511.000  19.2% |-------|
  Apply H:                                1865.791  1802.595  13.8% |-----|
   HMM T:                                   63.196    63.196   0.5% |
  Subspace diag:                          1611.577     0.064   0.0% |
   calc_h_matrix:                          960.318   340.170   2.6% ||
    Apply H:                               620.148   599.134   4.6% |-|
     HMM T:                                 21.014    21.014   0.2% |
   diagonalize:                             26.230    26.230   0.2% |
   rotate_psi:                             624.966   624.966   4.8% |-|
  calc. matrices:                         3529.060  2297.523  17.6% |------|
   Apply H:                               1231.537  1189.954   9.1% |---|
    HMM T:                                  41.583    41.583   0.3% |
  diagonalize:                             490.897   490.897   3.8% |-|
  rotate_psi:                             1257.149  1257.149   9.6% |---|
 Density:                                  524.243     0.009   0.0% |
  Atomic density matrices:                   4.085     4.085   0.0% |
  Mix:                                     164.145   164.145   1.3% ||
  Multipole moments:                         0.228     0.228   0.0% |
  Pseudo density:                          355.775   355.766   2.7% ||
   Symmetrize density:                       0.009     0.009   0.0% |
 Hamiltonian:                              420.298     1.467   0.0% |
  Atomic:                                   95.191    37.895   0.3% |
   XC Correction:                           57.296    57.296   0.4% |
  Calculate atomic Hamiltonians:           131.954   131.954   1.0% |
  Communicate:                              37.964    37.964   0.3% |
  Poisson:                                   0.918     0.918   0.0% |
  XC 3D grid:                              152.805   152.805   1.2% |
 Orthonormalize:                            52.606     0.004   0.0% |
  calc_s_matrix:                             7.787     7.787   0.1% |
  inverse-cholesky:                          0.667     0.667   0.0% |
  projections:                              28.949    28.949   0.2% |
  rotate_psi_s:                             15.199    15.199   0.1% |
Set symmetry:                                0.002     0.002   0.0% |
Other:                                      65.618    65.618   0.5% |
-------------------------------------------------------------------
Total:                                             13074.406 100.0%

Date: Fri Mar  4 04:42:53 2022
