
  ___ ___ ___ _ _ _  
 |   |   |_  | | | | 
 | | | | | . | | | | 
 |__ |  _|___|_____|  1.5.1
 |___|_|             

User:   clausen@node488.cluster
Date:   Fri Mar  4 00:46:44 2022
Arch:   x86_64
Pid:    44932
Python: 3.6.12
gpaw:   /software/kemi/gpaw/1.5.1/gpaw
_gpaw:  /software/kemi/gpaw/1.5.1/bin/gpaw-python
ase:    /software/kemi/ase/3.17.0/ase (version 3.17.0)
numpy:  /opt/rh/rh-python36/root/usr/lib64/python3.6/site-packages/numpy (version 1.13.1)
scipy:  /opt/rh/rh-python36/root/usr/lib64/python3.6/site-packages/scipy (version 0.19.1)
units:  Angstrom and eV
cores:  16

Input parameters:
  kpts: [4 4 1]
  mode: {ecut: 400.0,
         gammacentered: False,
         name: pw}
  xc: RPBE

System changes: positions, numbers, cell, pbc, initial_charges, initial_magmoms 

Initialize ...

Pd-setup:
  name: Palladium
  id: 6da19bfba079f22767af9506641940b9
  Z: 46
  valence: 16
  core: 30
  charge: 0.0
  file: /software/kemi/gpaw-setups/0.9.20000/Pd.RPBE.gz
  cutoffs: 1.19(comp), 2.38(filt), 2.28(core), lmax=2
  valence states:
                energy  radius
    5s(0.00)    -3.225   1.228
    4p(6.00)   -51.131   1.360
    5p(0.00)    -0.373   1.360
    4d(10.00)    -3.964   1.228
    *s          23.987   1.228
    *d          23.247   1.228

  Using partial waves for Pd as LCAO basis

Ag-setup:
  name: Silver
  id: c05e55bab2c3858b3f9398f6d75cb77c
  Z: 47
  valence: 17
  core: 30
  charge: 0.0
  file: /software/kemi/gpaw-setups/0.9.20000/Ag.RPBE.gz
  cutoffs: 1.25(comp), 2.35(filt), 2.19(core), lmax=2
  valence states:
                energy  radius
    5s(1.00)    -4.277   1.286
    4p(6.00)   -58.523   1.328
    5p(0.00)    -0.755   1.328
    4d(10.00)    -7.386   1.180
    *s          22.934   1.286
    *d          19.826   1.180

  Using partial waves for Ag as LCAO basis

Pt-setup:
  name: Platinum
  id: f04f522592575c47ad794f6b4a415b4b
  Z: 78
  valence: 16
  core: 62
  charge: 0.0
  file: /software/kemi/gpaw-setups/0.9.20000/Pt.RPBE.gz
  cutoffs: 1.29(comp), 2.26(filt), 2.26(core), lmax=2
  valence states:
                energy  radius
    6s(1.00)    -5.516   1.307
    5p(6.00)   -55.971   1.371
    6p(0.00)    -0.856   1.371
    5d(9.00)    -6.087   1.307
    *s          21.695   1.307
    *d          21.125   1.307

  Using partial waves for Pt as LCAO basis

Ru-setup:
  name: Ruthenium
  id: 76477906e28f51dc1b29884d53556fe9
  Z: 44
  valence: 16
  core: 28
  charge: 0.0
  file: /software/kemi/gpaw-setups/0.9.20000/Ru.RPBE.gz
  cutoffs: 1.23(comp), 2.16(filt), 1.30(core), lmax=2
  valence states:
                energy  radius
    4s(2.00)   -76.255   1.281
    5s(1.00)    -4.126   1.281
    4p(6.00)   -46.371   1.286
    5p(0.00)    -0.913   1.286
    4d(7.00)    -5.146   1.254
    *d          22.066   1.254

  Using partial waves for Ru as LCAO basis

O-setup:
  name: Oxygen
  id: 08071ca1eed670e7821b24b7eb4d558c
  Z: 8
  valence: 6
  core: 2
  charge: 0.0
  file: /software/kemi/gpaw-setups/0.9.20000/O.RPBE.gz
  cutoffs: 0.67(comp), 1.17(filt), 0.83(core), lmax=2
  valence states:
                energy  radius
    2s(2.00)   -24.041   0.688
    2p(4.00)    -8.984   0.598
    *s           3.170   0.688
    *p          18.228   0.598
    *d           0.000   0.619

  Using partial waves for O as LCAO basis

H-setup:
  name: Hydrogen
  id: ea3f9156a1dc40d47a60fdce8f8bd75d
  Z: 1
  valence: 1
  core: 0
  charge: 0.0
  file: /software/kemi/gpaw-setups/0.9.20000/H.RPBE.gz
  cutoffs: 0.48(comp), 0.85(filt), 0.53(core), lmax=2
  valence states:
                energy  radius
    1s(1.00)    -6.572   0.476
    *s          20.639   0.476
    *p           0.000   0.476

  Using partial waves for H as LCAO basis

Reference energy: -9073466.092496

Spin-paired calculation

Occupation numbers:
  Fermi-Dirac: width=0.1000 eV

Convergence criteria:
  Maximum total energy change: 0.0005 eV / electron
  Maximum integral of absolute density change: 0.0001 electrons
  Maximum integral of absolute eigenstate change: 4e-08 eV^2
  Maximum number of iterations: 333

Symmetries present (total): 1

  ( 1  0  0)
  ( 0  1  0)
  ( 0  0  1)

16 k-points: 4 x 4 x 1 Monkhorst-Pack grid
8 k-points in the irreducible part of the Brillouin zone
       k-points in crystal coordinates                weights
   0:     0.12500000   -0.37500000    0.00000000          2/16
   1:     0.12500000   -0.12500000    0.00000000          2/16
   2:     0.12500000    0.12500000    0.00000000          2/16
   3:     0.12500000    0.37500000    0.00000000          2/16
   4:     0.37500000   -0.37500000    0.00000000          2/16
   5:     0.37500000   -0.12500000    0.00000000          2/16
   6:     0.37500000    0.12500000    0.00000000          2/16
   7:     0.37500000    0.37500000    0.00000000          2/16

Wave functions: Plane wave expansion
  Cutoff energy: 400.000 eV
  Number of coefficients (min, max): 32266, 32339
  Pulay-stress correction: 0.000000 eV/Ang^3 (de/decut=0.000000)
  Using FFTW library
  ScaLapack parameters: grid=1x1, blocksize=None
  Wavefunction extrapolation:
    Improved wavefunction reuse through dual PAW basis 

Eigensolver
   Davidson(niter=2, smin=None, normalize=True) 

Densities:
  Coarse grid: 35*35*135 grid
  Fine grid: 70*70*270 grid
  Total Charge: 0.000000 

Density mixing:
  Method: separate
  Backend: pulay
  Linear mixing parameter: 0.05
  Mixing with 5 old densities
  Damping of long wave oscillations: 50 

Hamiltonian:
  XC and Coulomb potentials evaluated on a 70*70*270 grid
  Using the RPBE Exchange-Correlation functional
 

XC parameters: RPBE with 2 nearest neighbor stencil

Memory estimate:
  Process memory now: 152.47 MiB
  Calculator: 552.99 MiB
    Density: 51.61 MiB
      Arrays: 16.41 MiB
      Localized functions: 28.84 MiB
      Mixer: 6.36 MiB
    Hamiltonian: 11.64 MiB
      Arrays: 10.73 MiB
      XC: 0.00 MiB
      Poisson: 0.00 MiB
      vbar: 0.91 MiB
    Wavefunctions: 489.75 MiB
      Arrays psit_nG: 221.07 MiB
      Eigensolver: 254.17 MiB
      Projections: 2.83 MiB
      Projectors: 5.06 MiB
      PW-descriptor: 6.62 MiB

Total number of cores used: 16
Parallelization over k-points: 8
Domain decomposition: 1 x 1 x 2

Number of atoms: 47
Number of atomic orbitals: 552
Number of bands in calculation: 448
Bands to converge: occupied states only
Number of valence electrons: 739

... initialized

Initializing position-dependent things.

Density initialized from atomic densities
Creating initial wave functions:
  448 bands from LCAO basis set

                                             
                                             
                                             
                                             
                                             
                                             
                                             
                                             
                 Pt    H Pd    Ru            
                     O                       
            Pt    APd    PPd    Ru           
        Pd           Pd                      
              Ru           Pt                
        Pt     Pd    PPd    Pd     Ag        
                                             
                Ag     Ag     Ag             
                                             
           Ag    PAg    APt    Pd            
                                             
            Pd     Ru     Ag     Pd          
       Ag    PRu    PRu    Pt                
                                             
        Pd     Ag     Pt                     
                                             
                                             
                                             
                                             
                                             

Positions:
   0 Pd     0.000000    1.633958   10.000000    ( 0.0000,  0.0000,  0.0000)
   1 Ag     2.830098    1.633958   10.000000    ( 0.0000,  0.0000,  0.0000)
   2 Pt     5.660196    1.633958   10.000000    ( 0.0000,  0.0000,  0.0000)
   3 Pd     1.415049    4.084895   10.000000    ( 0.0000,  0.0000,  0.0000)
   4 Pd     4.245147    4.084895   10.000000    ( 0.0000,  0.0000,  0.0000)
   5 Pt     7.075245    4.084895   10.000000    ( 0.0000,  0.0000,  0.0000)
   6 Pd     2.830098    6.535832   10.000000    ( 0.0000,  0.0000,  0.0000)
   7 Ag     5.660196    6.535832   10.000000    ( 0.0000,  0.0000,  0.0000)
   8 Pd     8.490294    6.535832   10.000000    ( 0.0000,  0.0000,  0.0000)
   9 Ag     0.000000    0.000000   12.310765    ( 0.0000,  0.0000,  0.0000)
  10 Ru     2.830098    0.000000   12.310765    ( 0.0000,  0.0000,  0.0000)
  11 Ru     5.660196    0.000000   12.310765    ( 0.0000,  0.0000,  0.0000)
  12 Pd     1.415049    2.450937   12.310765    ( 0.0000,  0.0000,  0.0000)
  13 Ru     4.245147    2.450937   12.310765    ( 0.0000,  0.0000,  0.0000)
  14 Ag     7.075245    2.450937   12.310765    ( 0.0000,  0.0000,  0.0000)
  15 Pd     2.830098    4.901874   12.310765    ( 0.0000,  0.0000,  0.0000)
  16 Ag     5.660196    4.901874   12.310765    ( 0.0000,  0.0000,  0.0000)
  17 Pd     8.490294    4.901874   12.310765    ( 0.0000,  0.0000,  0.0000)
  18 Ag     1.422839    0.836358   14.687202    ( 0.0000,  0.0000,  0.0000)
  19 Ag     4.228290    0.834029   14.668537    ( 0.0000,  0.0000,  0.0000)
  20 Pt     7.000876    0.833422   14.677349    ( 0.0000,  0.0000,  0.0000)
  21 Ag     2.849410    3.275055   14.697646    ( 0.0000,  0.0000,  0.0000)
  22 Ag     5.607020    3.276035   14.715763    ( 0.0000,  0.0000,  0.0000)
  23 Ag     8.407636    3.278571   14.701685    ( 0.0000,  0.0000,  0.0000)
  24 Pd     4.226650    5.664441   14.783889    ( 0.0000,  0.0000,  0.0000)
  25 Pd     7.021524    5.717496   14.695770    ( 0.0000,  0.0000,  0.0000)
  26 Ag     9.810161    5.688371   14.690489    ( 0.0000,  0.0000,  0.0000)
  27 Pt     0.030364    1.654579   17.054310    ( 0.0000,  0.0000,  0.0000)
  28 Pd     2.863636    1.668211   17.080253    ( 0.0000,  0.0000,  0.0000)
  29 Pd     5.584811    1.668389   17.077768    ( 0.0000,  0.0000,  0.0000)
  30 Pd     1.451673    4.084780   17.054426    ( 0.0000,  0.0000,  0.0000)
  31 Ru     4.287216    4.070209   17.299465    ( 0.0000,  0.0000,  0.0000)
  32 Pt     6.976254    4.091014   17.095978    ( 0.0000,  0.0000,  0.0000)
  33 Ag     2.791829    6.501265   17.070936    ( 0.0000,  0.0000,  0.0000)
  34 Pt     5.617052    6.449501   17.092744    ( 0.0000,  0.0000,  0.0000)
  35 Ru     8.289070    6.444709   17.186717    ( 0.0000,  0.0000,  0.0000)
  36 Pd     0.109969    0.038419   19.432145    ( 0.0000,  0.0000,  0.0000)
  37 Ru     2.913932   -0.060119   19.211827    ( 0.0000,  0.0000,  0.0000)
  38 Pd     5.607656    0.003198   19.432032    ( 0.0000,  0.0000,  0.0000)
  39 Pt     1.441354    2.458850   19.369405    ( 0.0000,  0.0000,  0.0000)
  40 Pd     4.211433    2.427374   19.463642    ( 0.0000,  0.0000,  0.0000)
  41 Pd     7.082631    2.483306   19.414916    ( 0.0000,  0.0000,  0.0000)
  42 Pt     2.814800    4.836018   19.384744    ( 0.0000,  0.0000,  0.0000)
  43 Pd     5.686541    4.887569   19.522731    ( 0.0000,  0.0000,  0.0000)
  44 Ru     8.428363    4.985817   19.203811    ( 0.0000,  0.0000,  0.0000)
  45 O      5.607656    0.003198   21.522731    ( 0.0000,  0.0000,  0.0000)
  46 H      6.257656    0.653198   21.922731    ( 0.0000,  0.0000,  0.0000)

Unit cell:
           periodic     x           y           z      points  spacing
  1. axis:    yes    8.379498    0.000000    0.000000    35     0.2073
  2. axis:    yes    4.189749    7.256858    0.000000    35     0.2073
  3. axis:    no     0.000000    0.000000   29.243062   135     0.2166

  Lengths:   8.379498   8.379498  29.243062
  Angles:   90.000000  90.000000  60.000000

Effective grid spacing dv^(1/3) = 0.2207

                     log10-error:    total        iterations:
           time      wfs    density  energy       fermi  poisson
iter:   1  00:49:42  +0.50   +inf  -242.981979    3             
iter:   2  00:51:14  -1.06  -1.20  -213.227474    3             
iter:   3  00:52:45  -1.44  -1.32  -212.187589    35            
iter:   4  00:54:15  -1.36  -1.34  -273.878178    34            
iter:   5  00:55:46  -1.57  -1.20  -196.152535    36            
iter:   6  00:57:16  -1.74  -1.50  -189.236288    32            
iter:   7  00:58:47  -2.01  -1.66  -188.374208    35            
iter:   8  01:00:06  -3.10  -1.74  -187.558692    3             
iter:   9  01:01:18  -2.43  -1.76  -192.365908    4             
iter:  10  01:02:33  -2.36  -1.68  -190.025994    3             
iter:  11  01:03:49  -2.52  -1.76  -186.065218    3             
iter:  12  01:05:05  -3.04  -2.05  -186.300153    2             
iter:  13  01:06:19  -2.85  -2.05  -186.582686    3             
iter:  14  01:07:35  -3.42  -2.08  -185.981447    2             
iter:  15  01:08:50  -3.44  -2.19  -185.728855    3             
iter:  16  01:10:06  -3.64  -2.32  -185.518517    3             
iter:  17  01:11:21  -3.52  -2.43  -185.433164    3             
iter:  18  01:12:35  -3.41  -2.58  -185.407453    2             
iter:  19  01:13:51  -4.16  -2.67  -185.380924    3             
iter:  20  01:15:07  -4.38  -2.77  -185.335009    2             
iter:  21  01:16:23  -4.60  -3.04  -185.335320    3             
iter:  22  01:17:37  -5.08  -3.04  -185.330534    2             
iter:  23  01:18:52  -5.30  -3.14  -185.329389    2             
iter:  24  01:20:08  -5.00  -3.23  -185.328142    2             
iter:  25  01:21:23  -5.55  -3.31  -185.331578    2             
iter:  26  01:22:39  -5.69  -3.26  -185.328253    2             
iter:  27  01:23:54  -5.79  -3.42  -185.327419    2             
iter:  28  01:25:09  -5.46  -3.47  -185.328080    2             
iter:  29  01:26:25  -6.06  -3.53  -185.327482    2             
iter:  30  01:27:41  -6.12  -3.63  -185.327384    2             
iter:  31  01:28:56  -6.09  -3.58  -185.328195    2             
iter:  32  01:30:11  -6.48  -3.60  -185.327261    2             
iter:  33  01:31:27  -6.86  -3.75  -185.326918    2             
iter:  34  01:32:42  -7.02  -3.82  -185.327197    2             
iter:  35  01:33:58  -6.63  -3.91  -185.326928    2             
iter:  36  01:35:12  -7.16  -3.98  -185.327034    2             
iter:  37  01:36:27  -6.49  -4.00  -185.327062    2             
iter:  38  01:37:42  -7.13  -4.21  -185.327090    2             
iter:  39  01:38:58  -7.29  -4.26  -185.326947    2             
iter:  40  01:40:14  -7.95  -4.46  -185.327083    2             

Converged after 40 iterations.

Dipole moment: (24.083913, 20.376030, -0.333194) |e|*Ang

Energy contributions relative to reference atoms: (reference = -9073466.092496)

Kinetic:       -174.220248
Potential:      +28.064395
External:        +0.000000
XC:             -33.728500
Entropy (-ST):   -2.034832
Local:           -4.425314
--------------------------
Free energy:   -186.344499
Extrapolated:  -185.327083

Fermi level: 0.77859

Showing only first 2 kpts
 Kpt  Band  Eigenvalues  Occupancy
  0   367      0.74548    0.14551
  0   368      0.78135    0.12328
  0   369      0.80397    0.10922
  0   370      0.82523    0.09637

  1   367      0.64624    0.19744
  1   368      0.68924    0.17740
  1   369      0.72983    0.15489
  1   370      0.74406    0.14637



Forces in eV/Ang:
  0 Pd    0.09419    0.51063   -0.43198
  1 Ag    0.10647    0.49047   -0.52234
  2 Pt   -0.22794    0.51254    0.82282
  3 Pd    0.09368    0.03076   -0.08784
  4 Pd    0.11384   -0.37336    0.19641
  5 Pt   -0.13102   -0.29866   -0.09141
  6 Pd   -0.17393   -0.38803   -0.05743
  7 Ag   -0.12531   -0.45342   -0.71406
  8 Pd   -0.24898   -0.30164    0.27112
  9 Ag    0.51480    0.21815    0.44243
 10 Ru    2.21104    1.28731    0.40578
 11 Ru   -1.85635    0.87760   -0.35520
 12 Pd    1.11976   -0.24404    0.01153
 13 Ru   -0.54163   -1.49925   -0.87577
 14 Ag   -0.44161    0.12708    0.28961
 15 Pd    0.18799   -0.58248    0.08045
 16 Ag   -0.18471   -0.37754    0.34068
 17 Pd   -0.36523    0.54134   -0.01709
 18 Ag   -0.02018   -0.00519    0.00867
 19 Ag   -0.02255   -0.00153    0.02452
 20 Pt   -0.00723   -0.04092   -0.01358
 21 Ag    0.00347    0.00969    0.01171
 22 Ag    0.00764   -0.00803    0.00197
 23 Ag   -0.01116    0.00448    0.02584
 24 Pd   -0.00366    0.01289    0.02851
 25 Pd    0.01978    0.01586    0.01536
 26 Ag   -0.00404   -0.01284    0.03003
 27 Pt    0.02612    0.02699    0.00902
 28 Pd    0.00618   -0.00438   -0.00006
 29 Pd   -0.00765   -0.09651   -0.05286
 30 Pd    0.01402   -0.00700    0.00540
 31 Ru   -0.02585   -0.00901   -0.00433
 32 Pt    0.04704   -0.00859    0.06765
 33 Ag   -0.05163    0.06422   -0.01275
 34 Pt    0.03675    0.03294    0.02352
 35 Ru    0.07333    0.03135   -0.03578
 36 Pd    0.11886   -0.02442    0.02065
 37 Ru   -0.20880   -0.00907   -0.00198
 38 Pd    0.04127    0.18155    0.74637
 39 Pt   -0.02951   -0.02909    0.06309
 40 Pd   -0.01871    0.01124    0.01618
 41 Pd    0.02685    0.10920    0.00505
 42 Pt    0.08893   -0.09655   -0.08080
 43 Pd   -0.03859   -0.00349   -0.02768
 44 Ru   -0.17649   -0.17153   -0.06490
 45 O     0.27614    0.29423   -0.14470
 46 H    -0.38343   -0.36392   -0.44639

System changes: positions 

Initializing position-dependent things.

Density initialized from wave functions
                                             
                                             
                                             
                                             
                                             
                                             
                                             
                                             
                 Pt    H Pd    Ru            
                     O                       
            Pt    APd    PPd    Ru           
        Pd           Pd    Pt                
              Ru                             
        Pt     Pd    PPd    Pd     Ag        
                                             
                Ag     Ag     Ag             
                                             
           Ag    PAg    APt    Pd            
                                             
            Pd     Ru     Ag     Pd          
       Ag    PRu    PRu    Pt                
                                             
        Pd     Ag     Pt                     
                                             
                                             
                                             
                                             
                                             

Positions:
   0 Pd     0.000000    1.633958   10.000000    ( 0.0000,  0.0000,  0.0000)
   1 Ag     2.830098    1.633958   10.000000    ( 0.0000,  0.0000,  0.0000)
   2 Pt     5.660196    1.633958   10.000000    ( 0.0000,  0.0000,  0.0000)
   3 Pd     1.415049    4.084895   10.000000    ( 0.0000,  0.0000,  0.0000)
   4 Pd     4.245147    4.084895   10.000000    ( 0.0000,  0.0000,  0.0000)
   5 Pt     7.075245    4.084895   10.000000    ( 0.0000,  0.0000,  0.0000)
   6 Pd     2.830098    6.535832   10.000000    ( 0.0000,  0.0000,  0.0000)
   7 Ag     5.660196    6.535832   10.000000    ( 0.0000,  0.0000,  0.0000)
   8 Pd     8.490294    6.535832   10.000000    ( 0.0000,  0.0000,  0.0000)
   9 Ag     0.000000    0.000000   12.310765    ( 0.0000,  0.0000,  0.0000)
  10 Ru     2.830098    0.000000   12.310765    ( 0.0000,  0.0000,  0.0000)
  11 Ru     5.660196    0.000000   12.310765    ( 0.0000,  0.0000,  0.0000)
  12 Pd     1.415049    2.450937   12.310765    ( 0.0000,  0.0000,  0.0000)
  13 Ru     4.245147    2.450937   12.310765    ( 0.0000,  0.0000,  0.0000)
  14 Ag     7.075245    2.450937   12.310765    ( 0.0000,  0.0000,  0.0000)
  15 Pd     2.830098    4.901874   12.310765    ( 0.0000,  0.0000,  0.0000)
  16 Ag     5.660196    4.901874   12.310765    ( 0.0000,  0.0000,  0.0000)
  17 Pd     8.490294    4.901874   12.310765    ( 0.0000,  0.0000,  0.0000)
  18 Ag     1.420820    0.835839   14.688069    ( 0.0000,  0.0000,  0.0000)
  19 Ag     4.226035    0.833875   14.670989    ( 0.0000,  0.0000,  0.0000)
  20 Pt     7.000153    0.829330   14.675990    ( 0.0000,  0.0000,  0.0000)
  21 Ag     2.849757    3.276024   14.698817    ( 0.0000,  0.0000,  0.0000)
  22 Ag     5.607783    3.275232   14.715960    ( 0.0000,  0.0000,  0.0000)
  23 Ag     8.406520    3.279020   14.704269    ( 0.0000,  0.0000,  0.0000)
  24 Pd     4.226284    5.665729   14.786740    ( 0.0000,  0.0000,  0.0000)
  25 Pd     7.023502    5.719082   14.697307    ( 0.0000,  0.0000,  0.0000)
  26 Ag     9.809757    5.687087   14.693492    ( 0.0000,  0.0000,  0.0000)
  27 Pt     0.032975    1.657278   17.055211    ( 0.0000,  0.0000,  0.0000)
  28 Pd     2.864254    1.667773   17.080247    ( 0.0000,  0.0000,  0.0000)
  29 Pd     5.584045    1.658738   17.072483    ( 0.0000,  0.0000,  0.0000)
  30 Pd     1.453075    4.084080   17.054966    ( 0.0000,  0.0000,  0.0000)
  31 Ru     4.284631    4.069308   17.299032    ( 0.0000,  0.0000,  0.0000)
  32 Pt     6.980958    4.090155   17.102744    ( 0.0000,  0.0000,  0.0000)
  33 Ag     2.786666    6.507687   17.069661    ( 0.0000,  0.0000,  0.0000)
  34 Pt     5.620727    6.452795   17.095095    ( 0.0000,  0.0000,  0.0000)
  35 Ru     8.296404    6.447844   17.183139    ( 0.0000,  0.0000,  0.0000)
  36 Pd     0.121854    0.035977   19.434210    ( 0.0000,  0.0000,  0.0000)
  37 Ru     2.893051   -0.061026   19.211629    ( 0.0000,  0.0000,  0.0000)
  38 Pd     5.611783    0.021353   19.506669    ( 0.0000,  0.0000,  0.0000)
  39 Pt     1.438403    2.455941   19.375714    ( 0.0000,  0.0000,  0.0000)
  40 Pd     4.209562    2.428497   19.465260    ( 0.0000,  0.0000,  0.0000)
  41 Pd     7.085316    2.494226   19.415420    ( 0.0000,  0.0000,  0.0000)
  42 Pt     2.823693    4.826363   19.376664    ( 0.0000,  0.0000,  0.0000)
  43 Pd     5.682681    4.887220   19.519963    ( 0.0000,  0.0000,  0.0000)
  44 Ru     8.410714    4.968664   19.197321    ( 0.0000,  0.0000,  0.0000)
  45 O      5.635270    0.032621   21.508261    ( 0.0000,  0.0000,  0.0000)
  46 H      6.219313    0.616806   21.878092    ( 0.0000,  0.0000,  0.0000)

Unit cell:
           periodic     x           y           z      points  spacing
  1. axis:    yes    8.379498    0.000000    0.000000    35     0.2073
  2. axis:    yes    4.189749    7.256858    0.000000    35     0.2073
  3. axis:    no     0.000000    0.000000   29.243062   135     0.2166

  Lengths:   8.379498   8.379498  29.243062
  Angles:   90.000000  90.000000  60.000000

Effective grid spacing dv^(1/3) = 0.2207

                     log10-error:    total        iterations:
           time      wfs    density  energy       fermi  poisson
iter:   1  01:42:04  -2.33   +inf  -187.414626    4             
iter:   2  01:43:19  -1.92  -2.09  -214.304095    36            
iter:   3  01:44:35  -1.56  -1.55  -228.857864    36            
iter:   4  01:45:50  -2.32  -1.47  -187.828196    37            
iter:   5  01:47:05  -2.92  -2.11  -185.776951    4             
iter:   6  01:48:20  -3.51  -2.45  -185.341009    2             
iter:   7  01:49:35  -3.95  -2.72  -185.253199    3             
iter:   8  01:50:41  -4.46  -2.87  -185.242379    3             
iter:   9  01:51:47  -4.59  -2.89  -185.220626    2             
iter:  10  01:52:53  -4.68  -2.94  -185.215331    3             
iter:  11  01:53:59  -4.19  -2.94  -185.206388    3             
iter:  12  01:55:05  -4.58  -3.08  -185.189823    3             
iter:  13  01:56:11  -5.40  -3.28  -185.187677    2             
iter:  14  01:57:16  -5.50  -3.39  -185.191765    2             
iter:  15  01:58:22  -5.46  -3.25  -185.188234    3             
iter:  16  01:59:30  -5.51  -3.50  -185.185928    2             
iter:  17  02:00:36  -5.40  -3.66  -185.187907    3             
iter:  18  02:01:41  -6.22  -3.53  -185.187416    2             
iter:  19  02:02:47  -6.15  -3.70  -185.186202    2             
iter:  20  02:03:52  -6.38  -3.86  -185.186749    2             
iter:  21  02:04:58  -6.49  -3.76  -185.186643    2             
iter:  22  02:06:30  -6.47  -3.92  -185.186219    2             
iter:  23  02:08:01  -6.95  -3.87  -185.186052    2             
iter:  24  02:09:32  -6.62  -4.19  -185.186530    2             
iter:  25  02:11:03  -6.99  -4.22  -185.186094    2             
iter:  26  02:12:35  -6.91  -4.10  -185.186085    2             
iter:  27  02:14:06  -7.37  -4.34  -185.186195    2             
iter:  28  02:15:37  -7.54  -4.46  -185.186135    2             

Converged after 28 iterations.

Dipole moment: (21.432479, 17.810032, -0.303876) |e|*Ang

Energy contributions relative to reference atoms: (reference = -9073466.092496)

Kinetic:       -171.293415
Potential:      +26.494997
External:        +0.000000
XC:             -34.949898
Entropy (-ST):   -2.037642
Local:           -4.418999
--------------------------
Free energy:   -186.204956
Extrapolated:  -185.186135

Fermi level: 0.79355

Showing only first 2 kpts
 Kpt  Band  Eigenvalues  Occupancy
  0   367      0.75903    0.14636
  0   368      0.79328    0.12517
  0   369      0.81824    0.10965
  0   370      0.83761    0.09790

  1   367      0.66177    0.19720
  1   368      0.70610    0.17642
  1   369      0.74592    0.15422
  1   370      0.75518    0.14869



Forces in eV/Ang:
  0 Pd    0.09732    0.51315   -0.41644
  1 Ag    0.10257    0.49241   -0.50975
  2 Pt   -0.22884    0.50972    0.84202
  3 Pd    0.09611    0.03274   -0.06965
  4 Pd    0.10628   -0.37011    0.21143
  5 Pt   -0.12575   -0.29848   -0.06977
  6 Pd   -0.17563   -0.39389   -0.04372
  7 Ag   -0.12703   -0.45225   -0.70191
  8 Pd   -0.24485   -0.30464    0.28686
  9 Ag    0.51767    0.21771    0.43760
 10 Ru    2.20901    1.28775    0.40838
 11 Ru   -1.86183    0.87146   -0.35313
 12 Pd    1.11454   -0.23939    0.01321
 13 Ru   -0.54553   -1.49447   -0.87523
 14 Ag   -0.43482    0.13131    0.29134
 15 Pd    0.18537   -0.58604    0.07631
 16 Ag   -0.18330   -0.37714    0.35343
 17 Pd   -0.36199    0.53736   -0.01641
 18 Ag   -0.00792    0.00557   -0.00323
 19 Ag   -0.01450    0.00613   -0.00230
 20 Pt   -0.00823   -0.00322   -0.02501
 21 Ag    0.00438   -0.00015    0.00213
 22 Ag    0.00781    0.00248    0.00971
 23 Ag   -0.01210   -0.00400    0.00321
 24 Pd    0.01448   -0.01156    0.02411
 25 Pd   -0.00367   -0.00355    0.00049
 26 Ag   -0.00589   -0.01265    0.00412
 27 Pt    0.01081    0.00187    0.00794
 28 Pd    0.01492    0.00906   -0.00050
 29 Pd   -0.01795   -0.06146    0.04344
 30 Pd    0.02602    0.01095    0.00739
 31 Ru    0.01654   -0.01481   -0.07703
 32 Pt   -0.04451   -0.02695   -0.04126
 33 Ag   -0.04908    0.03857    0.12961
 34 Pt   -0.00950   -0.01383   -0.04395
 35 Ru    0.02688    0.03176    0.18211
 36 Pd    0.01259   -0.00961    0.01434
 37 Ru    0.01889   -0.01792   -0.08623
 38 Pd   -0.02532    0.01181   -0.22745
 39 Pt    0.01120   -0.00724    0.01544
 40 Pd    0.00158   -0.02337   -0.02151
 41 Pd   -0.01311    0.02624    0.01479
 42 Pt   -0.00304    0.01211   -0.08294
 43 Pd   -0.05183   -0.02272   -0.01036
 44 Ru   -0.01032    0.05662   -0.08746
 45 O    -3.11683   -3.20696   -1.54752
 46 H     3.10551    3.13087    1.77207

System changes: positions 

Initializing position-dependent things.

Density initialized from wave functions
                                             
                                             
                                             
                                             
                                             
                                             
                                             
                                             
                 Pt    H Pd    Ru            
                     O                       
            Pt    APd    PPd    Ru           
        Pd           Pd                      
              Ru           Pt                
        Pt     Pd    PPd    Pd     Ag        
                                             
                Ag     Ag     Ag             
                                             
           Ag    PAg    APt    Pd            
                                             
            Pd     Ru     Ag     Pd          
       Ag    PRu    PRu    Pt                
                                             
        Pd     Ag     Pt                     
                                             
                                             
                                             
                                             
                                             

Positions:
   0 Pd     0.000000    1.633958   10.000000    ( 0.0000,  0.0000,  0.0000)
   1 Ag     2.830098    1.633958   10.000000    ( 0.0000,  0.0000,  0.0000)
   2 Pt     5.660196    1.633958   10.000000    ( 0.0000,  0.0000,  0.0000)
   3 Pd     1.415049    4.084895   10.000000    ( 0.0000,  0.0000,  0.0000)
   4 Pd     4.245147    4.084895   10.000000    ( 0.0000,  0.0000,  0.0000)
   5 Pt     7.075245    4.084895   10.000000    ( 0.0000,  0.0000,  0.0000)
   6 Pd     2.830098    6.535832   10.000000    ( 0.0000,  0.0000,  0.0000)
   7 Ag     5.660196    6.535832   10.000000    ( 0.0000,  0.0000,  0.0000)
   8 Pd     8.490294    6.535832   10.000000    ( 0.0000,  0.0000,  0.0000)
   9 Ag     0.000000    0.000000   12.310765    ( 0.0000,  0.0000,  0.0000)
  10 Ru     2.830098    0.000000   12.310765    ( 0.0000,  0.0000,  0.0000)
  11 Ru     5.660196    0.000000   12.310765    ( 0.0000,  0.0000,  0.0000)
  12 Pd     1.415049    2.450937   12.310765    ( 0.0000,  0.0000,  0.0000)
  13 Ru     4.245147    2.450937   12.310765    ( 0.0000,  0.0000,  0.0000)
  14 Ag     7.075245    2.450937   12.310765    ( 0.0000,  0.0000,  0.0000)
  15 Pd     2.830098    4.901874   12.310765    ( 0.0000,  0.0000,  0.0000)
  16 Ag     5.660196    4.901874   12.310765    ( 0.0000,  0.0000,  0.0000)
  17 Pd     8.490294    4.901874   12.310765    ( 0.0000,  0.0000,  0.0000)
  18 Ag     1.422286    0.836216   14.687439    ( 0.0000,  0.0000,  0.0000)
  19 Ag     4.227673    0.833987   14.669208    ( 0.0000,  0.0000,  0.0000)
  20 Pt     7.000678    0.832302   14.676977    ( 0.0000,  0.0000,  0.0000)
  21 Ag     2.849505    3.275320   14.697967    ( 0.0000,  0.0000,  0.0000)
  22 Ag     5.607229    3.275815   14.715817    ( 0.0000,  0.0000,  0.0000)
  23 Ag     8.407330    3.278694   14.702392    ( 0.0000,  0.0000,  0.0000)
  24 Pd     4.226550    5.664793   14.784670    ( 0.0000,  0.0000,  0.0000)
  25 Pd     7.022066    5.717930   14.696191    ( 0.0000,  0.0000,  0.0000)
  26 Ag     9.810051    5.688020   14.691311    ( 0.0000,  0.0000,  0.0000)
  27 Pt     0.031079    1.655318   17.054557    ( 0.0000,  0.0000,  0.0000)
  28 Pd     2.863805    1.668091   17.080251    ( 0.0000,  0.0000,  0.0000)
  29 Pd     5.584601    1.665747   17.076321    ( 0.0000,  0.0000,  0.0000)
  30 Pd     1.452057    4.084588   17.054574    ( 0.0000,  0.0000,  0.0000)
  31 Ru     4.286508    4.069962   17.299346    ( 0.0000,  0.0000,  0.0000)
  32 Pt     6.977542    4.090779   17.097830    ( 0.0000,  0.0000,  0.0000)
  33 Ag     2.790416    6.503023   17.070587    ( 0.0000,  0.0000,  0.0000)
  34 Pt     5.618058    6.450402   17.093387    ( 0.0000,  0.0000,  0.0000)
  35 Ru     8.291078    6.445567   17.185737    ( 0.0000,  0.0000,  0.0000)
  36 Pd     0.113222    0.037750   19.432710    ( 0.0000,  0.0000,  0.0000)
  37 Ru     2.908216   -0.060367   19.211772    ( 0.0000,  0.0000,  0.0000)
  38 Pd     5.608786    0.008168   19.452464    ( 0.0000,  0.0000,  0.0000)
  39 Pt     1.440546    2.458053   19.371132    ( 0.0000,  0.0000,  0.0000)
  40 Pd     4.210921    2.427681   19.464084    ( 0.0000,  0.0000,  0.0000)
  41 Pd     7.083366    2.486295   19.415054    ( 0.0000,  0.0000,  0.0000)
  42 Pt     2.817234    4.833375   19.382532    ( 0.0000,  0.0000,  0.0000)
  43 Pd     5.685484    4.887474   19.521973    ( 0.0000,  0.0000,  0.0000)
  44 Ru     8.423532    4.981121   19.202035    ( 0.0000,  0.0000,  0.0000)
  45 O      5.615215    0.011253   21.518770    ( 0.0000,  0.0000,  0.0000)
  46 H      6.247160    0.643236   21.910511    ( 0.0000,  0.0000,  0.0000)

Unit cell:
           periodic     x           y           z      points  spacing
  1. axis:    yes    8.379498    0.000000    0.000000    35     0.2073
  2. axis:    yes    4.189749    7.256858    0.000000    35     0.2073
  3. axis:    no     0.000000    0.000000   29.243062   135     0.2166

  Lengths:   8.379498   8.379498  29.243062
  Angles:   90.000000  90.000000  60.000000

Effective grid spacing dv^(1/3) = 0.2207

                     log10-error:    total        iterations:
           time      wfs    density  energy       fermi  poisson
iter:   1  02:17:48  -2.52   +inf  -185.963923    3             
iter:   2  02:19:20  -2.97  -2.49  -185.805370    4             
iter:   3  02:20:50  -3.15  -2.44  -188.008347    3             
iter:   4  02:22:21  -3.29  -1.98  -185.771439    2             
iter:   5  02:23:52  -3.55  -2.42  -185.693092    3             
iter:   6  02:25:23  -4.07  -2.43  -185.453721    3             
iter:   7  02:26:54  -4.43  -2.67  -185.380612    3             
iter:   8  02:28:25  -5.24  -2.95  -185.362093    3             
iter:   9  02:29:56  -4.49  -3.29  -185.349459    3             
iter:  10  02:31:27  -4.73  -3.30  -185.357012    3             
iter:  11  02:32:59  -5.54  -3.21  -185.349082    2             
iter:  12  02:34:30  -6.05  -3.71  -185.348198    2             
iter:  13  02:36:01  -6.50  -3.75  -185.349097    2             
iter:  14  02:37:32  -5.84  -3.68  -185.348886    2             
iter:  15  02:39:03  -5.97  -3.93  -185.348810    2             
iter:  16  02:40:34  -6.44  -3.54  -185.348269    2             
iter:  17  02:42:05  -6.61  -4.08  -185.348711    2             
iter:  18  02:43:36  -6.63  -4.17  -185.348253    2             
iter:  19  02:45:07  -6.73  -4.17  -185.348262    2             
iter:  20  02:46:38  -7.43  -4.46  -185.348399    2             

Converged after 20 iterations.

Dipole moment: (23.351677, 19.666770, -0.325827) |e|*Ang

Energy contributions relative to reference atoms: (reference = -9073466.092496)

Kinetic:       -175.239685
Potential:      +29.310000
External:        +0.000000
XC:             -33.952597
Entropy (-ST):   -2.035447
Local:           -4.448394
--------------------------
Free energy:   -186.366123
Extrapolated:  -185.348399

Fermi level: 0.78267

Showing only first 2 kpts
 Kpt  Band  Eigenvalues  Occupancy
  0   367      0.74924    0.14570
  0   368      0.78463    0.12378
  0   369      0.80786    0.10934
  0   370      0.82853    0.09683

  1   367      0.65047    0.19738
  1   368      0.69378    0.17717
  1   369      0.73454    0.15451
  1   370      0.74695    0.14709



Forces in eV/Ang:
  0 Pd    0.09711    0.51043   -0.42346
  1 Ag    0.10305    0.49225   -0.51620
  2 Pt   -0.22966    0.50899    0.83351
  3 Pd    0.09746    0.03232   -0.07734
  4 Pd    0.10648   -0.37016    0.20736
  5 Pt   -0.12762   -0.29709   -0.07884
  6 Pd   -0.17438   -0.39297   -0.04742
  7 Ag   -0.12737   -0.45150   -0.70657
  8 Pd   -0.24532   -0.30368    0.28048
  9 Ag    0.51531    0.21840    0.44075
 10 Ru    2.21455    1.28903    0.40941
 11 Ru   -1.86162    0.87278   -0.35718
 12 Pd    1.11772   -0.24016    0.01184
 13 Ru   -0.54498   -1.49711   -0.87346
 14 Ag   -0.43731    0.12961    0.29058
 15 Pd    0.18476   -0.58562    0.07696
 16 Ag   -0.18517   -0.37832    0.34793
 17 Pd   -0.36082    0.54034   -0.01713
 18 Ag   -0.01374   -0.00332    0.00454
 19 Ag   -0.02135    0.00086    0.02114
 20 Pt   -0.00978   -0.02945   -0.01642
 21 Ag    0.00477    0.00659    0.00875
 22 Ag    0.00604   -0.00410    0.00259
 23 Ag   -0.01076    0.00481    0.01543
 24 Pd    0.00411    0.00382    0.02467
 25 Pd    0.01348    0.01162    0.00874
 26 Ag   -0.00594   -0.01392    0.02255
 27 Pt    0.01625    0.01848    0.00978
 28 Pd    0.01793    0.00110   -0.00677
 29 Pd   -0.01427   -0.08827   -0.02257
 30 Pd    0.02125   -0.00070   -0.00005
 31 Ru   -0.01469   -0.01589   -0.02386
 32 Pt    0.01859   -0.02024    0.03355
 33 Ag   -0.05566    0.06023    0.02882
 34 Pt    0.02034    0.02137   -0.00149
 35 Ru    0.06838    0.04038    0.02598
 36 Pd    0.10595   -0.02908   -0.00243
 37 Ru   -0.13921   -0.01453   -0.01998
 38 Pd    0.00773    0.12256    0.53516
 39 Pt   -0.01400   -0.01966    0.04255
 40 Pd   -0.01979    0.00205   -0.00785
 41 Pd    0.01935    0.10573   -0.02235
 42 Pt    0.06008   -0.06890   -0.08186
 43 Pd   -0.03848   -0.00668   -0.02853
 44 Ru   -0.12902   -0.09953   -0.06564
 45 O    -0.33783   -0.36209   -0.46362
 46 H     0.37520    0.39528    0.02616

System changes: positions 

Initializing position-dependent things.

Density initialized from wave functions
                                             
                                             
                                             
                                             
                                             
                                             
                                             
                                             
                 Pt    HPd     Ru            
            Pt    APdO   PPd    Ru           
                                             
        Pd    Ru     Pd    Pt                
                                             
        Pt     Pd    PPd    Pd     Ag        
                Ag     Ag     Ag             
                                             
           Ag    PAg    APt    Pd            
                                             
            Pd     Ru     Ag     Pd          
       Ag     Ru     Ru                      
             Pd     Pd     Pt                
        Pd     Ag     Pt                     
                                             
                                             
                                             
                                             
                                             

Positions:
   0 Pd     0.000000    1.633958   10.000000    ( 0.0000,  0.0000,  0.0000)
   1 Ag     2.830098    1.633958   10.000000    ( 0.0000,  0.0000,  0.0000)
   2 Pt     5.660196    1.633958   10.000000    ( 0.0000,  0.0000,  0.0000)
   3 Pd     1.415049    4.084895   10.000000    ( 0.0000,  0.0000,  0.0000)
   4 Pd     4.245147    4.084895   10.000000    ( 0.0000,  0.0000,  0.0000)
   5 Pt     7.075245    4.084895   10.000000    ( 0.0000,  0.0000,  0.0000)
   6 Pd     2.830098    6.535832   10.000000    ( 0.0000,  0.0000,  0.0000)
   7 Ag     5.660196    6.535832   10.000000    ( 0.0000,  0.0000,  0.0000)
   8 Pd     8.490294    6.535832   10.000000    ( 0.0000,  0.0000,  0.0000)
   9 Ag     0.000000    0.000000   12.310765    ( 0.0000,  0.0000,  0.0000)
  10 Ru     2.830098    0.000000   12.310765    ( 0.0000,  0.0000,  0.0000)
  11 Ru     5.660196    0.000000   12.310765    ( 0.0000,  0.0000,  0.0000)
  12 Pd     1.415049    2.450937   12.310765    ( 0.0000,  0.0000,  0.0000)
  13 Ru     4.245147    2.450937   12.310765    ( 0.0000,  0.0000,  0.0000)
  14 Ag     7.075245    2.450937   12.310765    ( 0.0000,  0.0000,  0.0000)
  15 Pd     2.830098    4.901874   12.310765    ( 0.0000,  0.0000,  0.0000)
  16 Ag     5.660196    4.901874   12.310765    ( 0.0000,  0.0000,  0.0000)
  17 Pd     8.490294    4.901874   12.310765    ( 0.0000,  0.0000,  0.0000)
  18 Ag     1.418933    0.835377   14.688728    ( 0.0000,  0.0000,  0.0000)
  19 Ag     4.223259    0.833944   14.673776    ( 0.0000,  0.0000,  0.0000)
  20 Pt     6.998937    0.825326   14.673922    ( 0.0000,  0.0000,  0.0000)
  21 Ag     2.850349    3.276929   14.699998    ( 0.0000,  0.0000,  0.0000)
  22 Ag     5.608591    3.274632   14.716283    ( 0.0000,  0.0000,  0.0000)
  23 Ag     8.405125    3.279635   14.706446    ( 0.0000,  0.0000,  0.0000)
  24 Pd     4.226676    5.666384   14.789991    ( 0.0000,  0.0000,  0.0000)
  25 Pd     7.025353    5.720657   14.698552    ( 0.0000,  0.0000,  0.0000)
  26 Ag     9.809025    5.685310   14.696534    ( 0.0000,  0.0000,  0.0000)
  27 Pt     0.035247    1.659813   17.056459    ( 0.0000,  0.0000,  0.0000)
  28 Pd     2.866357    1.667817   17.079493    ( 0.0000,  0.0000,  0.0000)
  29 Pd     5.582323    1.647203   17.069031    ( 0.0000,  0.0000,  0.0000)
  30 Pd     1.455687    4.083878   17.055057    ( 0.0000,  0.0000,  0.0000)
  31 Ru     4.282537    4.067381   17.296303    ( 0.0000,  0.0000,  0.0000)
  32 Pt     6.983864    4.087751   17.107680    ( 0.0000,  0.0000,  0.0000)
  33 Ag     2.779558    6.515528   17.072637    ( 0.0000,  0.0000,  0.0000)
  34 Pt     5.623644    6.455758   17.095349    ( 0.0000,  0.0000,  0.0000)
  35 Ru     8.305313    6.452892   17.185387    ( 0.0000,  0.0000,  0.0000)
  36 Pd     0.135753    0.032309   19.434308    ( 0.0000,  0.0000,  0.0000)
  37 Ru     2.873850   -0.062803   19.209372    ( 0.0000,  0.0000,  0.0000)
  38 Pd     5.613379    0.038217   19.579479    ( 0.0000,  0.0000,  0.0000)
  39 Pt     1.436320    2.453235   19.381569    ( 0.0000,  0.0000,  0.0000)
  40 Pd     4.207029    2.428926   19.464675    ( 0.0000,  0.0000,  0.0000)
  41 Pd     7.087947    2.507927   19.413026    ( 0.0000,  0.0000,  0.0000)
  42 Pt     2.831959    4.816980   19.366123    ( 0.0000,  0.0000,  0.0000)
  43 Pd     5.677715    4.886415   19.516298    ( 0.0000,  0.0000,  0.0000)
  44 Ru     8.393222    4.954538   19.188867    ( 0.0000,  0.0000,  0.0000)
  45 O      5.602652   -0.002370   21.454147    ( 0.0000,  0.0000,  0.0000)
  46 H      6.254168    0.654243   21.873028    ( 0.0000,  0.0000,  0.0000)

Unit cell:
           periodic     x           y           z      points  spacing
  1. axis:    yes    8.379498    0.000000    0.000000    35     0.2073
  2. axis:    yes    4.189749    7.256858    0.000000    35     0.2073
  3. axis:    no     0.000000    0.000000   29.243062   135     0.2166

  Lengths:   8.379498   8.379498  29.243062
  Angles:   90.000000  90.000000  60.000000

Effective grid spacing dv^(1/3) = 0.2207

                     log10-error:    total        iterations:
           time      wfs    density  energy       fermi  poisson
iter:   1  02:48:50  -2.00   +inf  -185.783718    3             
iter:   2  02:50:21  -2.34  -2.31  -201.546090    35            
iter:   3  02:51:53  -2.72  -1.68  -185.528126    37            
iter:   4  02:53:24  -3.40  -2.47  -185.262386    3             
iter:   5  02:54:56  -4.07  -2.76  -185.230667    3             
iter:   6  02:56:27  -4.03  -2.90  -185.216248    3             
iter:   7  02:57:59  -4.08  -2.93  -185.208148    2             
iter:   8  02:59:21  -4.21  -3.06  -185.400961    3             
iter:   9  03:00:30  -4.48  -2.52  -185.193923    3             
iter:  10  03:01:45  -4.75  -3.29  -185.199585    2             
iter:  11  03:03:00  -5.14  -3.09  -185.190688    2             
iter:  12  03:04:15  -5.44  -3.43  -185.189588    3             
iter:  13  03:05:30  -5.76  -3.36  -185.188569    2             
iter:  14  03:06:45  -5.81  -3.60  -185.189391    2             
iter:  15  03:08:01  -5.51  -3.46  -185.190165    2             
iter:  16  03:09:15  -5.94  -3.45  -185.187597    2             
iter:  17  03:10:30  -6.05  -3.92  -185.188623    2             
iter:  18  03:11:47  -6.08  -3.72  -185.187371    2             
iter:  19  03:13:02  -6.44  -4.00  -185.188147    2             
iter:  20  03:14:18  -6.41  -3.86  -185.187893    2             
iter:  21  03:15:33  -6.87  -4.10  -185.187526    2             
iter:  22  03:16:48  -6.84  -4.15  -185.187604    2             
iter:  23  03:18:03  -7.23  -4.10  -185.187722    2             
iter:  24  03:19:17  -7.11  -4.25  -185.187538    2             
iter:  25  03:20:33  -7.44  -4.22  -185.187629    2             

Converged after 25 iterations.

Dipole moment: (21.407597, 19.862178, -0.196977) |e|*Ang

Energy contributions relative to reference atoms: (reference = -9073466.092496)

Kinetic:       -172.046706
Potential:      +26.342003
External:        +0.000000
XC:             -34.058106
Entropy (-ST):   -2.042784
Local:           -4.403428
--------------------------
Free energy:   -186.209020
Extrapolated:  -185.187629

Fermi level: 0.84426

Showing only first 2 kpts
 Kpt  Band  Eigenvalues  Occupancy
  0   367      0.80747    0.14773
  0   368      0.84025    0.12750
  0   369      0.86841    0.10997
  0   370      0.88644    0.09902

  1   367      0.71268    0.19712
  1   368      0.75821    0.17569
  1   369      0.79419    0.15565
  1   370      0.80472    0.14939



Forces in eV/Ang:
  0 Pd    0.09820    0.50913   -0.42346
  1 Ag    0.10192    0.49132   -0.51683
  2 Pt   -0.23035    0.50912    0.83477
  3 Pd    0.09735    0.03221   -0.07764
  4 Pd    0.10722   -0.36851    0.20695
  5 Pt   -0.12938   -0.29613   -0.08082
  6 Pd   -0.17234   -0.39335   -0.04792
  7 Ag   -0.12724   -0.45147   -0.70824
  8 Pd   -0.24804   -0.30438    0.27896
  9 Ag    0.51944    0.21502    0.43606
 10 Ru    2.21278    1.28955    0.41141
 11 Ru   -1.86959    0.86928   -0.33669
 12 Pd    1.11375   -0.23933    0.02057
 13 Ru   -0.54676   -1.49853   -0.87190
 14 Ag   -0.43400    0.13075    0.29710
 15 Pd    0.18552   -0.58533    0.08465
 16 Ag   -0.18225   -0.37512    0.36464
 17 Pd   -0.35983    0.53953   -0.00883
 18 Ag   -0.00416    0.01765   -0.00344
 19 Ag    0.00085    0.00620   -0.03039
 20 Pt   -0.00666    0.02108   -0.01959
 21 Ag    0.00048   -0.00756   -0.00450
 22 Ag    0.00630    0.00168    0.01921
 23 Ag   -0.00753   -0.01829   -0.00073
 24 Pd    0.01025   -0.02403    0.02900
 25 Pd   -0.01880   -0.01701   -0.00159
 26 Ag   -0.00053   -0.00122   -0.00979
 27 Pt    0.00808   -0.01721    0.00544
 28 Pd   -0.00639    0.01133    0.00222
 29 Pd   -0.01536    0.00311    0.12989
 30 Pd    0.01080    0.01767    0.00189
 31 Ru    0.06168   -0.00530   -0.15216
 32 Pt   -0.11923   -0.01534   -0.14691
 33 Ag    0.00621   -0.01164    0.20365
 34 Pt   -0.04391   -0.06510   -0.09661
 35 Ru   -0.08348   -0.01229    0.21631
 36 Pd   -0.08405    0.01355    0.00438
 37 Ru    0.19698   -0.01452   -0.05657
 38 Pd   -0.06555   -0.09911   -2.34937
 39 Pt    0.03750    0.00594    0.01132
 40 Pd    0.00521   -0.03868   -0.04255
 41 Pd   -0.03709   -0.05292    0.02122
 42 Pt   -0.07495    0.10349   -0.00760
 43 Pd   -0.04456   -0.03317    0.02041
 44 Ru    0.12689    0.22469    0.00093
 45 O     0.58608    0.58515    2.87416
 46 H    -0.69377   -0.67716   -0.55558

System changes: positions 

Initializing position-dependent things.

Density initialized from wave functions
                                             
                                             
                                             
                                             
                                             
                                             
                                             
                                             
                 Pt    H Pd    Ru            
                     O                       
            Pt    APd    PPd    Ru           
        Pd           Pd    Pt                
              Ru                             
        Pt     Pd    PPd    Pd     Ag        
                                             
                Ag     Ag     Ag             
                                             
           Ag    PAg    APt    Pd            
                                             
            Pd     Ru     Ag     Pd          
       Ag    PRu    PRu    Pt                
                                             
        Pd     Ag     Pt                     
                                             
                                             
                                             
                                             
                                             

Positions:
   0 Pd     0.000000    1.633958   10.000000    ( 0.0000,  0.0000,  0.0000)
   1 Ag     2.830098    1.633958   10.000000    ( 0.0000,  0.0000,  0.0000)
   2 Pt     5.660196    1.633958   10.000000    ( 0.0000,  0.0000,  0.0000)
   3 Pd     1.415049    4.084895   10.000000    ( 0.0000,  0.0000,  0.0000)
   4 Pd     4.245147    4.084895   10.000000    ( 0.0000,  0.0000,  0.0000)
   5 Pt     7.075245    4.084895   10.000000    ( 0.0000,  0.0000,  0.0000)
   6 Pd     2.830098    6.535832   10.000000    ( 0.0000,  0.0000,  0.0000)
   7 Ag     5.660196    6.535832   10.000000    ( 0.0000,  0.0000,  0.0000)
   8 Pd     8.490294    6.535832   10.000000    ( 0.0000,  0.0000,  0.0000)
   9 Ag     0.000000    0.000000   12.310765    ( 0.0000,  0.0000,  0.0000)
  10 Ru     2.830098    0.000000   12.310765    ( 0.0000,  0.0000,  0.0000)
  11 Ru     5.660196    0.000000   12.310765    ( 0.0000,  0.0000,  0.0000)
  12 Pd     1.415049    2.450937   12.310765    ( 0.0000,  0.0000,  0.0000)
  13 Ru     4.245147    2.450937   12.310765    ( 0.0000,  0.0000,  0.0000)
  14 Ag     7.075245    2.450937   12.310765    ( 0.0000,  0.0000,  0.0000)
  15 Pd     2.830098    4.901874   12.310765    ( 0.0000,  0.0000,  0.0000)
  16 Ag     5.660196    4.901874   12.310765    ( 0.0000,  0.0000,  0.0000)
  17 Pd     8.490294    4.901874   12.310765    ( 0.0000,  0.0000,  0.0000)
  18 Ag     1.421425    0.836001   14.687770    ( 0.0000,  0.0000,  0.0000)
  19 Ag     4.226539    0.833976   14.670381    ( 0.0000,  0.0000,  0.0000)
  20 Pt     7.000231    0.830510   14.676192    ( 0.0000,  0.0000,  0.0000)
  21 Ag     2.849722    3.275733   14.698488    ( 0.0000,  0.0000,  0.0000)
  22 Ag     5.607579    3.275511   14.715937    ( 0.0000,  0.0000,  0.0000)
  23 Ag     8.406764    3.278936   14.703433    ( 0.0000,  0.0000,  0.0000)
  24 Pd     4.226582    5.665202   14.786036    ( 0.0000,  0.0000,  0.0000)
  25 Pd     7.022910    5.718630   14.696797    ( 0.0000,  0.0000,  0.0000)
  26 Ag     9.809787    5.687324   14.692653    ( 0.0000,  0.0000,  0.0000)
  27 Pt     0.032149    1.656473   17.055045    ( 0.0000,  0.0000,  0.0000)
  28 Pd     2.864461    1.668021   17.080056    ( 0.0000,  0.0000,  0.0000)
  29 Pd     5.584016    1.660984   17.074449    ( 0.0000,  0.0000,  0.0000)
  30 Pd     1.452989    4.084406   17.054698    ( 0.0000,  0.0000,  0.0000)
  31 Ru     4.285488    4.069299   17.298564    ( 0.0000,  0.0000,  0.0000)
  32 Pt     6.979166    4.090001   17.100360    ( 0.0000,  0.0000,  0.0000)
  33 Ag     2.787627    6.506235   17.071113    ( 0.0000,  0.0000,  0.0000)
  34 Pt     5.619493    6.451778   17.093891    ( 0.0000,  0.0000,  0.0000)
  35 Ru     8.294734    6.447448   17.185647    ( 0.0000,  0.0000,  0.0000)
  36 Pd     0.119009    0.036353   19.433121    ( 0.0000,  0.0000,  0.0000)
  37 Ru     2.899389   -0.060993   19.211156    ( 0.0000,  0.0000,  0.0000)
  38 Pd     5.609966    0.015886   19.485088    ( 0.0000,  0.0000,  0.0000)
  39 Pt     1.439461    2.456816   19.373813    ( 0.0000,  0.0000,  0.0000)
  40 Pd     4.209921    2.428001   19.464236    ( 0.0000,  0.0000,  0.0000)
  41 Pd     7.084543    2.491851   19.414533    ( 0.0000,  0.0000,  0.0000)
  42 Pt     2.821016    4.829164   19.378317    ( 0.0000,  0.0000,  0.0000)
  43 Pd     5.683489    4.887202   19.520516    ( 0.0000,  0.0000,  0.0000)
  44 Ru     8.415747    4.974293   19.198653    ( 0.0000,  0.0000,  0.0000)
  45 O      5.611988    0.007754   21.502171    ( 0.0000,  0.0000,  0.0000)
  46 H      6.248960    0.646063   21.900884    ( 0.0000,  0.0000,  0.0000)

Unit cell:
           periodic     x           y           z      points  spacing
  1. axis:    yes    8.379498    0.000000    0.000000    35     0.2073
  2. axis:    yes    4.189749    7.256858    0.000000    35     0.2073
  3. axis:    no     0.000000    0.000000   29.243062   135     0.2166

  Lengths:   8.379498   8.379498  29.243062
  Angles:   90.000000  90.000000  60.000000

Effective grid spacing dv^(1/3) = 0.2207

                     log10-error:    total        iterations:
           time      wfs    density  energy       fermi  poisson
iter:   1  03:22:22  -2.24   +inf  -185.559678    3             
iter:   2  03:23:37  -3.18  -2.65  -186.255103    2             
iter:   3  03:24:52  -3.39  -2.21  -185.991400    3             
iter:   4  03:26:07  -3.95  -2.28  -185.424774    3             
iter:   5  03:27:21  -4.07  -2.91  -185.445408    3             
iter:   6  03:28:36  -4.17  -2.72  -185.407435    3             
iter:   7  03:29:51  -4.69  -2.89  -185.375068    2             
iter:   8  03:31:06  -4.90  -3.25  -185.373663    3             
iter:   9  03:32:23  -4.65  -3.32  -185.371523    2             
iter:  10  03:33:36  -4.97  -3.27  -185.383082    3             
iter:  11  03:34:46  -5.34  -3.13  -185.367982    2             
iter:  12  03:35:52  -6.07  -3.48  -185.367736    2             
iter:  13  03:36:58  -5.79  -3.64  -185.367990    2             
iter:  14  03:38:03  -5.82  -3.75  -185.368142    2             
iter:  15  03:39:09  -6.07  -3.82  -185.367129    2             
iter:  16  03:40:15  -6.28  -3.72  -185.368585    2             
iter:  17  03:41:21  -6.54  -3.74  -185.367964    2             
iter:  18  03:42:27  -6.48  -4.10  -185.367399    2             
iter:  19  03:43:34  -6.61  -4.19  -185.367856    2             
iter:  20  03:44:39  -6.86  -4.11  -185.367760    2             
iter:  21  03:45:45  -6.72  -4.16  -185.367322    2             
iter:  22  03:46:50  -6.95  -4.01  -185.367439    2             
iter:  23  03:47:55  -7.10  -4.16  -185.367809    2             
iter:  24  03:49:00  -7.40  -4.25  -185.367384    2             
iter:  25  03:50:06  -7.73  -4.43  -185.367463    2             

Converged after 25 iterations.

Dipole moment: (22.841223, 19.717439, -0.295776) |e|*Ang

Energy contributions relative to reference atoms: (reference = -9073466.092496)

Kinetic:       -175.502926
Potential:      +29.437925
External:        +0.000000
XC:             -33.888720
Entropy (-ST):   -2.037320
Local:           -4.395083
--------------------------
Free energy:   -186.386124
Extrapolated:  -185.367463

Fermi level: 0.79637

Showing only first 2 kpts
 Kpt  Band  Eigenvalues  Occupancy
  0   367      0.76198    0.14628
  0   368      0.79695    0.12463
  0   369      0.82102    0.10967
  0   370      0.84122    0.09743

  1   367      0.66435    0.19730
  1   368      0.70807    0.17686
  1   369      0.74855    0.15433
  1   370      0.75880    0.14821



Forces in eV/Ang:
  0 Pd    0.09892    0.50903   -0.42604
  1 Ag    0.10195    0.49130   -0.51874
  2 Pt   -0.22996    0.50948    0.83065
  3 Pd    0.09743    0.03174   -0.08032
  4 Pd    0.10781   -0.36867    0.20444
  5 Pt   -0.12932   -0.29533   -0.08271
  6 Pd   -0.17203   -0.39296   -0.04998
  7 Ag   -0.12748   -0.45169   -0.70876
  8 Pd   -0.24798   -0.30367    0.27681
  9 Ag    0.51848    0.21763    0.43806
 10 Ru    2.21263    1.29014    0.41012
 11 Ru   -1.86447    0.87189   -0.35298
 12 Pd    1.11686   -0.24071    0.01631
 13 Ru   -0.54701   -1.49866   -0.87284
 14 Ag   -0.43488    0.13045    0.29267
 15 Pd    0.18515   -0.58583    0.07891
 16 Ag   -0.18475   -0.37628    0.35161
 17 Pd   -0.36009    0.53957   -0.01411
 18 Ag   -0.01180    0.00374   -0.00199
 19 Ag   -0.01661    0.00412    0.00595
 20 Pt   -0.00560   -0.00873   -0.01390
 21 Ag    0.00338    0.00202   -0.00007
 22 Ag    0.00787   -0.00190    0.00657
 23 Ag   -0.01154   -0.00276    0.00667
 24 Pd    0.00928   -0.00635    0.02327
 25 Pd    0.00374    0.00131    0.01195
 26 Ag   -0.00616   -0.01317    0.01129
 27 Pt    0.00187    0.00045    0.00444
 28 Pd    0.02299   -0.00032    0.00231
 29 Pd   -0.01261   -0.06692    0.03443
 30 Pd    0.02061    0.01731    0.01083
 31 Ru    0.00850   -0.01186   -0.06280
 32 Pt   -0.02391   -0.00853   -0.03434
 33 Ag   -0.04805    0.04638    0.09315
 34 Pt    0.01024   -0.01069   -0.04207
 35 Ru    0.03623    0.03083    0.11183
 36 Pd    0.01750   -0.00754    0.01428
 37 Ru   -0.00891   -0.01523   -0.04160
 38 Pd   -0.02942    0.02917   -0.08108
 39 Pt   -0.00348   -0.00431    0.05488
 40 Pd    0.00273   -0.02765   -0.01522
 41 Pd   -0.00849    0.02269    0.01223
 42 Pt   -0.00077   -0.00223   -0.06907
 43 Pd   -0.04915   -0.01931    0.01275
 44 Ru   -0.03001    0.01961   -0.06012
 45 O    -0.13893   -0.15173    0.15034
 46 H     0.07125    0.09286   -0.15820

System changes: positions 

Initializing position-dependent things.

Density initialized from wave functions
                                             
                                             
                                             
                                             
                                             
                                             
                                             
                                             
                 Pt    HPd     Ru            
                     O                       
            Pt    APd    PPd    Ru           
        Pd           Pd    Pt                
              Ru                             
        Pt     Pd    PPd    Pd     Ag        
                                             
                Ag     Ag     Ag             
                                             
           Ag    PAg    APt    Pd            
                                             
            Pd     Ru     Ag     Pd          
       Ag    PRu    PRu    Pt                
                                             
        Pd     Ag     Pt                     
                                             
                                             
                                             
                                             
                                             

Positions:
   0 Pd     0.000000    1.633958   10.000000    ( 0.0000,  0.0000,  0.0000)
   1 Ag     2.830098    1.633958   10.000000    ( 0.0000,  0.0000,  0.0000)
   2 Pt     5.660196    1.633958   10.000000    ( 0.0000,  0.0000,  0.0000)
   3 Pd     1.415049    4.084895   10.000000    ( 0.0000,  0.0000,  0.0000)
   4 Pd     4.245147    4.084895   10.000000    ( 0.0000,  0.0000,  0.0000)
   5 Pt     7.075245    4.084895   10.000000    ( 0.0000,  0.0000,  0.0000)
   6 Pd     2.830098    6.535832   10.000000    ( 0.0000,  0.0000,  0.0000)
   7 Ag     5.660196    6.535832   10.000000    ( 0.0000,  0.0000,  0.0000)
   8 Pd     8.490294    6.535832   10.000000    ( 0.0000,  0.0000,  0.0000)
   9 Ag     0.000000    0.000000   12.310765    ( 0.0000,  0.0000,  0.0000)
  10 Ru     2.830098    0.000000   12.310765    ( 0.0000,  0.0000,  0.0000)
  11 Ru     5.660196    0.000000   12.310765    ( 0.0000,  0.0000,  0.0000)
  12 Pd     1.415049    2.450937   12.310765    ( 0.0000,  0.0000,  0.0000)
  13 Ru     4.245147    2.450937   12.310765    ( 0.0000,  0.0000,  0.0000)
  14 Ag     7.075245    2.450937   12.310765    ( 0.0000,  0.0000,  0.0000)
  15 Pd     2.830098    4.901874   12.310765    ( 0.0000,  0.0000,  0.0000)
  16 Ag     5.660196    4.901874   12.310765    ( 0.0000,  0.0000,  0.0000)
  17 Pd     8.490294    4.901874   12.310765    ( 0.0000,  0.0000,  0.0000)
  18 Ag     1.419863    0.836277   14.687732    ( 0.0000,  0.0000,  0.0000)
  19 Ag     4.224432    0.834364   14.671455    ( 0.0000,  0.0000,  0.0000)
  20 Pt     6.999518    0.828856   14.674522    ( 0.0000,  0.0000,  0.0000)
  21 Ag     2.850133    3.276119   14.698706    ( 0.0000,  0.0000,  0.0000)
  22 Ag     5.608513    3.275174   14.716634    ( 0.0000,  0.0000,  0.0000)
  23 Ag     8.405388    3.278750   14.704583    ( 0.0000,  0.0000,  0.0000)
  24 Pd     4.227461    5.664796   14.788920    ( 0.0000,  0.0000,  0.0000)
  25 Pd     7.023660    5.719064   14.698278    ( 0.0000,  0.0000,  0.0000)
  26 Ag     9.809085    5.685748   14.694357    ( 0.0000,  0.0000,  0.0000)
  27 Pt     0.032826    1.657030   17.055671    ( 0.0000,  0.0000,  0.0000)
  28 Pd     2.866919    1.667919   17.080265    ( 0.0000,  0.0000,  0.0000)
  29 Pd     5.582582    1.652393   17.076930    ( 0.0000,  0.0000,  0.0000)
  30 Pd     1.455353    4.086016   17.055871    ( 0.0000,  0.0000,  0.0000)
  31 Ru     4.285856    4.067912   17.292139    ( 0.0000,  0.0000,  0.0000)
  32 Pt     6.977626    4.088940   17.098172    ( 0.0000,  0.0000,  0.0000)
  33 Ag     2.781780    6.512141   17.080300    ( 0.0000,  0.0000,  0.0000)
  34 Pt     5.621199    6.451332   17.090077    ( 0.0000,  0.0000,  0.0000)
  35 Ru     8.299805    6.451185   17.196305    ( 0.0000,  0.0000,  0.0000)
  36 Pd     0.123093    0.035096   19.434887    ( 0.0000,  0.0000,  0.0000)
  37 Ru     2.894546   -0.062713   19.206902    ( 0.0000,  0.0000,  0.0000)
  38 Pd     5.607744    0.022243   19.491232    ( 0.0000,  0.0000,  0.0000)
  39 Pt     1.438572    2.455833   19.380493    ( 0.0000,  0.0000,  0.0000)
  40 Pd     4.209816    2.425433   19.462962    ( 0.0000,  0.0000,  0.0000)
  41 Pd     7.084207    2.496291   19.415769    ( 0.0000,  0.0000,  0.0000)
  42 Pt     2.822625    4.827100   19.369796    ( 0.0000,  0.0000,  0.0000)
  43 Pd     5.677806    4.885192   19.521234    ( 0.0000,  0.0000,  0.0000)
  44 Ru     8.409371    4.973053   19.191344    ( 0.0000,  0.0000,  0.0000)
  45 O      5.601671   -0.003615   21.513291    ( 0.0000,  0.0000,  0.0000)
  46 H      6.250828    0.650483   21.877652    ( 0.0000,  0.0000,  0.0000)

Unit cell:
           periodic     x           y           z      points  spacing
  1. axis:    yes    8.379498    0.000000    0.000000    35     0.2073
  2. axis:    yes    4.189749    7.256858    0.000000    35     0.2073
  3. axis:    no     0.000000    0.000000   29.243062   135     0.2166

  Lengths:   8.379498   8.379498  29.243062
  Angles:   90.000000  90.000000  60.000000

Effective grid spacing dv^(1/3) = 0.2207

                     log10-error:    total        iterations:
           time      wfs    density  energy       fermi  poisson
iter:   1  03:51:41  -3.32   +inf  -185.446981    2             
iter:   2  03:52:48  -3.49  -2.86  -186.988575    3             
iter:   3  03:53:59  -3.69  -2.09  -185.407811    2             
iter:   4  03:55:31  -4.75  -2.96  -185.388822    3             
iter:   5  03:57:02  -5.09  -3.32  -185.390454    3             
iter:   6  03:58:33  -5.50  -3.11  -185.381199    2             
iter:   7  04:00:04  -6.07  -3.63  -185.379104    2             
iter:   8  04:01:35  -6.35  -3.72  -185.380481    2             
iter:   9  04:03:06  -5.54  -3.74  -185.378602    3             
iter:  10  04:04:38  -6.03  -3.93  -185.379156    2             
iter:  11  04:06:09  -6.46  -3.96  -185.379118    2             
iter:  12  04:07:40  -6.81  -3.82  -185.379007    2             
iter:  13  04:09:12  -6.93  -3.98  -185.378800    2             
iter:  14  04:10:43  -6.91  -4.16  -185.379209    2             
iter:  15  04:12:15  -7.39  -4.26  -185.378850    2             
iter:  16  04:13:46  -7.12  -4.16  -185.378990    2             
iter:  17  04:15:17  -7.03  -4.44  -185.379054    2             
iter:  18  04:16:49  -7.21  -4.40  -185.378745    2             
iter:  19  04:18:20  -7.58  -4.46  -185.378939    2             

Converged after 19 iterations.

Dipole moment: (22.894537, 20.471522, -0.311855) |e|*Ang

Energy contributions relative to reference atoms: (reference = -9073466.092496)

Kinetic:       -175.056908
Potential:      +29.005007
External:        +0.000000
XC:             -33.905114
Entropy (-ST):   -2.036394
Local:           -4.403727
--------------------------
Free energy:   -186.397135
Extrapolated:  -185.378939

Fermi level: 0.78968

Showing only first 2 kpts
 Kpt  Band  Eigenvalues  Occupancy
  0   367      0.75520    0.14634
  0   368      0.78937    0.12519
  0   369      0.81564    0.10887
  0   370      0.83458    0.09740

  1   367      0.65860    0.19691
  1   368      0.70169    0.17670
  1   369      0.74194    0.15428
  1   370      0.75268    0.14786



Forces in eV/Ang:
  0 Pd    0.10015    0.50860   -0.42772
  1 Ag    0.10158    0.49053   -0.51997
  2 Pt   -0.23081    0.50826    0.82912
  3 Pd    0.09756    0.03151   -0.08213
  4 Pd    0.10675   -0.36836    0.20158
  5 Pt   -0.12805   -0.29486   -0.08484
  6 Pd   -0.17171   -0.39313   -0.05318
  7 Ag   -0.12716   -0.45056   -0.71126
  8 Pd   -0.24863   -0.30301    0.27573
  9 Ag    0.51895    0.21562    0.43615
 10 Ru    2.21039    1.28900    0.40626
 11 Ru   -1.86549    0.87032   -0.34791
 12 Pd    1.11515   -0.24059    0.01515
 13 Ru   -0.54542   -1.49818   -0.87281
 14 Ag   -0.43528    0.12997    0.29124
 15 Pd    0.18632   -0.58404    0.07952
 16 Ag   -0.18318   -0.37399    0.35787
 17 Pd   -0.36123    0.53958   -0.01548
 18 Ag   -0.00509    0.00787   -0.00280
 19 Ag   -0.00192    0.00219   -0.00137
 20 Pt   -0.01170   -0.01425   -0.00356
 21 Ag    0.00008   -0.00260    0.00094
 22 Ag   -0.00458   -0.01553    0.00180
 23 Ag    0.00210   -0.00845    0.00469
 24 Pd   -0.01612   -0.00370    0.02500
 25 Pd    0.00109    0.00224   -0.00465
 26 Ag    0.00711    0.00401    0.01460
 27 Pt    0.02321    0.01201    0.02191
 28 Pd   -0.02488    0.01514   -0.00389
 29 Pd   -0.00444    0.00522    0.01438
 30 Pd   -0.00126   -0.01888   -0.00914
 31 Ru    0.01020   -0.00676   -0.04696
 32 Pt   -0.01617   -0.01973   -0.01046
 33 Ag    0.02401    0.00784    0.03248
 34 Pt   -0.01668    0.00135   -0.00961
 35 Ru   -0.00287    0.01162   -0.04147
 36 Pd    0.02235    0.00100   -0.01440
 37 Ru   -0.05402    0.01631    0.03455
 38 Pd   -0.04222   -0.03831    0.03071
 39 Pt    0.00346   -0.00866   -0.00858
 40 Pd   -0.01784    0.00953   -0.02696
 41 Pd    0.00728    0.02919   -0.02258
 42 Pt    0.00765   -0.00291   -0.02882
 43 Pd   -0.02639   -0.00982   -0.02886
 44 Ru   -0.00707   -0.02581    0.02454
 45 O    -0.01055    0.03401    0.15945
 46 H    -0.09165   -0.06774   -0.16042

System changes: positions 

Initializing position-dependent things.

Density initialized from wave functions
                                             
                                             
                                             
                                             
                                             
                                             
                                             
                                             
                 Pt  O HPd     Ru            
            Pt    APd    PPd    Ru           
                                             
        Pd    Ru     Pd    Pt                
                                             
        Pt     Pd    PPd    Pd     Ag        
                Ag     Ag     Ag             
                                             
           Ag    PAg    APt    Pd            
                                             
            Pd     Ru     Ag     Pd          
       Ag     Ru     Ru                      
             Pd     Pd     Pt                
        Pd     Ag     Pt                     
                                             
                                             
                                             
                                             
                                             

Positions:
   0 Pd     0.000000    1.633958   10.000000    ( 0.0000,  0.0000,  0.0000)
   1 Ag     2.830098    1.633958   10.000000    ( 0.0000,  0.0000,  0.0000)
   2 Pt     5.660196    1.633958   10.000000    ( 0.0000,  0.0000,  0.0000)
   3 Pd     1.415049    4.084895   10.000000    ( 0.0000,  0.0000,  0.0000)
   4 Pd     4.245147    4.084895   10.000000    ( 0.0000,  0.0000,  0.0000)
   5 Pt     7.075245    4.084895   10.000000    ( 0.0000,  0.0000,  0.0000)
   6 Pd     2.830098    6.535832   10.000000    ( 0.0000,  0.0000,  0.0000)
   7 Ag     5.660196    6.535832   10.000000    ( 0.0000,  0.0000,  0.0000)
   8 Pd     8.490294    6.535832   10.000000    ( 0.0000,  0.0000,  0.0000)
   9 Ag     0.000000    0.000000   12.310765    ( 0.0000,  0.0000,  0.0000)
  10 Ru     2.830098    0.000000   12.310765    ( 0.0000,  0.0000,  0.0000)
  11 Ru     5.660196    0.000000   12.310765    ( 0.0000,  0.0000,  0.0000)
  12 Pd     1.415049    2.450937   12.310765    ( 0.0000,  0.0000,  0.0000)
  13 Ru     4.245147    2.450937   12.310765    ( 0.0000,  0.0000,  0.0000)
  14 Ag     7.075245    2.450937   12.310765    ( 0.0000,  0.0000,  0.0000)
  15 Pd     2.830098    4.901874   12.310765    ( 0.0000,  0.0000,  0.0000)
  16 Ag     5.660196    4.901874   12.310765    ( 0.0000,  0.0000,  0.0000)
  17 Pd     8.490294    4.901874   12.310765    ( 0.0000,  0.0000,  0.0000)
  18 Ag     1.417797    0.837644   14.687312    ( 0.0000,  0.0000,  0.0000)
  19 Ag     4.222299    0.835013   14.672318    ( 0.0000,  0.0000,  0.0000)
  20 Pt     6.997043    0.825122   14.672497    ( 0.0000,  0.0000,  0.0000)
  21 Ag     2.850525    3.276076   14.699117    ( 0.0000,  0.0000,  0.0000)
  22 Ag     5.608567    3.272522   14.717458    ( 0.0000,  0.0000,  0.0000)
  23 Ag     8.404555    3.277400   14.706285    ( 0.0000,  0.0000,  0.0000)
  24 Pd     4.225755    5.663923   14.795173    ( 0.0000,  0.0000,  0.0000)
  25 Pd     7.024523    5.719864   14.698717    ( 0.0000,  0.0000,  0.0000)
  26 Ag     9.809559    5.685001   14.698107    ( 0.0000,  0.0000,  0.0000)
  27 Pt     0.037037    1.659484   17.059632    ( 0.0000,  0.0000,  0.0000)
  28 Pd     2.865256    1.670221   17.079663    ( 0.0000,  0.0000,  0.0000)
  29 Pd     5.580595    1.645701   17.080818    ( 0.0000,  0.0000,  0.0000)
  30 Pd     1.457249    4.084330   17.055276    ( 0.0000,  0.0000,  0.0000)
  31 Ru     4.287546    4.065577   17.279793    ( 0.0000,  0.0000,  0.0000)
  32 Pt     6.974096    4.084753   17.095231    ( 0.0000,  0.0000,  0.0000)
  33 Ag     2.780345    6.518496   17.092679    ( 0.0000,  0.0000,  0.0000)
  34 Pt     5.620058    6.451450   17.085628    ( 0.0000,  0.0000,  0.0000)
  35 Ru     8.304036    6.456352   17.198549    ( 0.0000,  0.0000,  0.0000)
  36 Pd     0.130979    0.033859   19.433739    ( 0.0000,  0.0000,  0.0000)
  37 Ru     2.881210   -0.061727   19.208665    ( 0.0000,  0.0000,  0.0000)
  38 Pd     5.599530    0.022376   19.506866    ( 0.0000,  0.0000,  0.0000)
  39 Pt     1.438369    2.453573   19.384492    ( 0.0000,  0.0000,  0.0000)
  40 Pd     4.206699    2.424993   19.457604    ( 0.0000,  0.0000,  0.0000)
  41 Pd     7.085315    2.505553   19.412646    ( 0.0000,  0.0000,  0.0000)
  42 Pt     2.825645    4.824330   19.357970    ( 0.0000,  0.0000,  0.0000)
  43 Pd     5.669075    4.882110   19.516895    ( 0.0000,  0.0000,  0.0000)
  44 Ru     8.402090    4.967261   19.188810    ( 0.0000,  0.0000,  0.0000)
  45 O      5.582532   -0.017406   21.536081    ( 0.0000,  0.0000,  0.0000)
  46 H      6.249953    0.655422   21.840501    ( 0.0000,  0.0000,  0.0000)

Unit cell:
           periodic     x           y           z      points  spacing
  1. axis:    yes    8.379498    0.000000    0.000000    35     0.2073
  2. axis:    yes    4.189749    7.256858    0.000000    35     0.2073
  3. axis:    no     0.000000    0.000000   29.243062   135     0.2166

  Lengths:   8.379498   8.379498  29.243062
  Angles:   90.000000  90.000000  60.000000

Effective grid spacing dv^(1/3) = 0.2207

                     log10-error:    total        iterations:
           time      wfs    density  energy       fermi  poisson
iter:   1  04:20:31  -2.99   +inf  -185.496280    3             
iter:   2  04:22:02  -3.55  -2.78  -185.589510    3             
iter:   3  04:23:33  -3.62  -2.58  -186.303348    3             
iter:   4  04:25:04  -3.97  -2.21  -185.400134    3             
iter:   5  04:26:35  -4.52  -3.16  -185.419319    3             
iter:   6  04:28:06  -5.12  -2.86  -185.386131    2             
iter:   7  04:29:36  -5.72  -3.50  -185.383785    2             
iter:   8  04:31:07  -5.76  -3.48  -185.381554    2             
iter:   9  04:32:38  -5.63  -3.63  -185.382269    2             
iter:  10  04:34:09  -5.47  -3.61  -185.380746    3             
iter:  11  04:35:40  -6.08  -3.87  -185.381352    2             
iter:  12  04:37:11  -6.59  -3.86  -185.381033    2             
iter:  13  04:38:41  -6.72  -3.91  -185.381115    2             
iter:  14  04:40:12  -6.49  -4.15  -185.381553    2             
iter:  15  04:41:43  -6.58  -4.25  -185.380947    2             
iter:  16  04:43:14  -6.96  -4.03  -185.381168    2             
iter:  17  04:44:45  -7.67  -4.34  -185.381206    2             

Converged after 17 iterations.

Dipole moment: (22.919249, 21.570626, -0.342734) |e|*Ang

Energy contributions relative to reference atoms: (reference = -9073466.092496)

Kinetic:       -175.624756
Potential:      +29.425685
External:        +0.000000
XC:             -33.769865
Entropy (-ST):   -2.039474
Local:           -4.392533
--------------------------
Free energy:   -186.400943
Extrapolated:  -185.381206

Fermi level: 0.77709

Showing only first 2 kpts
 Kpt  Band  Eigenvalues  Occupancy
  0   367      0.74237    0.14648
  0   368      0.77615    0.12559
  0   369      0.80372    0.10845
  0   370      0.82105    0.09796

  1   367      0.64771    0.19620
  1   368      0.68933    0.17658
  1   369      0.72994    0.15394
  1   370      0.74086    0.14740



Forces in eV/Ang:
  0 Pd    0.10010    0.50867   -0.42950
  1 Ag    0.10153    0.49083   -0.52137
  2 Pt   -0.23097    0.50809    0.82816
  3 Pd    0.09735    0.03128   -0.08334
  4 Pd    0.10712   -0.36841    0.19984
  5 Pt   -0.12819   -0.29529   -0.08640
  6 Pd   -0.17160   -0.39293   -0.05478
  7 Ag   -0.12728   -0.45057   -0.71294
  8 Pd   -0.24881   -0.30291    0.27387
  9 Ag    0.51950    0.21112    0.43572
 10 Ru    2.21249    1.29081    0.40383
 11 Ru   -1.86996    0.86490   -0.34083
 12 Pd    1.11613   -0.23785    0.01538
 13 Ru   -0.54696   -1.49868   -0.87306
 14 Ag   -0.43501    0.13026    0.29107
 15 Pd    0.18546   -0.58294    0.08735
 16 Ag   -0.18632   -0.37390    0.36699
 17 Pd   -0.35591    0.54065   -0.00798
 18 Ag   -0.00085   -0.00434   -0.00285
 19 Ag    0.00290   -0.00732   -0.00607
 20 Pt    0.00501    0.00444    0.02217
 21 Ag   -0.00779   -0.00511   -0.01313
 22 Ag   -0.00479   -0.01027   -0.01267
 23 Ag    0.00405   -0.00407   -0.00571
 24 Pd   -0.01100   -0.00544    0.00318
 25 Pd   -0.00784   -0.00595   -0.00884
 26 Ag   -0.00298    0.00503    0.00946
 27 Pt   -0.00942   -0.00636   -0.00686
 28 Pd   -0.01728   -0.01353   -0.00738
 29 Pd    0.00493    0.04519    0.00464
 30 Pd   -0.02932    0.01343   -0.00343
 31 Ru   -0.01216    0.00467   -0.02518
 32 Pt    0.01712    0.03675   -0.01318
 33 Ag    0.04265   -0.02372   -0.02232
 34 Pt    0.02207   -0.00415    0.00567
 35 Ru   -0.07638   -0.03628    0.00883
 36 Pd   -0.05465    0.02199    0.01515
 37 Ru    0.03534   -0.00462   -0.00235
 38 Pd   -0.06978   -0.10601    0.04332
 39 Pt    0.00710    0.01182   -0.00912
 40 Pd    0.00062    0.00624   -0.00967
 41 Pd   -0.00707   -0.04520    0.00754
 42 Pt   -0.02343    0.01507    0.03499
 43 Pd    0.00279   -0.00028   -0.01893
 44 Ru    0.02545    0.02958    0.01024
 45 O     0.15096    0.22875    0.01497
 46 H    -0.22994   -0.20332   -0.09719

System changes: positions 

Initializing position-dependent things.

Density initialized from wave functions
                                             
                                             
                                             
                                             
                                             
                                             
                                             
                                             
                 Pt  O HPd     Ru            
            Pt    APd    PPd    Ru           
                                             
        Pd    Ru     Pd    Pt                
                                             
        Pt     Pd    PPd    Pd     Ag        
                Ag     Ag     Ag             
                                             
           Ag    PAg    APt    Pd            
                                             
            Pd     Ru     Ag     Pd          
       Ag     Ru     Ru                      
             Pd     Pd     Pt                
        Pd     Ag     Pt                     
                                             
                                             
                                             
                                             
                                             

Positions:
   0 Pd     0.000000    1.633958   10.000000    ( 0.0000,  0.0000,  0.0000)
   1 Ag     2.830098    1.633958   10.000000    ( 0.0000,  0.0000,  0.0000)
   2 Pt     5.660196    1.633958   10.000000    ( 0.0000,  0.0000,  0.0000)
   3 Pd     1.415049    4.084895   10.000000    ( 0.0000,  0.0000,  0.0000)
   4 Pd     4.245147    4.084895   10.000000    ( 0.0000,  0.0000,  0.0000)
   5 Pt     7.075245    4.084895   10.000000    ( 0.0000,  0.0000,  0.0000)
   6 Pd     2.830098    6.535832   10.000000    ( 0.0000,  0.0000,  0.0000)
   7 Ag     5.660196    6.535832   10.000000    ( 0.0000,  0.0000,  0.0000)
   8 Pd     8.490294    6.535832   10.000000    ( 0.0000,  0.0000,  0.0000)
   9 Ag     0.000000    0.000000   12.310765    ( 0.0000,  0.0000,  0.0000)
  10 Ru     2.830098    0.000000   12.310765    ( 0.0000,  0.0000,  0.0000)
  11 Ru     5.660196    0.000000   12.310765    ( 0.0000,  0.0000,  0.0000)
  12 Pd     1.415049    2.450937   12.310765    ( 0.0000,  0.0000,  0.0000)
  13 Ru     4.245147    2.450937   12.310765    ( 0.0000,  0.0000,  0.0000)
  14 Ag     7.075245    2.450937   12.310765    ( 0.0000,  0.0000,  0.0000)
  15 Pd     2.830098    4.901874   12.310765    ( 0.0000,  0.0000,  0.0000)
  16 Ag     5.660196    4.901874   12.310765    ( 0.0000,  0.0000,  0.0000)
  17 Pd     8.490294    4.901874   12.310765    ( 0.0000,  0.0000,  0.0000)
  18 Ag     1.417699    0.837390   14.687041    ( 0.0000,  0.0000,  0.0000)
  19 Ag     4.222354    0.834548   14.671934    ( 0.0000,  0.0000,  0.0000)
  20 Pt     6.997260    0.825402   14.673923    ( 0.0000,  0.0000,  0.0000)
  21 Ag     2.850013    3.275685   14.698155    ( 0.0000,  0.0000,  0.0000)
  22 Ag     5.608241    3.271749   14.716594    ( 0.0000,  0.0000,  0.0000)
  23 Ag     8.404765    3.277082   14.705825    ( 0.0000,  0.0000,  0.0000)
  24 Pd     4.225071    5.663362   14.795652    ( 0.0000,  0.0000,  0.0000)
  25 Pd     7.023935    5.719429   14.698051    ( 0.0000,  0.0000,  0.0000)
  26 Ag     9.809287    5.685247   14.698883    ( 0.0000,  0.0000,  0.0000)
  27 Pt     0.036364    1.659015   17.059285    ( 0.0000,  0.0000,  0.0000)
  28 Pd     2.864264    1.669377   17.078996    ( 0.0000,  0.0000,  0.0000)
  29 Pd     5.580721    1.648454   17.081737    ( 0.0000,  0.0000,  0.0000)
  30 Pd     1.455403    4.085414   17.054964    ( 0.0000,  0.0000,  0.0000)
  31 Ru     4.286847    4.065669   17.277094    ( 0.0000,  0.0000,  0.0000)
  32 Pt     6.974818    4.087060   17.093693    ( 0.0000,  0.0000,  0.0000)
  33 Ag     2.783023    6.517206   17.092361    ( 0.0000,  0.0000,  0.0000)
  34 Pt     5.621490    6.451015   17.085423    ( 0.0000,  0.0000,  0.0000)
  35 Ru     8.298840    6.454199   17.200606    ( 0.0000,  0.0000,  0.0000)
  36 Pd     0.127400    0.035241   19.434506    ( 0.0000,  0.0000,  0.0000)
  37 Ru     2.884018   -0.062216   19.208071    ( 0.0000,  0.0000,  0.0000)
  38 Pd     5.593683    0.014271   19.508736    ( 0.0000,  0.0000,  0.0000)
  39 Pt     1.439057    2.454442   19.383929    ( 0.0000,  0.0000,  0.0000)
  40 Pd     4.206597    2.425220   19.456338    ( 0.0000,  0.0000,  0.0000)
  41 Pd     7.084751    2.502851   19.412675    ( 0.0000,  0.0000,  0.0000)
  42 Pt     2.823775    4.825541   19.359732    ( 0.0000,  0.0000,  0.0000)
  43 Pd     5.668789    4.881885   19.515345    ( 0.0000,  0.0000,  0.0000)
  44 Ru     8.403961    4.970087   19.189080    ( 0.0000,  0.0000,  0.0000)
  45 O      5.582334   -0.012564   21.531905    ( 0.0000,  0.0000,  0.0000)
  46 H      6.245991    0.653681   21.839187    ( 0.0000,  0.0000,  0.0000)

Unit cell:
           periodic     x           y           z      points  spacing
  1. axis:    yes    8.379498    0.000000    0.000000    35     0.2073
  2. axis:    yes    4.189749    7.256858    0.000000    35     0.2073
  3. axis:    no     0.000000    0.000000   29.243062   135     0.2166

  Lengths:   8.379498   8.379498  29.243062
  Angles:   90.000000  90.000000  60.000000

Effective grid spacing dv^(1/3) = 0.2207

                     log10-error:    total        iterations:
           time      wfs    density  energy       fermi  poisson
iter:   1  04:46:56  -3.84   +inf  -185.508888    2             
iter:   2  04:48:13  -2.98  -2.66  -191.491018    3             
iter:   3  04:49:24  -3.17  -1.82  -185.429815    3             
iter:   4  04:50:40  -4.65  -2.97  -185.389674    3             
iter:   5  04:51:56  -5.38  -3.57  -185.385972    2             
iter:   6  04:53:10  -6.02  -3.71  -185.386709    2             
iter:   7  04:54:25  -6.23  -3.75  -185.386700    2             
iter:   8  04:55:42  -6.59  -3.82  -185.385745    2             
iter:   9  04:56:57  -6.44  -3.95  -185.386838    2             
iter:  10  04:58:13  -6.50  -3.83  -185.385880    2             
iter:  11  04:59:28  -6.55  -4.05  -185.385522    2             
iter:  12  05:00:44  -7.03  -4.08  -185.385837    2             
iter:  13  05:01:59  -7.41  -4.31  -185.385707    2             

Converged after 13 iterations.

Dipole moment: (23.132851, 21.491589, -0.339202) |e|*Ang

Energy contributions relative to reference atoms: (reference = -9073466.092496)

Kinetic:       -174.711175
Potential:      +28.655192
External:        +0.000000
XC:             -33.942637
Entropy (-ST):   -2.037811
Local:           -4.368180
--------------------------
Free energy:   -186.404612
Extrapolated:  -185.385707

Fermi level: 0.77937

Showing only first 2 kpts
 Kpt  Band  Eigenvalues  Occupancy
  0   367      0.74501    0.14627
  0   368      0.77892    0.12528
  0   369      0.80590    0.10852
  0   370      0.82412    0.09749

  1   367      0.64992    0.19623
  1   368      0.69144    0.17667
  1   369      0.73275    0.15362
  1   370      0.74288    0.14756



Forces in eV/Ang:
  0 Pd    0.09984    0.50917   -0.42317
  1 Ag    0.10307    0.49029   -0.51778
  2 Pt   -0.23280    0.50784    0.83449
  3 Pd    0.09768    0.03036   -0.07876
  4 Pd    0.10738   -0.36995    0.20471
  5 Pt   -0.12808   -0.29543   -0.08120
  6 Pd   -0.17142   -0.39231   -0.04830
  7 Ag   -0.12648   -0.44981   -0.70847
  8 Pd   -0.24798   -0.30124    0.27923
  9 Ag    0.51684    0.21101    0.44074
 10 Ru    2.21113    1.28881    0.40586
 11 Ru   -1.86708    0.86308   -0.33250
 12 Pd    1.11326   -0.23974    0.01292
 13 Ru   -0.54425   -1.50046   -0.87452
 14 Ag   -0.43586    0.12753    0.29289
 15 Pd    0.18380   -0.57781    0.09067
 16 Ag   -0.18643   -0.37297    0.36606
 17 Pd   -0.35563    0.54321   -0.00403
 18 Ag   -0.00023   -0.00836   -0.00520
 19 Ag    0.00992   -0.01249    0.00433
 20 Pt   -0.00847   -0.00944    0.01554
 21 Ag   -0.00900   -0.00468   -0.00833
 22 Ag   -0.00206   -0.01274   -0.00924
 23 Ag    0.00271   -0.00109   -0.00562
 24 Pd   -0.01215    0.00457   -0.00205
 25 Pd    0.00071    0.00273   -0.02039
 26 Ag   -0.00337    0.01491    0.00867
 27 Pt   -0.00962    0.00040    0.00985
 28 Pd   -0.00756    0.00623   -0.00504
 29 Pd    0.00419   -0.01166    0.00715
 30 Pd   -0.00394   -0.00127   -0.00148
 31 Ru   -0.01603   -0.00001    0.01048
 32 Pt    0.00002   -0.02716    0.00843
 33 Ag   -0.00271    0.00224   -0.01133
 34 Pt   -0.03604    0.01421    0.01150
 35 Ru    0.01854    0.00830   -0.08196
 36 Pd    0.00135    0.00627   -0.00667
 37 Ru   -0.04614    0.02930    0.03912
 38 Pd   -0.00711   -0.01176   -0.01253
 39 Pt   -0.00708   -0.00413   -0.00991
 40 Pd   -0.00014    0.02413   -0.02080
 41 Pd    0.00153    0.00382   -0.01597
 42 Pt    0.01874   -0.01274    0.00975
 43 Pd   -0.01044   -0.00778   -0.02103
 44 Ru   -0.00750   -0.06059    0.03737
 45 O    -0.01064    0.06124    0.00036
 46 H    -0.06416   -0.03603   -0.00047

Timing:                                      incl.     excl.
-------------------------------------------------------------------
Density initialized from wave functions:    32.937    32.936   0.2% |
 Symmetrize density:                         0.000     0.000   0.0% |
Forces:                                    145.588   145.588   0.9% |
Hamiltonian:                                30.506     0.057   0.0% |
 Atomic:                                     4.879     2.280   0.0% |
  XC Correction:                             2.599     2.599   0.0% |
 Calculate atomic Hamiltonians:              8.011     8.011   0.1% |
 Communicate:                               10.128    10.128   0.1% |
 Initialize Hamiltonian:                     0.001     0.001   0.0% |
 Poisson:                                    0.037     0.037   0.0% |
 XC 3D grid:                                 7.393     7.393   0.0% |
LCAO initialization:                        57.804     3.480   0.0% |
 LCAO eigensolver:                           7.146     0.002   0.0% |
  Calculate projections:                     0.068     0.068   0.0% |
  DenseAtomicCorrection:                     0.062     0.062   0.0% |
  Distribute overlap matrix:                 0.461     0.461   0.0% |
  Orbital Layouts:                           0.552     0.552   0.0% |
  Potential matrix:                          5.950     5.950   0.0% |
  Sum over cells:                            0.051     0.051   0.0% |
 LCAO to grid:                              44.576    44.576   0.3% |
 Set positions (LCAO WFS):                   2.603     1.136   0.0% |
  Basic WFS set positions:                   0.002     0.002   0.0% |
  Basis functions set positions:             0.001     0.001   0.0% |
  P tci:                                     0.577     0.577   0.0% |
  ST tci:                                    0.661     0.661   0.0% |
  mktci:                                     0.227     0.227   0.0% |
PWDescriptor:                                0.052     0.052   0.0% |
Redistribute:                                0.040     0.040   0.0% |
SCF-cycle:                               14986.995  2545.979  16.6% |------|
 Davidson:                               11181.192  2558.445  16.7% |------|
  Apply H:                                1731.596  1681.636  11.0% |---|
   HMM T:                                   49.959    49.959   0.3% |
  Subspace diag:                          1596.108     0.054   0.0% |
   calc_h_matrix:                          924.008   347.345   2.3% ||
    Apply H:                               576.664   560.078   3.7% ||
     HMM T:                                 16.586    16.586   0.1% |
   diagonalize:                             28.665    28.665   0.2% |
   rotate_psi:                             643.380   643.380   4.2% |-|
  calc. matrices:                         3504.377  2352.042  15.3% |-----|
   Apply H:                               1152.335  1119.085   7.3% |--|
    HMM T:                                  33.250    33.250   0.2% |
  diagonalize:                             493.578   493.578   3.2% ||
  rotate_psi:                             1297.089  1297.089   8.5% |--|
 Density:                                  616.058     0.008   0.0% |
  Atomic density matrices:                   4.242     4.242   0.0% |
  Mix:                                     206.019   206.019   1.3% ||
  Multipole moments:                         0.259     0.259   0.0% |
  Pseudo density:                          405.530   405.522   2.6% ||
   Symmetrize density:                       0.009     0.009   0.0% |
 Hamiltonian:                              594.746     1.320   0.0% |
  Atomic:                                  113.089    52.899   0.3% |
   XC Correction:                           60.190    60.190   0.4% |
  Calculate atomic Hamiltonians:           171.059   171.059   1.1% |
  Communicate:                             142.958   142.958   0.9% |
  Poisson:                                   0.816     0.816   0.0% |
  XC 3D grid:                              165.503   165.503   1.1% |
 Orthonormalize:                            49.020     0.003   0.0% |
  calc_s_matrix:                             7.588     7.588   0.0% |
  inverse-cholesky:                          0.689     0.689   0.0% |
  projections:                              26.574    26.574   0.2% |
  rotate_psi_s:                             14.166    14.166   0.1% |
Set symmetry:                                0.002     0.002   0.0% |
Other:                                      77.968    77.968   0.5% |
-------------------------------------------------------------------
Total:                                             15331.892 100.0%

Date: Fri Mar  4 05:02:16 2022
