
  ___ ___ ___ _ _ _  
 |   |   |_  | | | | 
 | | | | | . | | | | 
 |__ |  _|___|_____|  1.5.1
 |___|_|             

User:   clausen@node497.cluster
Date:   Thu Mar  3 14:10:31 2022
Arch:   x86_64
Pid:    26922
Python: 3.6.12
gpaw:   /software/kemi/gpaw/1.5.1/gpaw
_gpaw:  /software/kemi/gpaw/1.5.1/bin/gpaw-python
ase:    /software/kemi/ase/3.17.0/ase (version 3.17.0)
numpy:  /opt/rh/rh-python36/root/usr/lib64/python3.6/site-packages/numpy (version 1.13.1)
scipy:  /opt/rh/rh-python36/root/usr/lib64/python3.6/site-packages/scipy (version 0.19.1)
units:  Angstrom and eV
cores:  16

Input parameters:
  kpts: [4 4 1]
  mode: {ecut: 400.0,
         gammacentered: False,
         name: pw}
  xc: RPBE

System changes: positions, numbers, cell, pbc, initial_charges, initial_magmoms 

Initialize ...

Pd-setup:
  name: Palladium
  id: 6da19bfba079f22767af9506641940b9
  Z: 46
  valence: 16
  core: 30
  charge: 0.0
  file: /software/kemi/gpaw-setups/0.9.20000/Pd.RPBE.gz
  cutoffs: 1.19(comp), 2.38(filt), 2.28(core), lmax=2
  valence states:
                energy  radius
    5s(0.00)    -3.225   1.228
    4p(6.00)   -51.131   1.360
    5p(0.00)    -0.373   1.360
    4d(10.00)    -3.964   1.228
    *s          23.987   1.228
    *d          23.247   1.228

  Using partial waves for Pd as LCAO basis

Ir-setup:
  name: Iridium
  id: 73b603359d1d5397a85ae3c2440f9033
  Z: 77
  valence: 15
  core: 62
  charge: 0.0
  file: /software/kemi/gpaw-setups/0.9.20000/Ir.RPBE.gz
  cutoffs: 1.26(comp), 2.40(filt), 2.36(core), lmax=2
  valence states:
                energy  radius
    6s(2.00)    -6.219   1.296
    5p(6.00)   -54.684   1.328
    6p(0.00)    -1.215   1.328
    5d(7.00)    -7.118   1.286
    *s          20.992   1.296
    *d          20.093   1.286

  Using partial waves for Ir as LCAO basis

Ru-setup:
  name: Ruthenium
  id: 76477906e28f51dc1b29884d53556fe9
  Z: 44
  valence: 16
  core: 28
  charge: 0.0
  file: /software/kemi/gpaw-setups/0.9.20000/Ru.RPBE.gz
  cutoffs: 1.23(comp), 2.16(filt), 1.30(core), lmax=2
  valence states:
                energy  radius
    4s(2.00)   -76.255   1.281
    5s(1.00)    -4.126   1.281
    4p(6.00)   -46.371   1.286
    5p(0.00)    -0.913   1.286
    4d(7.00)    -5.146   1.254
    *d          22.066   1.254

  Using partial waves for Ru as LCAO basis

Pt-setup:
  name: Platinum
  id: f04f522592575c47ad794f6b4a415b4b
  Z: 78
  valence: 16
  core: 62
  charge: 0.0
  file: /software/kemi/gpaw-setups/0.9.20000/Pt.RPBE.gz
  cutoffs: 1.29(comp), 2.26(filt), 2.26(core), lmax=2
  valence states:
                energy  radius
    6s(1.00)    -5.516   1.307
    5p(6.00)   -55.971   1.371
    6p(0.00)    -0.856   1.371
    5d(9.00)    -6.087   1.307
    *s          21.695   1.307
    *d          21.125   1.307

  Using partial waves for Pt as LCAO basis

Ag-setup:
  name: Silver
  id: c05e55bab2c3858b3f9398f6d75cb77c
  Z: 47
  valence: 17
  core: 30
  charge: 0.0
  file: /software/kemi/gpaw-setups/0.9.20000/Ag.RPBE.gz
  cutoffs: 1.25(comp), 2.35(filt), 2.19(core), lmax=2
  valence states:
                energy  radius
    5s(1.00)    -4.277   1.286
    4p(6.00)   -58.523   1.328
    5p(0.00)    -0.755   1.328
    4d(10.00)    -7.386   1.180
    *s          22.934   1.286
    *d          19.826   1.180

  Using partial waves for Ag as LCAO basis

O-setup:
  name: Oxygen
  id: 08071ca1eed670e7821b24b7eb4d558c
  Z: 8
  valence: 6
  core: 2
  charge: 0.0
  file: /software/kemi/gpaw-setups/0.9.20000/O.RPBE.gz
  cutoffs: 0.67(comp), 1.17(filt), 0.83(core), lmax=2
  valence states:
                energy  radius
    2s(2.00)   -24.041   0.688
    2p(4.00)    -8.984   0.598
    *s           3.170   0.688
    *p          18.228   0.598
    *d           0.000   0.619

  Using partial waves for O as LCAO basis

H-setup:
  name: Hydrogen
  id: ea3f9156a1dc40d47a60fdce8f8bd75d
  Z: 1
  valence: 1
  core: 0
  charge: 0.0
  file: /software/kemi/gpaw-setups/0.9.20000/H.RPBE.gz
  cutoffs: 0.48(comp), 0.85(filt), 0.53(core), lmax=2
  valence states:
                energy  radius
    1s(1.00)    -6.572   0.476
    *s          20.639   0.476
    *p           0.000   0.476

  Using partial waves for H as LCAO basis

Reference energy: -12877860.274276

Spin-paired calculation

Occupation numbers:
  Fermi-Dirac: width=0.1000 eV

Convergence criteria:
  Maximum total energy change: 0.0005 eV / electron
  Maximum integral of absolute density change: 0.0001 electrons
  Maximum integral of absolute eigenstate change: 4e-08 eV^2
  Maximum number of iterations: 333

Symmetries present (total): 1

  ( 1  0  0)
  ( 0  1  0)
  ( 0  0  1)

16 k-points: 4 x 4 x 1 Monkhorst-Pack grid
8 k-points in the irreducible part of the Brillouin zone
       k-points in crystal coordinates                weights
   0:     0.12500000   -0.37500000    0.00000000          2/16
   1:     0.12500000   -0.12500000    0.00000000          2/16
   2:     0.12500000    0.12500000    0.00000000          2/16
   3:     0.12500000    0.37500000    0.00000000          2/16
   4:     0.37500000   -0.37500000    0.00000000          2/16
   5:     0.37500000   -0.12500000    0.00000000          2/16
   6:     0.37500000    0.12500000    0.00000000          2/16
   7:     0.37500000    0.37500000    0.00000000          2/16

Wave functions: Plane wave expansion
  Cutoff energy: 400.000 eV
  Number of coefficients (min, max): 32894, 32940
  Pulay-stress correction: 0.000000 eV/Ang^3 (de/decut=0.000000)
  Using FFTW library
  ScaLapack parameters: grid=1x1, blocksize=None
  Wavefunction extrapolation:
    Improved wavefunction reuse through dual PAW basis 

Eigensolver
   Davidson(niter=2, smin=None, normalize=True) 

Densities:
  Coarse grid: 35*35*135 grid
  Fine grid: 70*70*270 grid
  Total Charge: 0.000000 

Density mixing:
  Method: separate
  Backend: pulay
  Linear mixing parameter: 0.05
  Mixing with 5 old densities
  Damping of long wave oscillations: 50 

Hamiltonian:
  XC and Coulomb potentials evaluated on a 70*70*270 grid
  Using the RPBE Exchange-Correlation functional
 

XC parameters: RPBE with 2 nearest neighbor stencil

Memory estimate:
  Process memory now: 148.75 MiB
  Calculator: 554.76 MiB
    Density: 54.46 MiB
      Arrays: 16.41 MiB
      Localized functions: 31.69 MiB
      Mixer: 6.36 MiB
    Hamiltonian: 11.75 MiB
      Arrays: 10.73 MiB
      XC: 0.00 MiB
      Poisson: 0.00 MiB
      vbar: 1.03 MiB
    Wavefunctions: 488.54 MiB
      Arrays psit_nG: 220.65 MiB
      Eigensolver: 252.59 MiB
      Projections: 2.77 MiB
      Projectors: 5.91 MiB
      PW-descriptor: 6.62 MiB

Total number of cores used: 16
Parallelization over k-points: 8
Domain decomposition: 1 x 1 x 2

Number of atoms: 47
Number of atomic orbitals: 551
Number of bands in calculation: 439
Bands to converge: occupied states only
Number of valence electrons: 724

... initialized

Initializing position-dependent things.

Density initialized from atomic densities
Creating initial wave functions:
  439 bands from LCAO basis set

                                             
                                             
                                             
                                             
                                             
                                             
                      H                      
                    O                        
                  Ag     Ir    Ir            
            Pd      Pd                       
                   Ru     PIr    Ir          
        Ir    Pt    PAg                      
                           Pd                
        Ir     Pd    IAg    Ir     Pt        
                                             
                Ag     Ru     Pd             
           Pt     Ag    PPd    Ir            
                                             
            Pt     Pt    PPt    Ru           
       Ag     Ag     Ag                      
              Ru    Ir     Pt                
         Pd    Ir     Ru                     
                                             
                                             
                                             
                                             
                                             

Positions:
   0 Pd     0.000000    1.624086   10.000000    ( 0.0000,  0.0000,  0.0000)
   1 Ir     2.812999    1.624086   10.000000    ( 0.0000,  0.0000,  0.0000)
   2 Ru     5.625998    1.624086   10.000000    ( 0.0000,  0.0000,  0.0000)
   3 Ru     1.406500    4.060215   10.000000    ( 0.0000,  0.0000,  0.0000)
   4 Ir     4.219499    4.060215   10.000000    ( 0.0000,  0.0000,  0.0000)
   5 Pt     7.032498    4.060215   10.000000    ( 0.0000,  0.0000,  0.0000)
   6 Pd     2.812999    6.496343   10.000000    ( 0.0000,  0.0000,  0.0000)
   7 Pd     5.625998    6.496343   10.000000    ( 0.0000,  0.0000,  0.0000)
   8 Ru     8.438997    6.496343   10.000000    ( 0.0000,  0.0000,  0.0000)
   9 Ag     0.000000    0.000000   12.296804    ( 0.0000,  0.0000,  0.0000)
  10 Ag     2.812999    0.000000   12.296804    ( 0.0000,  0.0000,  0.0000)
  11 Ag     5.625998    0.000000   12.296804    ( 0.0000,  0.0000,  0.0000)
  12 Pt     1.406500    2.436129   12.296804    ( 0.0000,  0.0000,  0.0000)
  13 Pt     4.219499    2.436129   12.296804    ( 0.0000,  0.0000,  0.0000)
  14 Pt     7.032498    2.436129   12.296804    ( 0.0000,  0.0000,  0.0000)
  15 Ru     2.812999    4.872257   12.296804    ( 0.0000,  0.0000,  0.0000)
  16 Pt     5.625998    4.872257   12.296804    ( 0.0000,  0.0000,  0.0000)
  17 Ir     8.438997    4.872257   12.296804    ( 0.0000,  0.0000,  0.0000)
  18 Pt     1.331112    0.739375   14.657283    ( 0.0000,  0.0000,  0.0000)
  19 Ag     4.181622    0.793852   14.645499    ( 0.0000,  0.0000,  0.0000)
  20 Pd     7.001587    0.862206   14.620346    ( 0.0000,  0.0000,  0.0000)
  21 Ag     2.800841    3.198617   14.645984    ( 0.0000,  0.0000,  0.0000)
  22 Ru     5.661352    3.374873   14.464570    ( 0.0000,  0.0000,  0.0000)
  23 Pd     8.454364    3.209063   14.568969    ( 0.0000,  0.0000,  0.0000)
  24 Ir     4.203312    5.613553   14.568997    ( 0.0000,  0.0000,  0.0000)
  25 Ir     7.031881    5.578044   14.561300    ( 0.0000,  0.0000,  0.0000)
  26 Pt     9.857688    5.665883   14.596939    ( 0.0000,  0.0000,  0.0000)
  27 Ir    -0.077764    1.506761   16.938800    ( 0.0000,  0.0000,  0.0000)
  28 Pd     2.746751    1.593087   16.991368    ( 0.0000,  0.0000,  0.0000)
  29 Ag     5.532334    1.594992   16.918159    ( 0.0000,  0.0000,  0.0000)
  30 Pd     1.401555    4.031321   16.973309    ( 0.0000,  0.0000,  0.0000)
  31 Pd     4.186062    4.107308   16.892321    ( 0.0000,  0.0000,  0.0000)
  32 Pd     7.007491    3.969527   16.736476    ( 0.0000,  0.0000,  0.0000)
  33 Ru     2.845276    6.541012   16.753610    ( 0.0000,  0.0000,  0.0000)
  34 Pd     5.662228    6.450069   16.794393    ( 0.0000,  0.0000,  0.0000)
  35 Ir     8.552515    6.378355   16.920371    ( 0.0000,  0.0000,  0.0000)
  36 Ir     0.061963   -0.029589   18.981657    ( 0.0000,  0.0000,  0.0000)
  37 Pt     2.802470   -0.097062   19.141410    ( 0.0000,  0.0000,  0.0000)
  38 Ag     5.661265    0.013033   19.406409    ( 0.0000,  0.0000,  0.0000)
  39 Pd     1.350042    2.376862   19.278970    ( 0.0000,  0.0000,  0.0000)
  40 Pd     4.315258    2.518491   19.256067    ( 0.0000,  0.0000,  0.0000)
  41 Ir     7.173708    2.513849   19.018418    ( 0.0000,  0.0000,  0.0000)
  42 Ag     2.809713    4.893314   19.379442    ( 0.0000,  0.0000,  0.0000)
  43 Ir     5.700233    4.913916   19.039342    ( 0.0000,  0.0000,  0.0000)
  44 Ir     8.278779    4.849064   19.000358    ( 0.0000,  0.0000,  0.0000)
  45 O      4.315258    2.518491   21.406409    ( 0.0000,  0.0000,  0.0000)
  46 H      4.965258    3.168491   21.806409    ( 0.0000,  0.0000,  0.0000)

Unit cell:
           periodic     x           y           z      points  spacing
  1. axis:    yes    8.465341    0.000000    0.000000    35     0.2095
  2. axis:    yes    4.232670    7.331200    0.000000    35     0.2095
  3. axis:    no     0.000000    0.000000   29.187217   135     0.2162

  Lengths:   8.465341   8.465341  29.187217
  Angles:   90.000000  90.000000  60.000000

Effective grid spacing dv^(1/3) = 0.2221

                     log10-error:    total        iterations:
           time      wfs    density  energy       fermi  poisson
iter:   1  14:14:21  +0.33   +inf  -326.116285    2             
iter:   2  14:15:34  -0.57  -1.16  -403.853940    34            
iter:   3  14:16:46  -0.64  -1.08  -352.735635    3             
iter:   4  14:17:58  -1.30  -1.14  -271.471796    37            
iter:   5  14:19:10  -1.72  -1.35  -250.833791    36            
iter:   6  14:20:21  -1.90  -1.44  -246.825755    35            
iter:   7  14:21:34  -2.19  -1.49  -243.924842    3             
iter:   8  14:22:51  -2.28  -1.55  -240.622953    3             
iter:   9  14:24:04  -2.10  -1.69  -241.893494    3             
iter:  10  14:25:17  -2.56  -1.72  -240.092081    3             
iter:  11  14:26:28  -2.73  -1.84  -238.995780    3             
iter:  12  14:27:42  -2.72  -1.97  -238.932869    3             
iter:  13  14:28:55  -3.06  -2.13  -238.990246    3             
iter:  14  14:30:06  -3.65  -2.18  -238.891232    3             
iter:  15  14:31:17  -3.15  -2.24  -238.679714    3             
iter:  16  14:32:31  -3.36  -2.40  -238.832027    3             
iter:  17  14:33:43  -3.48  -2.36  -238.675093    3             
iter:  18  14:34:54  -3.86  -2.53  -238.557712    3             
iter:  19  14:36:05  -4.45  -2.76  -238.536379    2             
iter:  20  14:37:14  -4.35  -2.88  -238.558436    2             
iter:  21  14:38:23  -4.54  -2.75  -238.526380    3             
iter:  22  14:39:33  -4.80  -2.99  -238.525882    2             
iter:  23  14:40:42  -4.71  -3.03  -238.524041    2             
iter:  24  14:41:52  -5.19  -3.08  -238.531741    2             
iter:  25  14:43:02  -4.91  -3.00  -238.524211    2             
iter:  26  14:44:31  -5.30  -3.13  -238.522728    2             
iter:  27  14:46:00  -5.27  -3.20  -238.525885    2             
iter:  28  14:47:30  -5.67  -3.16  -238.521968    2             
iter:  29  14:48:59  -5.85  -3.34  -238.520993    2             
iter:  30  14:50:28  -5.05  -3.39  -238.531710    2             
iter:  31  14:51:58  -5.61  -3.16  -238.521026    2             
iter:  32  14:53:27  -6.27  -3.50  -238.520627    2             
iter:  33  14:54:56  -6.60  -3.58  -238.520653    2             
iter:  34  14:56:26  -6.60  -3.63  -238.520675    2             
iter:  35  14:57:55  -6.28  -3.67  -238.520412    2             
iter:  36  14:59:24  -6.25  -3.73  -238.521141    2             
iter:  37  15:00:53  -6.27  -3.72  -238.520631    2             
iter:  38  15:02:23  -6.43  -3.54  -238.520082    2             
iter:  39  15:03:52  -6.60  -3.83  -238.520241    2             
iter:  40  15:05:21  -6.93  -3.97  -238.520281    2             
iter:  41  15:06:50  -7.34  -4.03  -238.520199    2             
iter:  42  15:08:19  -7.28  -4.08  -238.520380    2             
iter:  43  15:09:48  -6.89  -4.07  -238.520142    2             
iter:  44  15:11:18  -6.92  -3.79  -238.520043    2             
iter:  45  15:12:47  -7.34  -4.11  -238.520165    2             
iter:  46  15:14:16  -7.72  -4.25  -238.520156    2             

Converged after 46 iterations.

Dipole moment: (24.360994, 16.390458, -0.248095) |e|*Ang

Energy contributions relative to reference atoms: (reference = -12877860.274276)

Kinetic:       -233.413050
Potential:     +107.706942
External:        +0.000000
XC:            -104.843175
Entropy (-ST):   -2.256166
Local:           -6.842791
--------------------------
Free energy:   -239.648239
Extrapolated:  -238.520156

Fermi level: 0.94505

Showing only first 2 kpts
 Kpt  Band  Eigenvalues  Occupancy
  0   360      0.94229    0.12673
  0   361      0.95502    0.11878
  0   362      0.98022    0.10325
  0   363      1.00644    0.08780

  1   360      0.85169    0.17945
  1   361      0.87853    0.16511
  1   362      0.90277    0.15104
  1   363      0.93853    0.12908



Forces in eV/Ang:
  0 Pd   -0.12298    0.33718   -0.33819
  1 Ir    0.95599    0.69644    0.60616
  2 Ru   -1.08425    0.29594    0.68250
  3 Ru    0.42035    0.29005    1.60608
  4 Ir   -0.56584   -0.79390    1.17116
  5 Pt    0.15359    0.16101    0.04586
  6 Pd   -0.49821   -0.42440   -0.24948
  7 Pd    0.39073   -0.27577   -0.57885
  8 Ru    0.34035   -0.15445    0.54327
  9 Ag   -0.24013   -0.10445    0.04840
 10 Ag   -0.02765   -0.10533    0.05457
 11 Ag    0.07680   -0.16753   -0.13785
 12 Pt    0.10852    0.76225   -0.54071
 13 Pt    0.12152    0.57572   -0.71969
 14 Pt   -0.11300    0.21469   -0.19190
 15 Ru   -0.40025   -0.75644   -0.97393
 16 Pt   -0.41543    0.16232   -0.12950
 17 Ir    0.90612   -0.08807   -1.03544
 18 Pt   -0.02138   -0.01679   -0.01730
 19 Ag   -0.01511   -0.04596    0.02102
 20 Pd   -0.00412   -0.04698    0.02337
 21 Ag    0.00357   -0.01403   -0.01595
 22 Ru   -0.03606    0.00707    0.02839
 23 Pd   -0.05174   -0.04029    0.03964
 24 Ir    0.02825    0.04881   -0.04977
 25 Ir   -0.01342   -0.03827    0.03421
 26 Pt    0.02471   -0.00225    0.01180
 27 Ir    0.04217   -0.00280    0.00263
 28 Pd    0.07258   -0.02164   -0.02289
 29 Ag   -0.04468    0.01744   -0.02041
 30 Pd   -0.00125   -0.00706   -0.03156
 31 Pd    0.02744   -0.11490    0.03622
 32 Pd    0.03299    0.01270    0.03653
 33 Ru   -0.02252   -0.08567    0.03071
 34 Pd    0.03261    0.02479   -0.04576
 35 Ir   -0.01420   -0.02491    0.07457
 36 Ir    0.03145   -0.08236   -0.01033
 37 Pt   -0.03653   -0.15696   -0.14243
 38 Ag    0.04014   -0.04563    0.03667
 39 Pd   -0.11391   -0.04191   -0.03883
 40 Pd    0.09110    0.16363    1.27936
 41 Ir    0.09300   -0.07400   -0.04889
 42 Ag   -0.05738    0.02240    0.01120
 43 Ir    0.01715    0.11635   -0.06921
 44 Ir    0.00327   -0.03390    0.00424
 45 O     0.35680    0.24172   -0.60132
 46 H    -0.35126   -0.34333   -0.48130

System changes: positions 

Initializing position-dependent things.

Density initialized from wave functions
                                             
                                             
                                             
                                             
                                             
                                             
                      H                      
                    O                        
                  Ag     Ir    Ir            
            Pd      Pd                       
                   Ru     PIr    Ir          
        Ir    Pt    PAg    Pd                
                                             
        Ir     Pd    IAg    Ir     Pt        
                Ag                           
                       Ru     Pd             
           Pt     Ag    PPd    Ir            
                                             
            Pt     Pt    PPt    Ru           
       Ag     Ag     Ag                      
              Ru    Ir     Pt                
         Pd    Ir     Ru                     
                                             
                                             
                                             
                                             
                                             

Positions:
   0 Pd     0.000000    1.624086   10.000000    ( 0.0000,  0.0000,  0.0000)
   1 Ir     2.812999    1.624086   10.000000    ( 0.0000,  0.0000,  0.0000)
   2 Ru     5.625998    1.624086   10.000000    ( 0.0000,  0.0000,  0.0000)
   3 Ru     1.406500    4.060215   10.000000    ( 0.0000,  0.0000,  0.0000)
   4 Ir     4.219499    4.060215   10.000000    ( 0.0000,  0.0000,  0.0000)
   5 Pt     7.032498    4.060215   10.000000    ( 0.0000,  0.0000,  0.0000)
   6 Pd     2.812999    6.496343   10.000000    ( 0.0000,  0.0000,  0.0000)
   7 Pd     5.625998    6.496343   10.000000    ( 0.0000,  0.0000,  0.0000)
   8 Ru     8.438997    6.496343   10.000000    ( 0.0000,  0.0000,  0.0000)
   9 Ag     0.000000    0.000000   12.296804    ( 0.0000,  0.0000,  0.0000)
  10 Ag     2.812999    0.000000   12.296804    ( 0.0000,  0.0000,  0.0000)
  11 Ag     5.625998    0.000000   12.296804    ( 0.0000,  0.0000,  0.0000)
  12 Pt     1.406500    2.436129   12.296804    ( 0.0000,  0.0000,  0.0000)
  13 Pt     4.219499    2.436129   12.296804    ( 0.0000,  0.0000,  0.0000)
  14 Pt     7.032498    2.436129   12.296804    ( 0.0000,  0.0000,  0.0000)
  15 Ru     2.812999    4.872257   12.296804    ( 0.0000,  0.0000,  0.0000)
  16 Pt     5.625998    4.872257   12.296804    ( 0.0000,  0.0000,  0.0000)
  17 Ir     8.438997    4.872257   12.296804    ( 0.0000,  0.0000,  0.0000)
  18 Pt     1.328974    0.737696   14.655553    ( 0.0000,  0.0000,  0.0000)
  19 Ag     4.180111    0.789256   14.647602    ( 0.0000,  0.0000,  0.0000)
  20 Pd     7.001175    0.857508   14.622683    ( 0.0000,  0.0000,  0.0000)
  21 Ag     2.801197    3.197215   14.644389    ( 0.0000,  0.0000,  0.0000)
  22 Ru     5.657746    3.375580   14.467409    ( 0.0000,  0.0000,  0.0000)
  23 Pd     8.449189    3.205034   14.572933    ( 0.0000,  0.0000,  0.0000)
  24 Ir     4.206138    5.618433   14.564019    ( 0.0000,  0.0000,  0.0000)
  25 Ir     7.030539    5.574217   14.564720    ( 0.0000,  0.0000,  0.0000)
  26 Pt     9.860160    5.665658   14.598119    ( 0.0000,  0.0000,  0.0000)
  27 Ir    -0.073547    1.506481   16.939063    ( 0.0000,  0.0000,  0.0000)
  28 Pd     2.754009    1.590923   16.989079    ( 0.0000,  0.0000,  0.0000)
  29 Ag     5.527866    1.596736   16.916119    ( 0.0000,  0.0000,  0.0000)
  30 Pd     1.401430    4.030614   16.970153    ( 0.0000,  0.0000,  0.0000)
  31 Pd     4.188806    4.095819   16.895943    ( 0.0000,  0.0000,  0.0000)
  32 Pd     7.010790    3.970797   16.740129    ( 0.0000,  0.0000,  0.0000)
  33 Ru     2.843023    6.532445   16.756681    ( 0.0000,  0.0000,  0.0000)
  34 Pd     5.665488    6.452548   16.789817    ( 0.0000,  0.0000,  0.0000)
  35 Ir     8.551095    6.375865   16.927828    ( 0.0000,  0.0000,  0.0000)
  36 Ir     0.065108   -0.037825   18.980624    ( 0.0000,  0.0000,  0.0000)
  37 Pt     2.798817   -0.112758   19.127168    ( 0.0000,  0.0000,  0.0000)
  38 Ag     5.665279    0.008470   19.410077    ( 0.0000,  0.0000,  0.0000)
  39 Pd     1.338652    2.372671   19.275087    ( 0.0000,  0.0000,  0.0000)
  40 Pd     4.324368    2.534854   19.384002    ( 0.0000,  0.0000,  0.0000)
  41 Ir     7.183008    2.506449   19.013530    ( 0.0000,  0.0000,  0.0000)
  42 Ag     2.803974    4.895554   19.380562    ( 0.0000,  0.0000,  0.0000)
  43 Ir     5.701948    4.925551   19.032421    ( 0.0000,  0.0000,  0.0000)
  44 Ir     8.279106    4.845674   19.000782    ( 0.0000,  0.0000,  0.0000)
  45 O      4.350939    2.542663   21.346277    ( 0.0000,  0.0000,  0.0000)
  46 H      4.930132    3.134158   21.758280    ( 0.0000,  0.0000,  0.0000)

Unit cell:
           periodic     x           y           z      points  spacing
  1. axis:    yes    8.465341    0.000000    0.000000    35     0.2095
  2. axis:    yes    4.232670    7.331200    0.000000    35     0.2095
  3. axis:    no     0.000000    0.000000   29.187217   135     0.2162

  Lengths:   8.465341   8.465341  29.187217
  Angles:   90.000000  90.000000  60.000000

Effective grid spacing dv^(1/3) = 0.2221

                     log10-error:    total        iterations:
           time      wfs    density  energy       fermi  poisson
iter:   1  15:16:25  -2.11   +inf  -244.798486    4             
iter:   2  15:17:55  -1.13  -1.79  -362.351120    38            
iter:   3  15:19:05  -1.27  -1.20  -263.288916    37            
iter:   4  15:20:18  -2.15  -1.56  -239.261078    36            
iter:   5  15:21:29  -2.89  -2.34  -238.909570    3             
iter:   6  15:22:42  -3.54  -2.38  -238.853633    3             
iter:   7  15:23:53  -3.88  -2.43  -238.587050    3             
iter:   8  15:25:04  -3.96  -2.81  -238.548564    2             
iter:   9  15:26:16  -4.47  -2.92  -238.534332    3             
iter:  10  15:27:28  -4.21  -2.97  -238.525637    3             
iter:  11  15:28:38  -4.31  -3.03  -238.516558    3             
iter:  12  15:29:50  -4.85  -3.11  -238.522987    2             
iter:  13  15:31:02  -5.37  -2.99  -238.509856    2             
iter:  14  15:32:14  -5.39  -3.34  -238.508371    3             
iter:  15  15:33:26  -5.43  -3.41  -238.507871    2             
iter:  16  15:34:38  -5.39  -3.49  -238.506300    3             
iter:  17  15:35:50  -5.75  -3.65  -238.507626    2             
iter:  18  15:37:03  -5.79  -3.67  -238.506791    2             
iter:  19  15:38:16  -5.82  -3.59  -238.509205    2             
iter:  20  15:39:27  -6.25  -3.35  -238.506536    2             
iter:  21  15:40:39  -6.46  -3.88  -238.506244    2             
iter:  22  15:41:52  -6.52  -3.94  -238.506221    2             
iter:  23  15:43:04  -6.44  -3.90  -238.506796    2             
iter:  24  15:44:17  -6.74  -4.04  -238.506153    2             
iter:  25  15:45:30  -6.87  -4.13  -238.506360    2             
iter:  26  15:46:44  -6.91  -3.87  -238.506425    2             
iter:  27  15:47:56  -7.17  -4.32  -238.506289    2             
iter:  28  15:49:07  -7.35  -4.39  -238.506276    2             
iter:  29  15:50:20  -7.49  -4.37  -238.506444    2             

Converged after 29 iterations.

Dipole moment: (25.249060, 17.258619, -0.134578) |e|*Ang

Energy contributions relative to reference atoms: (reference = -12877860.274276)

Kinetic:       -222.107012
Potential:      +98.186279
External:        +0.000000
XC:            -106.552997
Entropy (-ST):   -2.239370
Local:           -6.913029
--------------------------
Free energy:   -239.626129
Extrapolated:  -238.506444

Fermi level: 0.99874

Showing only first 2 kpts
 Kpt  Band  Eigenvalues  Occupancy
  0   360      0.99673    0.12626
  0   361      1.01490    0.11492
  0   362      1.03611    0.10191
  0   363      1.06166    0.08693

  1   360      0.90293    0.18069
  1   361      0.93385    0.16419
  1   362      0.95293    0.15314
  1   363      0.99168    0.12941



Forces in eV/Ang:
  0 Pd   -0.12420    0.32506   -0.34083
  1 Ir    0.94716    0.68541    0.61729
  2 Ru   -1.07465    0.28619    0.68880
  3 Ru    0.41704    0.29278    1.60942
  4 Ir   -0.56144   -0.78503    1.18006
  5 Pt    0.15495    0.15989    0.05019
  6 Pd   -0.49645   -0.41407   -0.24187
  7 Pd    0.38458   -0.26533   -0.56956
  8 Ru    0.34498   -0.15024    0.55788
  9 Ag   -0.25251   -0.09723    0.02685
 10 Ag   -0.02222   -0.10712    0.06101
 11 Ag    0.07912   -0.16488   -0.12811
 12 Pt    0.10143    0.76508   -0.52948
 13 Pt    0.11714    0.55830   -0.70380
 14 Pt   -0.11206    0.19889   -0.17300
 15 Ru   -0.40395   -0.74360   -0.97816
 16 Pt   -0.40162    0.16506   -0.13671
 17 Ir    0.90721   -0.09419   -1.02438
 18 Pt   -0.00474    0.02098   -0.03345
 19 Ag   -0.00460   -0.03285   -0.00056
 20 Pd   -0.02109   -0.03119    0.01398
 21 Ag   -0.00448   -0.00405    0.00285
 22 Ru   -0.02443   -0.02686    0.03920
 23 Pd   -0.00979   -0.02625    0.01570
 24 Ir   -0.02235   -0.01341    0.01014
 25 Ir    0.00236   -0.01701   -0.01042
 26 Pt    0.00233   -0.02881    0.00450
 27 Ir    0.02194   -0.05904   -0.04631
 28 Pd    0.07590    0.02700    0.10076
 29 Ag   -0.06787    0.06398    0.18354
 30 Pd    0.02788   -0.03792   -0.03392
 31 Pd    0.03212   -0.08917    0.10460
 32 Pd   -0.01773   -0.02375    0.00333
 33 Ru    0.01909   -0.03672    0.02378
 34 Pd   -0.03612   -0.02068   -0.08396
 35 Ir    0.03130    0.01359   -0.00286
 36 Ir    0.00728   -0.07686   -0.06108
 37 Pt    0.02536    0.00863   -0.07380
 38 Ag    0.01400   -0.00520   -0.00894
 39 Pd    0.01232   -0.02407   -0.05744
 40 Pd    0.23932    0.14411   -0.59020
 41 Ir   -0.05261   -0.05679    0.00644
 42 Ag   -0.06191   -0.00484   -0.02008
 43 Ir   -0.08925   -0.02182    0.01088
 44 Ir    0.04537   -0.10695    0.01879
 45 O    -2.38926   -2.51480   -0.47383
 46 H     2.17856    2.24111    1.25975

System changes: positions 

Initializing position-dependent things.

Density initialized from wave functions
                                             
                                             
                                             
                                             
                                             
                                             
                      H                      
                    O                        
                  Ag     Ir    Ir            
            Pd      Pd                       
                   Ru     PIr    Ir          
        Ir    Pt    PAg    Pd                
                                             
        Ir     Pd    IAg    Ir     Pt        
                                             
                Ag     Ru     Pd             
           Pt     Ag    PPd    Ir            
                                             
            Pt     Pt    PPt    Ru           
       Ag     Ag     Ag                      
              Ru    Ir     Pt                
         Pd    Ir     Ru                     
                                             
                                             
                                             
                                             
                                             

Positions:
   0 Pd     0.000000    1.624086   10.000000    ( 0.0000,  0.0000,  0.0000)
   1 Ir     2.812999    1.624086   10.000000    ( 0.0000,  0.0000,  0.0000)
   2 Ru     5.625998    1.624086   10.000000    ( 0.0000,  0.0000,  0.0000)
   3 Ru     1.406500    4.060215   10.000000    ( 0.0000,  0.0000,  0.0000)
   4 Ir     4.219499    4.060215   10.000000    ( 0.0000,  0.0000,  0.0000)
   5 Pt     7.032498    4.060215   10.000000    ( 0.0000,  0.0000,  0.0000)
   6 Pd     2.812999    6.496343   10.000000    ( 0.0000,  0.0000,  0.0000)
   7 Pd     5.625998    6.496343   10.000000    ( 0.0000,  0.0000,  0.0000)
   8 Ru     8.438997    6.496343   10.000000    ( 0.0000,  0.0000,  0.0000)
   9 Ag     0.000000    0.000000   12.296804    ( 0.0000,  0.0000,  0.0000)
  10 Ag     2.812999    0.000000   12.296804    ( 0.0000,  0.0000,  0.0000)
  11 Ag     5.625998    0.000000   12.296804    ( 0.0000,  0.0000,  0.0000)
  12 Pt     1.406500    2.436129   12.296804    ( 0.0000,  0.0000,  0.0000)
  13 Pt     4.219499    2.436129   12.296804    ( 0.0000,  0.0000,  0.0000)
  14 Pt     7.032498    2.436129   12.296804    ( 0.0000,  0.0000,  0.0000)
  15 Ru     2.812999    4.872257   12.296804    ( 0.0000,  0.0000,  0.0000)
  16 Pt     5.625998    4.872257   12.296804    ( 0.0000,  0.0000,  0.0000)
  17 Ir     8.438997    4.872257   12.296804    ( 0.0000,  0.0000,  0.0000)
  18 Pt     1.330090    0.738572   14.656456    ( 0.0000,  0.0000,  0.0000)
  19 Ag     4.180900    0.791655   14.646504    ( 0.0000,  0.0000,  0.0000)
  20 Pd     7.001390    0.859961   14.621463    ( 0.0000,  0.0000,  0.0000)
  21 Ag     2.801011    3.197947   14.645221    ( 0.0000,  0.0000,  0.0000)
  22 Ru     5.659628    3.375211   14.465927    ( 0.0000,  0.0000,  0.0000)
  23 Pd     8.451890    3.207138   14.570863    ( 0.0000,  0.0000,  0.0000)
  24 Ir     4.204663    5.615885   14.566618    ( 0.0000,  0.0000,  0.0000)
  25 Ir     7.031240    5.576215   14.562935    ( 0.0000,  0.0000,  0.0000)
  26 Pt     9.858870    5.665775   14.597503    ( 0.0000,  0.0000,  0.0000)
  27 Ir    -0.075748    1.506627   16.938926    ( 0.0000,  0.0000,  0.0000)
  28 Pd     2.750220    1.592053   16.990274    ( 0.0000,  0.0000,  0.0000)
  29 Ag     5.530199    1.595825   16.917184    ( 0.0000,  0.0000,  0.0000)
  30 Pd     1.401496    4.030983   16.971801    ( 0.0000,  0.0000,  0.0000)
  31 Pd     4.187374    4.101816   16.894052    ( 0.0000,  0.0000,  0.0000)
  32 Pd     7.009068    3.970134   16.738222    ( 0.0000,  0.0000,  0.0000)
  33 Ru     2.844199    6.536917   16.755078    ( 0.0000,  0.0000,  0.0000)
  34 Pd     5.663786    6.451254   16.792206    ( 0.0000,  0.0000,  0.0000)
  35 Ir     8.551836    6.377165   16.923935    ( 0.0000,  0.0000,  0.0000)
  36 Ir     0.063466   -0.033526   18.981164    ( 0.0000,  0.0000,  0.0000)
  37 Pt     2.800724   -0.104564   19.134603    ( 0.0000,  0.0000,  0.0000)
  38 Ag     5.663184    0.010852   19.408162    ( 0.0000,  0.0000,  0.0000)
  39 Pd     1.344598    2.374859   19.277114    ( 0.0000,  0.0000,  0.0000)
  40 Pd     4.319612    2.526312   19.317216    ( 0.0000,  0.0000,  0.0000)
  41 Ir     7.178153    2.510312   19.016082    ( 0.0000,  0.0000,  0.0000)
  42 Ag     2.806970    4.894385   19.379977    ( 0.0000,  0.0000,  0.0000)
  43 Ir     5.701053    4.919477   19.036034    ( 0.0000,  0.0000,  0.0000)
  44 Ir     8.278936    4.847443   19.000561    ( 0.0000,  0.0000,  0.0000)
  45 O      4.332312    2.530044   21.377668    ( 0.0000,  0.0000,  0.0000)
  46 H      4.948469    3.152081   21.783405    ( 0.0000,  0.0000,  0.0000)

Unit cell:
           periodic     x           y           z      points  spacing
  1. axis:    yes    8.465341    0.000000    0.000000    35     0.2095
  2. axis:    yes    4.232670    7.331200    0.000000    35     0.2095
  3. axis:    no     0.000000    0.000000   29.187217   135     0.2162

  Lengths:   8.465341   8.465341  29.187217
  Angles:   90.000000  90.000000  60.000000

Effective grid spacing dv^(1/3) = 0.2221

                     log10-error:    total        iterations:
           time      wfs    density  energy       fermi  poisson
iter:   1  15:52:05  -2.56   +inf  -239.176942    3             
iter:   2  15:53:17  -2.68  -2.41  -245.097218    4             
iter:   3  15:54:30  -2.67  -1.74  -240.922016    3             
iter:   4  15:55:42  -3.34  -1.96  -238.892075    3             
iter:   5  15:56:55  -3.73  -2.52  -238.648629    3             
iter:   6  15:58:10  -4.32  -2.92  -238.617516    3             
iter:   7  15:59:24  -5.02  -3.12  -238.609958    2             
iter:   8  16:00:38  -4.99  -3.25  -238.605494    2             
iter:   9  16:01:50  -4.85  -3.36  -238.647023    2             
iter:  10  16:03:02  -4.79  -2.77  -238.600703    2             
iter:  11  16:04:14  -5.28  -3.45  -238.599358    2             
iter:  12  16:05:26  -5.56  -3.46  -238.598754    2             
iter:  13  16:06:39  -5.91  -3.68  -238.598010    2             
iter:  14  16:07:51  -6.09  -3.56  -238.598401    2             
iter:  15  16:09:02  -6.80  -3.85  -238.598078    2             
iter:  16  16:10:14  -6.35  -3.89  -238.599439    2             
iter:  17  16:11:26  -6.75  -3.56  -238.598216    2             
iter:  18  16:12:38  -6.39  -3.98  -238.598696    2             
iter:  19  16:13:49  -6.43  -3.85  -238.597548    2             
iter:  20  16:15:00  -6.34  -3.97  -238.598404    2             
iter:  21  16:16:13  -6.92  -3.97  -238.597975    2             
iter:  22  16:17:25  -7.24  -4.37  -238.598037    2             
iter:  23  16:18:37  -7.02  -4.17  -238.598086    2             
iter:  24  16:19:48  -7.46  -4.04  -238.597947    2             

Converged after 24 iterations.

Dipole moment: (24.793447, 16.813662, -0.197291) |e|*Ang

Energy contributions relative to reference atoms: (reference = -12877860.274276)

Kinetic:       -226.603158
Potential:     +101.636864
External:        +0.000000
XC:            -105.622378
Entropy (-ST):   -2.247990
Local:           -6.885280
--------------------------
Free energy:   -239.721942
Extrapolated:  -238.597947

Fermi level: 0.96842

Showing only first 2 kpts
 Kpt  Band  Eigenvalues  Occupancy
  0   360      0.96619    0.12639
  0   361      0.98120    0.11702
  0   362      1.00458    0.10264
  0   363      1.03042    0.08744

  1   360      0.87386    0.18005
  1   361      0.90256    0.16473
  1   362      0.92440    0.15207
  1   363      0.96145    0.12935



Forces in eV/Ang:
  0 Pd   -0.12490    0.32607   -0.34781
  1 Ir    0.95039    0.68765    0.60799
  2 Ru   -1.07728    0.28554    0.68045
  3 Ru    0.41851    0.29431    1.60371
  4 Ir   -0.56472   -0.78841    1.17366
  5 Pt    0.15575    0.15849    0.04355
  6 Pd   -0.49859   -0.41474   -0.24926
  7 Pd    0.38482   -0.26497   -0.57779
  8 Ru    0.34699   -0.14963    0.54726
  9 Ag   -0.24911   -0.09913    0.03334
 10 Ag   -0.02224   -0.10540    0.05549
 11 Ag    0.07817   -0.16516   -0.13555
 12 Pt    0.10457    0.76492   -0.53649
 13 Pt    0.11747    0.56500   -0.71329
 14 Pt   -0.10997    0.20489   -0.18300
 15 Ru   -0.40429   -0.75032   -0.98001
 16 Pt   -0.40705    0.16421   -0.13976
 17 Ir    0.90661   -0.09276   -1.03040
 18 Pt   -0.01656    0.00410   -0.01827
 19 Ag   -0.00524   -0.03509    0.01839
 20 Pd   -0.01690   -0.03372    0.02047
 21 Ag   -0.00002   -0.00857    0.00727
 22 Ru   -0.03198   -0.01757    0.04339
 23 Pd   -0.02700   -0.03371    0.03148
 24 Ir   -0.00195    0.01727   -0.01096
 25 Ir    0.00061   -0.02914    0.01351
 26 Pt    0.01410   -0.01857    0.01112
 27 Ir    0.03257   -0.02731   -0.03242
 28 Pd    0.08783    0.02243    0.04520
 29 Ag   -0.07309    0.04639    0.08573
 30 Pd    0.03397   -0.03146   -0.03469
 31 Pd    0.01949   -0.11461    0.07759
 32 Pd   -0.00398   -0.01721    0.01476
 33 Ru   -0.00308   -0.06461    0.02400
 34 Pd   -0.00783    0.00042   -0.07458
 35 Ir    0.01716    0.01354    0.02832
 36 Ir    0.01940   -0.06797   -0.01037
 37 Pt    0.00160   -0.03945   -0.07991
 38 Ag    0.02296   -0.03239    0.01741
 39 Pd   -0.02855   -0.03846   -0.03385
 40 Pd    0.13358    0.12080    0.53819
 41 Ir    0.03170   -0.06470   -0.03753
 42 Ag   -0.07418    0.00807   -0.01180
 43 Ir   -0.03202    0.04885   -0.06766
 44 Ir    0.03828   -0.07337    0.03755
 45 O    -0.79076   -0.87320   -0.65705
 46 H     0.73279    0.75046    0.19161

System changes: positions 

Initializing position-dependent things.

Density initialized from wave functions
                                             
                                             
                                             
                                             
                                             
                                             
                      H                      
                    O                        
                 Ag      Ir    Ir            
            Pd      Pd                       
                   Ru     PIr    Ir          
        Ir    Pt    PAg    Pd                
                                             
        Ir     Pd    IAg    Ir     Pt        
                Ag                           
                       Ru     Pd             
           Pt     Ag    PPd    Ir            
                                             
            Pt     Pt    PPt    Ru           
       Ag     Ag     Ag                      
              Ru    Ir     Pt                
         Pd    Ir     Ru                     
                                             
                                             
                                             
                                             
                                             

Positions:
   0 Pd     0.000000    1.624086   10.000000    ( 0.0000,  0.0000,  0.0000)
   1 Ir     2.812999    1.624086   10.000000    ( 0.0000,  0.0000,  0.0000)
   2 Ru     5.625998    1.624086   10.000000    ( 0.0000,  0.0000,  0.0000)
   3 Ru     1.406500    4.060215   10.000000    ( 0.0000,  0.0000,  0.0000)
   4 Ir     4.219499    4.060215   10.000000    ( 0.0000,  0.0000,  0.0000)
   5 Pt     7.032498    4.060215   10.000000    ( 0.0000,  0.0000,  0.0000)
   6 Pd     2.812999    6.496343   10.000000    ( 0.0000,  0.0000,  0.0000)
   7 Pd     5.625998    6.496343   10.000000    ( 0.0000,  0.0000,  0.0000)
   8 Ru     8.438997    6.496343   10.000000    ( 0.0000,  0.0000,  0.0000)
   9 Ag     0.000000    0.000000   12.296804    ( 0.0000,  0.0000,  0.0000)
  10 Ag     2.812999    0.000000   12.296804    ( 0.0000,  0.0000,  0.0000)
  11 Ag     5.625998    0.000000   12.296804    ( 0.0000,  0.0000,  0.0000)
  12 Pt     1.406500    2.436129   12.296804    ( 0.0000,  0.0000,  0.0000)
  13 Pt     4.219499    2.436129   12.296804    ( 0.0000,  0.0000,  0.0000)
  14 Pt     7.032498    2.436129   12.296804    ( 0.0000,  0.0000,  0.0000)
  15 Ru     2.812999    4.872257   12.296804    ( 0.0000,  0.0000,  0.0000)
  16 Pt     5.625998    4.872257   12.296804    ( 0.0000,  0.0000,  0.0000)
  17 Ir     8.438997    4.872257   12.296804    ( 0.0000,  0.0000,  0.0000)
  18 Pt     1.326095    0.737046   14.652765    ( 0.0000,  0.0000,  0.0000)
  19 Ag     4.178686    0.783117   14.650631    ( 0.0000,  0.0000,  0.0000)
  20 Pd     6.999329    0.851435   14.626052    ( 0.0000,  0.0000,  0.0000)
  21 Ag     2.801415    3.195543   14.644088    ( 0.0000,  0.0000,  0.0000)
  22 Ru     5.652510    3.374362   14.473245    ( 0.0000,  0.0000,  0.0000)
  23 Pd     8.443454    3.199374   14.578342    ( 0.0000,  0.0000,  0.0000)
  24 Ir     4.207698    5.623071   14.559916    ( 0.0000,  0.0000,  0.0000)
  25 Ir     7.029769    5.569112   14.568103    ( 0.0000,  0.0000,  0.0000)
  26 Pt     9.863012    5.663770   14.599894    ( 0.0000,  0.0000,  0.0000)
  27 Ir    -0.067878    1.503736   16.936173    ( 0.0000,  0.0000,  0.0000)
  28 Pd     2.766756    1.591699   16.991922    ( 0.0000,  0.0000,  0.0000)
  29 Ag     5.518229    1.602180   16.922931    ( 0.0000,  0.0000,  0.0000)
  30 Pd     1.404552    4.027216   16.964940    ( 0.0000,  0.0000,  0.0000)
  31 Pd     4.192334    4.077939   16.905483    ( 0.0000,  0.0000,  0.0000)
  32 Pd     7.012451    3.969960   16.743773    ( 0.0000,  0.0000,  0.0000)
  33 Ru     2.841344    6.521075   16.760836    ( 0.0000,  0.0000,  0.0000)
  34 Pd     5.666763    6.454117   16.779972    ( 0.0000,  0.0000,  0.0000)
  35 Ir     8.551835    6.375603   16.935096    ( 0.0000,  0.0000,  0.0000)
  36 Ir     0.068875   -0.049307   18.979010    ( 0.0000,  0.0000,  0.0000)
  37 Pt     2.796713   -0.126157   19.110856    ( 0.0000,  0.0000,  0.0000)
  38 Ag     5.669918    0.002605   19.413979    ( 0.0000,  0.0000,  0.0000)
  39 Pd     1.328935    2.366464   19.269504    ( 0.0000,  0.0000,  0.0000)
  40 Pd     4.342566    2.556324   19.513614    ( 0.0000,  0.0000,  0.0000)
  41 Ir     7.191730    2.495792   19.006981    ( 0.0000,  0.0000,  0.0000)
  42 Ag     2.793450    4.897696   19.380142    ( 0.0000,  0.0000,  0.0000)
  43 Ir     5.699992    4.937330   19.021780    ( 0.0000,  0.0000,  0.0000)
  44 Ir     8.282912    4.836674   19.004578    ( 0.0000,  0.0000,  0.0000)
  45 O      4.298508    2.475369   21.247313    ( 0.0000,  0.0000,  0.0000)
  46 H      4.977447    3.183627   21.746621    ( 0.0000,  0.0000,  0.0000)

Unit cell:
           periodic     x           y           z      points  spacing
  1. axis:    yes    8.465341    0.000000    0.000000    35     0.2095
  2. axis:    yes    4.232670    7.331200    0.000000    35     0.2095
  3. axis:    no     0.000000    0.000000   29.187217   135     0.2162

  Lengths:   8.465341   8.465341  29.187217
  Angles:   90.000000  90.000000  60.000000

Effective grid spacing dv^(1/3) = 0.2221

                     log10-error:    total        iterations:
           time      wfs    density  energy       fermi  poisson
iter:   1  16:21:37  -1.65   +inf  -239.376133    34            
iter:   2  16:22:52  -1.79  -2.05  -288.847785    34            
iter:   3  16:24:22  -2.14  -1.38  -238.473397    35            
iter:   4  16:25:51  -3.09  -2.23  -237.992125    3             
iter:   5  16:27:20  -3.61  -2.56  -237.919267    3             
iter:   6  16:28:49  -3.28  -2.64  -237.824717    3             
iter:   7  16:30:18  -3.55  -2.72  -237.771920    3             
iter:   8  16:31:46  -3.79  -2.90  -237.777498    3             
iter:   9  16:33:15  -3.84  -2.86  -238.205070    2             
iter:  10  16:34:43  -4.29  -2.29  -237.748435    2             
iter:  11  16:36:12  -4.75  -3.00  -237.748141    3             
iter:  12  16:37:40  -4.75  -3.05  -237.741959    2             
iter:  13  16:39:09  -4.77  -3.04  -237.734730    3             
iter:  14  16:40:38  -5.09  -3.24  -237.733327    3             
iter:  15  16:42:07  -5.36  -3.38  -237.740305    2             
iter:  16  16:43:36  -5.20  -3.09  -237.739154    2             
iter:  17  16:45:05  -4.97  -3.16  -237.739370    3             
iter:  18  16:46:34  -5.42  -3.28  -237.732069    3             
iter:  19  16:48:02  -5.56  -3.60  -237.733125    2             
iter:  20  16:49:31  -6.01  -3.65  -237.732802    2             
iter:  21  16:51:00  -6.04  -3.74  -237.732315    2             
iter:  22  16:52:29  -6.26  -3.65  -237.732411    2             
iter:  23  16:53:58  -6.43  -3.67  -237.732355    2             
iter:  24  16:55:27  -6.19  -3.90  -237.731448    2             
iter:  25  16:56:42  -6.55  -3.79  -237.731559    2             
iter:  26  16:57:58  -6.63  -4.15  -237.731505    2             
iter:  27  16:59:12  -6.88  -4.28  -237.731461    2             
iter:  28  17:00:24  -7.10  -4.16  -237.731580    2             
iter:  29  17:01:37  -7.01  -4.07  -237.731792    2             
iter:  30  17:02:52  -7.33  -4.37  -237.731504    2             
iter:  31  17:04:10  -7.58  -4.24  -237.731671    2             

Converged after 31 iterations.

Dipole moment: (26.172962, 18.137024, 0.071948) |e|*Ang

Energy contributions relative to reference atoms: (reference = -12877860.274276)

Kinetic:       -216.761821
Potential:      +92.993620
External:        +0.000000
XC:            -105.936435
Entropy (-ST):   -2.224413
Local:           -6.914829
--------------------------
Free energy:   -238.843878
Extrapolated:  -237.731671

Fermi level: 1.09660

Showing only first 2 kpts
 Kpt  Band  Eigenvalues  Occupancy
  0   360      1.09358    0.12689
  0   361      1.11625    0.11276
  0   362      1.13633    0.10049
  0   363      1.16050    0.08637

  1   360      0.99963    0.18127
  1   361      1.03516    0.16224
  1   362      1.04753    0.15507
  1   363      1.08978    0.12926



Forces in eV/Ang:
  0 Pd   -0.12222    0.32534   -0.35031
  1 Ir    0.95085    0.68674    0.60208
  2 Ru   -1.07770    0.28577    0.68519
  3 Ru    0.41809    0.29064    1.60337
  4 Ir   -0.56423   -0.78752    1.17415
  5 Pt    0.15769    0.16197    0.04394
  6 Pd   -0.49813   -0.41395   -0.24904
  7 Pd    0.38574   -0.26342   -0.57802
  8 Ru    0.34494   -0.14985    0.55352
  9 Ag   -0.25842   -0.09061    0.01086
 10 Ag   -0.01762   -0.11552    0.06369
 11 Ag    0.07491   -0.16732   -0.12386
 12 Pt    0.09531    0.78352   -0.52604
 13 Pt    0.11708    0.55555   -0.70136
 14 Pt   -0.12125    0.20345   -0.14974
 15 Ru   -0.40656   -0.74604   -0.97907
 16 Pt   -0.38506    0.13736   -0.12011
 17 Ir    0.90383   -0.10991   -1.00937
 18 Pt    0.03267    0.05809   -0.04832
 19 Ag    0.00030   -0.01652   -0.00793
 20 Pd   -0.02926   -0.01282    0.02983
 21 Ag   -0.00476    0.00125    0.00504
 22 Ru    0.00022   -0.02302    0.00406
 23 Pd    0.02514    0.00044   -0.03903
 24 Ir   -0.06161   -0.08692    0.05753
 25 Ir    0.01395    0.00210   -0.06784
 26 Pt   -0.02971   -0.04702   -0.01329
 27 Ir   -0.00511   -0.14916   -0.09220
 28 Pd   -0.04136    0.01332    0.07451
 29 Ag    0.03795    0.01254    0.23087
 30 Pd    0.02031   -0.03210   -0.02417
 31 Pd    0.02319    0.02040    0.08332
 32 Pd   -0.04052   -0.03909   -0.01090
 33 Ru    0.04345    0.04911    0.00391
 34 Pd   -0.10408   -0.03418   -0.10778
 35 Ir    0.08885   -0.00210   -0.06744
 36 Ir   -0.04035   -0.06469   -0.06133
 37 Pt    0.08803    0.10304    0.08378
 38 Ag   -0.01373    0.02736   -0.03512
 39 Pd    0.11245    0.01157   -0.01363
 40 Pd    0.35674    0.23218   -6.29944
 41 Ir   -0.16883   -0.00935    0.11107
 42 Ag   -0.04881   -0.04148   -0.05578
 43 Ir   -0.12209   -0.14936    0.19014
 44 Ir    0.02896   -0.14368    0.05046
 45 O     2.02255    1.89720    7.49183
 46 H    -2.04972   -2.10757   -1.52453

System changes: positions 

Initializing position-dependent things.

Density initialized from wave functions
                                             
                                             
                                             
                                             
                                             
                                             
                      H                      
                    O                        
                  Ag     Ir    Ir            
            Pd      Pd                       
                   Ru     PIr    Ir          
        Ir    Pt    PAg    Pd                
                                             
        Ir     Pd    IAg    Ir     Pt        
                                             
                Ag     Ru     Pd             
           Pt     Ag    PPd    Ir            
                                             
            Pt     Pt    PPt    Ru           
       Ag     Ag     Ag                      
              Ru    Ir     Pt                
         Pd    Ir     Ru                     
                                             
                                             
                                             
                                             
                                             

Positions:
   0 Pd     0.000000    1.624086   10.000000    ( 0.0000,  0.0000,  0.0000)
   1 Ir     2.812999    1.624086   10.000000    ( 0.0000,  0.0000,  0.0000)
   2 Ru     5.625998    1.624086   10.000000    ( 0.0000,  0.0000,  0.0000)
   3 Ru     1.406500    4.060215   10.000000    ( 0.0000,  0.0000,  0.0000)
   4 Ir     4.219499    4.060215   10.000000    ( 0.0000,  0.0000,  0.0000)
   5 Pt     7.032498    4.060215   10.000000    ( 0.0000,  0.0000,  0.0000)
   6 Pd     2.812999    6.496343   10.000000    ( 0.0000,  0.0000,  0.0000)
   7 Pd     5.625998    6.496343   10.000000    ( 0.0000,  0.0000,  0.0000)
   8 Ru     8.438997    6.496343   10.000000    ( 0.0000,  0.0000,  0.0000)
   9 Ag     0.000000    0.000000   12.296804    ( 0.0000,  0.0000,  0.0000)
  10 Ag     2.812999    0.000000   12.296804    ( 0.0000,  0.0000,  0.0000)
  11 Ag     5.625998    0.000000   12.296804    ( 0.0000,  0.0000,  0.0000)
  12 Pt     1.406500    2.436129   12.296804    ( 0.0000,  0.0000,  0.0000)
  13 Pt     4.219499    2.436129   12.296804    ( 0.0000,  0.0000,  0.0000)
  14 Pt     7.032498    2.436129   12.296804    ( 0.0000,  0.0000,  0.0000)
  15 Ru     2.812999    4.872257   12.296804    ( 0.0000,  0.0000,  0.0000)
  16 Pt     5.625998    4.872257   12.296804    ( 0.0000,  0.0000,  0.0000)
  17 Ir     8.438997    4.872257   12.296804    ( 0.0000,  0.0000,  0.0000)
  18 Pt     1.329461    0.738332   14.655875    ( 0.0000,  0.0000,  0.0000)
  19 Ag     4.180552    0.790311   14.647154    ( 0.0000,  0.0000,  0.0000)
  20 Pd     7.001066    0.858619   14.622185    ( 0.0000,  0.0000,  0.0000)
  21 Ag     2.801075    3.197569   14.645043    ( 0.0000,  0.0000,  0.0000)
  22 Ru     5.658508    3.375077   14.467078    ( 0.0000,  0.0000,  0.0000)
  23 Pd     8.450563    3.205916   14.572040    ( 0.0000,  0.0000,  0.0000)
  24 Ir     4.205141    5.617016   14.565563    ( 0.0000,  0.0000,  0.0000)
  25 Ir     7.031008    5.575097   14.563748    ( 0.0000,  0.0000,  0.0000)
  26 Pt     9.859522    5.665460   14.597879    ( 0.0000,  0.0000,  0.0000)
  27 Ir    -0.074509    1.506172   16.938493    ( 0.0000,  0.0000,  0.0000)
  28 Pd     2.752822    1.591997   16.990533    ( 0.0000,  0.0000,  0.0000)
  29 Ag     5.528315    1.596825   16.918089    ( 0.0000,  0.0000,  0.0000)
  30 Pd     1.401977    4.030390   16.970721    ( 0.0000,  0.0000,  0.0000)
  31 Pd     4.188154    4.098059   16.895851    ( 0.0000,  0.0000,  0.0000)
  32 Pd     7.009600    3.970106   16.739096    ( 0.0000,  0.0000,  0.0000)
  33 Ru     2.843750    6.534424   16.755984    ( 0.0000,  0.0000,  0.0000)
  34 Pd     5.664255    6.451704   16.790281    ( 0.0000,  0.0000,  0.0000)
  35 Ir     8.551836    6.376919   16.925692    ( 0.0000,  0.0000,  0.0000)
  36 Ir     0.064317   -0.036009   18.980825    ( 0.0000,  0.0000,  0.0000)
  37 Pt     2.800093   -0.107962   19.130866    ( 0.0000,  0.0000,  0.0000)
  38 Ag     5.664244    0.009554   19.409078    ( 0.0000,  0.0000,  0.0000)
  39 Pd     1.342133    2.373538   19.275916    ( 0.0000,  0.0000,  0.0000)
  40 Pd     4.323225    2.531035   19.348124    ( 0.0000,  0.0000,  0.0000)
  41 Ir     7.180290    2.508027   19.014650    ( 0.0000,  0.0000,  0.0000)
  42 Ag     2.804842    4.894906   19.380003    ( 0.0000,  0.0000,  0.0000)
  43 Ir     5.700886    4.922287   19.033791    ( 0.0000,  0.0000,  0.0000)
  44 Ir     8.279561    4.845749   19.001193    ( 0.0000,  0.0000,  0.0000)
  45 O      4.326992    2.521440   21.357153    ( 0.0000,  0.0000,  0.0000)
  46 H      4.953029    3.157046   21.777616    ( 0.0000,  0.0000,  0.0000)

Unit cell:
           periodic     x           y           z      points  spacing
  1. axis:    yes    8.465341    0.000000    0.000000    35     0.2095
  2. axis:    yes    4.232670    7.331200    0.000000    35     0.2095
  3. axis:    no     0.000000    0.000000   29.187217   135     0.2162

  Lengths:   8.465341   8.465341  29.187217
  Angles:   90.000000  90.000000  60.000000

Effective grid spacing dv^(1/3) = 0.2221

                     log10-error:    total        iterations:
           time      wfs    density  energy       fermi  poisson
iter:   1  17:05:54  -1.69   +inf  -241.818038    4             
iter:   2  17:07:08  -1.37  -1.89  -343.986302    37            
iter:   3  17:08:20  -1.88  -1.23  -243.758479    35            
iter:   4  17:09:34  -2.57  -1.85  -239.146355    3             
iter:   5  17:10:52  -3.30  -2.34  -238.793228    3             
iter:   6  17:12:07  -3.55  -2.68  -238.838019    3             
iter:   7  17:13:22  -3.66  -2.48  -238.939808    3             
iter:   8  17:14:35  -3.52  -2.43  -238.647551    3             
iter:   9  17:15:49  -4.08  -3.03  -238.674322    3             
iter:  10  17:17:02  -4.44  -2.77  -238.641573    2             
iter:  11  17:18:16  -4.52  -2.99  -238.639808    3             
iter:  12  17:19:30  -4.92  -3.09  -238.629218    3             
iter:  13  17:20:46  -4.92  -3.32  -238.628859    2             
iter:  14  17:22:00  -5.48  -3.45  -238.627157    2             
iter:  15  17:23:16  -5.61  -3.54  -238.630702    2             
iter:  16  17:24:32  -5.59  -3.27  -238.628215    2             
iter:  17  17:25:47  -5.86  -3.53  -238.629281    2             
iter:  18  17:27:02  -6.00  -3.58  -238.627229    2             
iter:  19  17:28:19  -5.82  -3.73  -238.627976    2             
iter:  20  17:29:35  -5.89  -3.96  -238.627313    2             
iter:  21  17:30:52  -5.90  -3.98  -238.629269    2             
iter:  22  17:32:08  -6.28  -3.45  -238.627765    2             
iter:  23  17:33:19  -6.47  -4.01  -238.627998    2             
iter:  24  17:34:30  -6.61  -4.05  -238.627362    2             
iter:  25  17:35:43  -6.85  -3.96  -238.627474    2             
iter:  26  17:36:57  -6.99  -4.08  -238.627249    2             
iter:  27  17:38:10  -7.05  -4.18  -238.627401    2             
iter:  28  17:39:21  -6.91  -3.97  -238.627637    2             
iter:  29  17:40:31  -6.81  -3.91  -238.627780    2             
iter:  30  17:41:42  -7.10  -3.98  -238.627118    2             
iter:  31  17:42:58  -7.46  -4.28  -238.627313    2             

Converged after 31 iterations.

Dipole moment: (25.016127, 17.027454, -0.156256) |e|*Ang

Energy contributions relative to reference atoms: (reference = -12877860.274276)

Kinetic:       -226.478760
Potential:     +101.381761
External:        +0.000000
XC:            -105.544559
Entropy (-ST):   -2.243659
Local:           -6.863925
--------------------------
Free energy:   -239.749143
Extrapolated:  -238.627313

Fermi level: 0.98748

Showing only first 2 kpts
 Kpt  Band  Eigenvalues  Occupancy
  0   360      0.98522    0.12641
  0   361      1.00180    0.11607
  0   362      1.02415    0.10233
  0   363      1.04968    0.08733

  1   360      0.89222    0.18041
  1   361      0.92204    0.16450
  1   362      0.94240    0.15271
  1   363      0.98046    0.12938



Forces in eV/Ang:
  0 Pd   -0.12487    0.32730   -0.34754
  1 Ir    0.94986    0.68794    0.60733
  2 Ru   -1.07668    0.28603    0.68023
  3 Ru    0.41800    0.29392    1.60291
  4 Ir   -0.56505   -0.78822    1.17380
  5 Pt    0.15680    0.15930    0.04389
  6 Pd   -0.49935   -0.41550   -0.24953
  7 Pd    0.38588   -0.26560   -0.57767
  8 Ru    0.34665   -0.15100    0.54676
  9 Ag   -0.25154   -0.09885    0.03119
 10 Ag   -0.02113   -0.10638    0.05792
 11 Ag    0.07836   -0.16489   -0.13330
 12 Pt    0.10414    0.76864   -0.53362
 13 Pt    0.11731    0.56366   -0.70866
 14 Pt   -0.11232    0.20471   -0.17657
 15 Ru   -0.40444   -0.75029   -0.97881
 16 Pt   -0.40458    0.15951   -0.13527
 17 Ir    0.90681   -0.09606   -1.02868
 18 Pt   -0.00476    0.01361   -0.02495
 19 Ag   -0.00477   -0.03195    0.01116
 20 Pd   -0.02148   -0.02639    0.01950
 21 Ag   -0.00185   -0.00662   -0.00047
 22 Ru   -0.02631   -0.01740    0.03168
 23 Pd   -0.01599   -0.02479    0.01578
 24 Ir   -0.01086   -0.00209   -0.00108
 25 Ir    0.00432   -0.02440    0.00177
 26 Pt    0.00509   -0.02460    0.00450
 27 Ir    0.02124   -0.04592   -0.03617
 28 Pd    0.06349    0.01674    0.05647
 29 Ag   -0.05118    0.03545    0.11571
 30 Pd    0.01857   -0.02507   -0.02720
 31 Pd    0.02103   -0.07515    0.07403
 32 Pd   -0.00176   -0.01267    0.00894
 33 Ru    0.00711   -0.04115    0.02656
 34 Pd   -0.02102   -0.00971   -0.07333
 35 Ir    0.02132    0.00006    0.02410
 36 Ir    0.00633   -0.07286   -0.03563
 37 Pt    0.01792   -0.02399   -0.08326
 38 Ag    0.02147   -0.02988   -0.00717
 39 Pd   -0.00673   -0.02871   -0.05453
 40 Pd    0.16693    0.11239   -0.15322
 41 Ir   -0.00857   -0.06405   -0.02675
 42 Ag   -0.06827    0.00908   -0.02642
 43 Ir   -0.05228    0.01837   -0.03277
 44 Ir    0.03958   -0.07376    0.01597
 45 O    -0.14386   -0.23499    0.36283
 46 H     0.08336    0.09820   -0.22833

System changes: positions 

Initializing position-dependent things.

Density initialized from wave functions
                                             
                                             
                                             
                                             
                                             
                                             
                      H                      
                    O                        
                 Ag      Ir    Ir            
            Pd      Pd                       
                   Ru     PIr    Ir          
        Ir    Pt    PAg    Pd                
                                             
        Ir     Pd    IAg    Ir     Pt        
                Ag                           
                       Ru     Pd             
           Pt     Ag    PPd    Ir            
                                             
            Pt     Pt    PPt    Ru           
       Ag     Ag     Ag                      
              Ru    Ir     Pt                
         Pd    Ir     Ru                     
                                             
                                             
                                             
                                             
                                             

Positions:
   0 Pd     0.000000    1.624086   10.000000    ( 0.0000,  0.0000,  0.0000)
   1 Ir     2.812999    1.624086   10.000000    ( 0.0000,  0.0000,  0.0000)
   2 Ru     5.625998    1.624086   10.000000    ( 0.0000,  0.0000,  0.0000)
   3 Ru     1.406500    4.060215   10.000000    ( 0.0000,  0.0000,  0.0000)
   4 Ir     4.219499    4.060215   10.000000    ( 0.0000,  0.0000,  0.0000)
   5 Pt     7.032498    4.060215   10.000000    ( 0.0000,  0.0000,  0.0000)
   6 Pd     2.812999    6.496343   10.000000    ( 0.0000,  0.0000,  0.0000)
   7 Pd     5.625998    6.496343   10.000000    ( 0.0000,  0.0000,  0.0000)
   8 Ru     8.438997    6.496343   10.000000    ( 0.0000,  0.0000,  0.0000)
   9 Ag     0.000000    0.000000   12.296804    ( 0.0000,  0.0000,  0.0000)
  10 Ag     2.812999    0.000000   12.296804    ( 0.0000,  0.0000,  0.0000)
  11 Ag     5.625998    0.000000   12.296804    ( 0.0000,  0.0000,  0.0000)
  12 Pt     1.406500    2.436129   12.296804    ( 0.0000,  0.0000,  0.0000)
  13 Pt     4.219499    2.436129   12.296804    ( 0.0000,  0.0000,  0.0000)
  14 Pt     7.032498    2.436129   12.296804    ( 0.0000,  0.0000,  0.0000)
  15 Ru     2.812999    4.872257   12.296804    ( 0.0000,  0.0000,  0.0000)
  16 Pt     5.625998    4.872257   12.296804    ( 0.0000,  0.0000,  0.0000)
  17 Ir     8.438997    4.872257   12.296804    ( 0.0000,  0.0000,  0.0000)
  18 Pt     1.328590    0.739329   14.653167    ( 0.0000,  0.0000,  0.0000)
  19 Ag     4.179820    0.786390   14.648627    ( 0.0000,  0.0000,  0.0000)
  20 Pd     6.998921    0.855207   14.624493    ( 0.0000,  0.0000,  0.0000)
  21 Ag     2.800963    3.196673   14.644735    ( 0.0000,  0.0000,  0.0000)
  22 Ru     5.655303    3.373515   14.470684    ( 0.0000,  0.0000,  0.0000)
  23 Pd     8.448066    3.202774   14.574315    ( 0.0000,  0.0000,  0.0000)
  24 Ir     4.204612    5.617730   14.564549    ( 0.0000,  0.0000,  0.0000)
  25 Ir     7.031180    5.572040   14.564557    ( 0.0000,  0.0000,  0.0000)
  26 Pt     9.860477    5.663051   14.598542    ( 0.0000,  0.0000,  0.0000)
  27 Ir    -0.071672    1.501719   16.935042    ( 0.0000,  0.0000,  0.0000)
  28 Pd     2.760328    1.593251   16.995572    ( 0.0000,  0.0000,  0.0000)
  29 Ag     5.522503    1.600600   16.928867    ( 0.0000,  0.0000,  0.0000)
  30 Pd     1.403794    4.027818   16.967505    ( 0.0000,  0.0000,  0.0000)
  31 Pd     4.190676    4.088632   16.903680    ( 0.0000,  0.0000,  0.0000)
  32 Pd     7.010009    3.969092   16.740626    ( 0.0000,  0.0000,  0.0000)
  33 Ru     2.844013    6.528854   16.759098    ( 0.0000,  0.0000,  0.0000)
  34 Pd     5.662830    6.451229   16.782356    ( 0.0000,  0.0000,  0.0000)
  35 Ir     8.553640    6.376518   16.929363    ( 0.0000,  0.0000,  0.0000)
  36 Ir     0.065523   -0.044522   18.977253    ( 0.0000,  0.0000,  0.0000)
  37 Pt     2.801140   -0.113113   19.120274    ( 0.0000,  0.0000,  0.0000)
  38 Ag     5.667041    0.005841   19.409097    ( 0.0000,  0.0000,  0.0000)
  39 Pd     1.339402    2.369986   19.269994    ( 0.0000,  0.0000,  0.0000)
  40 Pd     4.340939    2.544857   19.357763    ( 0.0000,  0.0000,  0.0000)
  41 Ir     7.181214    2.500503   19.011161    ( 0.0000,  0.0000,  0.0000)
  42 Ag     2.797189    4.896181   19.377678    ( 0.0000,  0.0000,  0.0000)
  43 Ir     5.696174    4.926212   19.029295    ( 0.0000,  0.0000,  0.0000)
  44 Ir     8.283453    4.837996   19.002872    ( 0.0000,  0.0000,  0.0000)
  45 O      4.317706    2.501298   21.379022    ( 0.0000,  0.0000,  0.0000)
  46 H      4.956555    3.162158   21.748023    ( 0.0000,  0.0000,  0.0000)

Unit cell:
           periodic     x           y           z      points  spacing
  1. axis:    yes    8.465341    0.000000    0.000000    35     0.2095
  2. axis:    yes    4.232670    7.331200    0.000000    35     0.2095
  3. axis:    no     0.000000    0.000000   29.187217   135     0.2162

  Lengths:   8.465341   8.465341  29.187217
  Angles:   90.000000  90.000000  60.000000

Effective grid spacing dv^(1/3) = 0.2221

                     log10-error:    total        iterations:
           time      wfs    density  energy       fermi  poisson
iter:   1  17:44:38  -2.95   +inf  -238.824923    3             
iter:   2  17:45:49  -2.76  -2.53  -246.362950    3             
iter:   3  17:47:01  -3.09  -1.72  -238.674902    3             
iter:   4  17:48:12  -4.11  -3.05  -238.662888    3             
iter:   5  17:49:24  -4.72  -3.06  -238.662623    3             
iter:   6  17:50:38  -5.19  -3.21  -238.653775    3             
iter:   7  17:52:07  -5.55  -3.44  -238.653435    2             
iter:   8  17:53:36  -5.60  -3.56  -238.653052    2             
iter:   9  17:55:06  -5.33  -3.52  -238.658320    2             
iter:  10  17:56:35  -5.54  -3.23  -238.653167    2             
iter:  11  17:58:04  -5.73  -3.44  -238.654554    2             
iter:  12  17:59:34  -5.83  -3.61  -238.652029    2             
iter:  13  18:01:02  -6.44  -3.71  -238.651994    2             
iter:  14  18:02:31  -6.68  -3.95  -238.652070    2             
iter:  15  18:04:00  -6.63  -3.96  -238.652527    2             
iter:  16  18:05:29  -7.00  -3.78  -238.652007    2             
iter:  17  18:06:59  -6.39  -4.09  -238.652535    2             
iter:  18  18:08:28  -6.72  -3.99  -238.651694    2             
iter:  19  18:09:57  -6.53  -4.10  -238.652247    2             
iter:  20  18:11:27  -7.24  -4.11  -238.652131    2             
iter:  21  18:12:56  -7.66  -4.32  -238.652058    2             

Converged after 21 iterations.

Dipole moment: (25.613845, 17.597865, -0.186471) |e|*Ang

Energy contributions relative to reference atoms: (reference = -12877860.274276)

Kinetic:       -226.244142
Potential:     +101.096900
External:        +0.000000
XC:            -105.513540
Entropy (-ST):   -2.242680
Local:           -6.869935
--------------------------
Free energy:   -239.773398
Extrapolated:  -238.652058

Fermi level: 0.97562

Showing only first 2 kpts
 Kpt  Band  Eigenvalues  Occupancy
  0   360      0.97415    0.12592
  0   361      0.99031    0.11583
  0   362      1.01301    0.10190
  0   363      1.03628    0.08821

  1   360      0.88011    0.18053
  1   361      0.90940    0.16494
  1   362      0.92993    0.15307
  1   363      0.97000    0.12851



Forces in eV/Ang:
  0 Pd   -0.12424    0.32605   -0.34556
  1 Ir    0.94866    0.68761    0.60792
  2 Ru   -1.07621    0.28646    0.68215
  3 Ru    0.41784    0.29258    1.59762
  4 Ir   -0.56518   -0.78650    1.17554
  5 Pt    0.15797    0.15993    0.04349
  6 Pd   -0.49782   -0.41469   -0.24666
  7 Pd    0.38521   -0.26485   -0.57499
  8 Ru    0.34579   -0.15216    0.54975
  9 Ag   -0.25616   -0.09725    0.02598
 10 Ag   -0.01981   -0.11111    0.05596
 11 Ag    0.07868   -0.16723   -0.13138
 12 Pt    0.09994    0.77155   -0.53571
 13 Pt    0.11741    0.55886   -0.70438
 14 Pt   -0.11763    0.20213   -0.16484
 15 Ru   -0.40655   -0.75037   -0.98114
 16 Pt   -0.40226    0.14606   -0.12081
 17 Ir    0.90650   -0.10110   -1.02175
 18 Pt    0.00762    0.01746   -0.01289
 19 Ag    0.00110   -0.01678    0.02089
 20 Pd   -0.02681   -0.02043    0.02962
 21 Ag    0.00553   -0.01042    0.00971
 22 Ru   -0.01010   -0.00031    0.00493
 23 Pd   -0.00966   -0.01837   -0.00091
 24 Ir   -0.01614   -0.03441    0.01176
 25 Ir    0.00455   -0.02475   -0.01717
 26 Pt   -0.00374   -0.02272    0.00023
 27 Ir    0.00275   -0.03266   -0.01768
 28 Pd   -0.00243    0.00094    0.00894
 29 Ag    0.01523   -0.02453    0.04851
 30 Pd    0.01376   -0.02291   -0.02620
 31 Pd    0.00022   -0.01970    0.04077
 32 Pd    0.00652   -0.00779    0.01672
 33 Ru   -0.00404   -0.01941    0.00712
 34 Pd   -0.01082   -0.01977   -0.05301
 35 Ir    0.02986   -0.02714    0.01003
 36 Ir    0.01168   -0.05745   -0.03935
 37 Pt    0.03898   -0.03175   -0.03442
 38 Ag   -0.00772    0.00459    0.01485
 39 Pd    0.01795   -0.02429   -0.02449
 40 Pd    0.06763    0.02258    0.11276
 41 Ir    0.01689   -0.03820   -0.00673
 42 Ag   -0.05103   -0.03249   -0.01120
 43 Ir   -0.00140    0.02772   -0.00779
 44 Ir   -0.02447   -0.06897   -0.00377
 45 O     0.12290    0.02494    0.09585
 46 H    -0.06758   -0.05104   -0.15350

System changes: positions 

Initializing position-dependent things.

Density initialized from wave functions
                                             
                                             
                                             
                                             
                                             
                                             
                      H                      
                    O                        
                 Ag      Ir    Ir            
            Pd      Pd                       
                   Ru     PIr    Ir          
        Ir    Pt    PAg    Pd                
                                             
        Ir     Pd    IAg    Ir     Pt        
                Ag                           
                       Ru     Pd             
           Pt     Ag    PPd    Ir            
                                             
            Pt     Pt    PPt    Ru           
       Ag     Ag     Ag                      
              Ru    Ir     Pt                
         Pd    Ir     Ru                     
                                             
                                             
                                             
                                             
                                             

Positions:
   0 Pd     0.000000    1.624086   10.000000    ( 0.0000,  0.0000,  0.0000)
   1 Ir     2.812999    1.624086   10.000000    ( 0.0000,  0.0000,  0.0000)
   2 Ru     5.625998    1.624086   10.000000    ( 0.0000,  0.0000,  0.0000)
   3 Ru     1.406500    4.060215   10.000000    ( 0.0000,  0.0000,  0.0000)
   4 Ir     4.219499    4.060215   10.000000    ( 0.0000,  0.0000,  0.0000)
   5 Pt     7.032498    4.060215   10.000000    ( 0.0000,  0.0000,  0.0000)
   6 Pd     2.812999    6.496343   10.000000    ( 0.0000,  0.0000,  0.0000)
   7 Pd     5.625998    6.496343   10.000000    ( 0.0000,  0.0000,  0.0000)
   8 Ru     8.438997    6.496343   10.000000    ( 0.0000,  0.0000,  0.0000)
   9 Ag     0.000000    0.000000   12.296804    ( 0.0000,  0.0000,  0.0000)
  10 Ag     2.812999    0.000000   12.296804    ( 0.0000,  0.0000,  0.0000)
  11 Ag     5.625998    0.000000   12.296804    ( 0.0000,  0.0000,  0.0000)
  12 Pt     1.406500    2.436129   12.296804    ( 0.0000,  0.0000,  0.0000)
  13 Pt     4.219499    2.436129   12.296804    ( 0.0000,  0.0000,  0.0000)
  14 Pt     7.032498    2.436129   12.296804    ( 0.0000,  0.0000,  0.0000)
  15 Ru     2.812999    4.872257   12.296804    ( 0.0000,  0.0000,  0.0000)
  16 Pt     5.625998    4.872257   12.296804    ( 0.0000,  0.0000,  0.0000)
  17 Ir     8.438997    4.872257   12.296804    ( 0.0000,  0.0000,  0.0000)
  18 Pt     1.329149    0.742541   14.649714    ( 0.0000,  0.0000,  0.0000)
  19 Ag     4.179601    0.781596   14.652716    ( 0.0000,  0.0000,  0.0000)
  20 Pd     6.993610    0.850116   14.630323    ( 0.0000,  0.0000,  0.0000)
  21 Ag     2.801746    3.194573   14.646201    ( 0.0000,  0.0000,  0.0000)
  22 Ru     5.651885    3.372476   14.473678    ( 0.0000,  0.0000,  0.0000)
  23 Pd     8.445145    3.198111   14.575610    ( 0.0000,  0.0000,  0.0000)
  24 Ir     4.201829    5.612980   14.565803    ( 0.0000,  0.0000,  0.0000)
  25 Ir     7.031986    5.566506   14.562448    ( 0.0000,  0.0000,  0.0000)
  26 Pt     9.860508    5.658210   14.599022    ( 0.0000,  0.0000,  0.0000)
  27 Ir    -0.069547    1.494289   16.930277    ( 0.0000,  0.0000,  0.0000)
  28 Pd     2.764570    1.594337   16.999968    ( 0.0000,  0.0000,  0.0000)
  29 Ag     5.521157    1.599254   16.942532    ( 0.0000,  0.0000,  0.0000)
  30 Pd     1.407220    4.022699   16.961585    ( 0.0000,  0.0000,  0.0000)
  31 Pd     4.192111    4.079826   16.914569    ( 0.0000,  0.0000,  0.0000)
  32 Pd     7.011074    3.967166   16.744025    ( 0.0000,  0.0000,  0.0000)
  33 Ru     2.843519    6.522546   16.761917    ( 0.0000,  0.0000,  0.0000)
  34 Pd     5.660347    6.447959   16.769620    ( 0.0000,  0.0000,  0.0000)
  35 Ir     8.559296    6.372439   16.932864    ( 0.0000,  0.0000,  0.0000)
  36 Ir     0.068078   -0.058047   18.969469    ( 0.0000,  0.0000,  0.0000)
  37 Pt     2.807650   -0.120614   19.109227    ( 0.0000,  0.0000,  0.0000)
  38 Ag     5.667423    0.004433   19.411544    ( 0.0000,  0.0000,  0.0000)
  39 Pd     1.340668    2.364165   19.263095    ( 0.0000,  0.0000,  0.0000)
  40 Pd     4.361220    2.556149   19.384642    ( 0.0000,  0.0000,  0.0000)
  41 Ir     7.184490    2.490400   19.008068    ( 0.0000,  0.0000,  0.0000)
  42 Ag     2.784910    4.891905   19.374701    ( 0.0000,  0.0000,  0.0000)
  43 Ir     5.693276    4.932736   19.025184    ( 0.0000,  0.0000,  0.0000)
  44 Ir     8.282082    4.822907   19.003606    ( 0.0000,  0.0000,  0.0000)
  45 O      4.320213    2.482879   21.395644    ( 0.0000,  0.0000,  0.0000)
  46 H      4.958946    3.168041   21.714462    ( 0.0000,  0.0000,  0.0000)

Unit cell:
           periodic     x           y           z      points  spacing
  1. axis:    yes    8.465341    0.000000    0.000000    35     0.2095
  2. axis:    yes    4.232670    7.331200    0.000000    35     0.2095
  3. axis:    no     0.000000    0.000000   29.187217   135     0.2162

  Lengths:   8.465341   8.465341  29.187217
  Angles:   90.000000  90.000000  60.000000

Effective grid spacing dv^(1/3) = 0.2221

                     log10-error:    total        iterations:
           time      wfs    density  energy       fermi  poisson
iter:   1  18:15:05  -2.76   +inf  -239.660355    3             
iter:   2  18:16:34  -1.88  -2.14  -284.175247    34            
iter:   3  18:18:03  -2.28  -1.39  -239.527249    37            
iter:   4  18:19:32  -3.16  -2.23  -238.699546    3             
iter:   5  18:21:02  -4.25  -2.92  -238.677666    2             
iter:   6  18:22:31  -4.75  -3.09  -238.666884    2             
iter:   7  18:24:01  -5.22  -3.32  -238.665290    2             
iter:   8  18:25:29  -5.05  -3.40  -238.665677    2             
iter:   9  18:26:59  -5.17  -3.34  -238.665265    2             
iter:  10  18:28:25  -5.43  -3.34  -238.661726    2             
iter:  11  18:29:36  -5.89  -3.61  -238.663000    2             
iter:  12  18:30:47  -6.12  -3.68  -238.662083    2             
iter:  13  18:31:59  -6.33  -3.72  -238.662009    2             
iter:  14  18:33:10  -6.31  -3.86  -238.662283    2             
iter:  15  18:34:23  -6.67  -3.88  -238.662258    2             
iter:  16  18:35:37  -6.76  -3.86  -238.661973    2             
iter:  17  18:36:48  -6.64  -4.04  -238.662713    2             
iter:  18  18:38:01  -6.87  -3.86  -238.662032    2             
iter:  19  18:39:12  -7.06  -4.17  -238.662090    2             
iter:  20  18:40:24  -7.23  -4.16  -238.662094    2             
iter:  21  18:41:34  -7.23  -4.26  -238.662068    2             
iter:  22  18:42:47  -7.33  -4.25  -238.661926    2             
iter:  23  18:43:59  -7.79  -4.41  -238.662110    2             

Converged after 23 iterations.

Dipole moment: (25.997886, 18.270560, -0.203834) |e|*Ang

Energy contributions relative to reference atoms: (reference = -12877860.274276)

Kinetic:       -224.745318
Potential:      +99.790583
External:        +0.000000
XC:            -105.718987
Entropy (-ST):   -2.239187
Local:           -6.868795
--------------------------
Free energy:   -239.781703
Extrapolated:  -238.662110

Fermi level: 0.97038

Showing only first 2 kpts
 Kpt  Band  Eigenvalues  Occupancy
  0   360      0.96968    0.12544
  0   361      0.98555    0.11553
  0   362      1.00826    0.10160
  0   363      1.03048    0.08853

  1   360      0.87476    0.18059
  1   361      0.90323    0.16546
  1   362      0.92321    0.15395
  1   363      0.96683    0.12722



Forces in eV/Ang:
  0 Pd   -0.12416    0.32667   -0.34614
  1 Ir    0.94811    0.68827    0.60926
  2 Ru   -1.07756    0.28772    0.68571
  3 Ru    0.41844    0.28885    1.59301
  4 Ir   -0.56477   -0.78541    1.17933
  5 Pt    0.15998    0.16096    0.04491
  6 Pd   -0.49669   -0.41539   -0.24536
  7 Pd    0.38545   -0.26483   -0.57520
  8 Ru    0.34529   -0.15255    0.55278
  9 Ag   -0.26379   -0.10039    0.04029
 10 Ag   -0.01353   -0.11300    0.05912
 11 Ag    0.07735   -0.16581   -0.12028
 12 Pt    0.10067    0.77825   -0.53602
 13 Pt    0.11650    0.55111   -0.69257
 14 Pt   -0.12777    0.19526   -0.14783
 15 Ru   -0.40928   -0.76033   -0.98318
 16 Pt   -0.40993    0.12964   -0.10856
 17 Ir    0.90721   -0.11092   -1.02093
 18 Pt   -0.00144   -0.00644   -0.01058
 19 Ag    0.00336   -0.00400    0.02410
 20 Pd   -0.01062   -0.01028    0.00319
 21 Ag    0.01008   -0.02115   -0.00117
 22 Ru    0.00772   -0.00696   -0.00493
 23 Pd   -0.00869   -0.01516   -0.01437
 24 Ir   -0.00741   -0.02211   -0.01443
 25 Ir    0.01147   -0.01167   -0.01324
 26 Pt   -0.01559   -0.01717   -0.01594
 27 Ir   -0.00009   -0.00549   -0.00402
 28 Pd   -0.02052   -0.03127   -0.02351
 29 Ag    0.01971   -0.04600   -0.00851
 30 Pd   -0.01151   -0.02769   -0.01469
 31 Pd    0.00008   -0.00628    0.02181
 32 Pd    0.00295   -0.01392   -0.02056
 33 Ru   -0.01417   -0.02013   -0.01110
 34 Pd    0.02504   -0.01875   -0.03507
 35 Ir    0.01641   -0.04289    0.00767
 36 Ir    0.00818   -0.02746   -0.00036
 37 Pt    0.04003   -0.02530   -0.00904
 38 Ag   -0.00519   -0.00038    0.02334
 39 Pd    0.01887   -0.04148   -0.00490
 40 Pd    0.00536   -0.03851   -0.02089
 41 Ir    0.02748   -0.04783    0.02603
 42 Ag   -0.02723   -0.04657   -0.00351
 43 Ir   -0.01278    0.00784    0.04025
 44 Ir   -0.00944   -0.01304   -0.00918
 45 O     0.15096    0.10186    0.05277
 46 H    -0.06245   -0.04401    0.04327

System changes: positions 

Initializing position-dependent things.

Density initialized from wave functions
                                             
                                             
                                             
                                             
                                             
                                             
                      H                      
                    O                        
                 Ag      Ir    Ir            
            Pd      Pd                       
                   Ru     PIr    Ir          
        Ir    Pt    PAg    Pd                
                                             
        Ir     Pd    IAg    Ir     Pt        
                Ag                           
                       Ru     Pd             
           Pt     Ag    PPd    Ir            
                                             
            Pt     Pt    PPt    Ru           
       Ag     Ag     Ag                      
              Ru    Ir     Pt                
         Pd    Ir     Ru                     
                                             
                                             
                                             
                                             
                                             

Positions:
   0 Pd     0.000000    1.624086   10.000000    ( 0.0000,  0.0000,  0.0000)
   1 Ir     2.812999    1.624086   10.000000    ( 0.0000,  0.0000,  0.0000)
   2 Ru     5.625998    1.624086   10.000000    ( 0.0000,  0.0000,  0.0000)
   3 Ru     1.406500    4.060215   10.000000    ( 0.0000,  0.0000,  0.0000)
   4 Ir     4.219499    4.060215   10.000000    ( 0.0000,  0.0000,  0.0000)
   5 Pt     7.032498    4.060215   10.000000    ( 0.0000,  0.0000,  0.0000)
   6 Pd     2.812999    6.496343   10.000000    ( 0.0000,  0.0000,  0.0000)
   7 Pd     5.625998    6.496343   10.000000    ( 0.0000,  0.0000,  0.0000)
   8 Ru     8.438997    6.496343   10.000000    ( 0.0000,  0.0000,  0.0000)
   9 Ag     0.000000    0.000000   12.296804    ( 0.0000,  0.0000,  0.0000)
  10 Ag     2.812999    0.000000   12.296804    ( 0.0000,  0.0000,  0.0000)
  11 Ag     5.625998    0.000000   12.296804    ( 0.0000,  0.0000,  0.0000)
  12 Pt     1.406500    2.436129   12.296804    ( 0.0000,  0.0000,  0.0000)
  13 Pt     4.219499    2.436129   12.296804    ( 0.0000,  0.0000,  0.0000)
  14 Pt     7.032498    2.436129   12.296804    ( 0.0000,  0.0000,  0.0000)
  15 Ru     2.812999    4.872257   12.296804    ( 0.0000,  0.0000,  0.0000)
[...]
  26 Pt     9.857359    5.652993   14.594035    ( 0.0000,  0.0000,  0.0000)
  27 Ir    -0.069038    1.487967   16.929148    ( 0.0000,  0.0000,  0.0000)
  28 Pd     2.760790    1.584736   16.994043    ( 0.0000,  0.0000,  0.0000)
  29 Ag     5.526070    1.587693   16.944794    ( 0.0000,  0.0000,  0.0000)
  30 Pd     1.404299    4.011719   16.956664    ( 0.0000,  0.0000,  0.0000)
  31 Pd     4.194061    4.076349   16.920834    ( 0.0000,  0.0000,  0.0000)
  32 Pd     7.008571    3.960281   16.744947    ( 0.0000,  0.0000,  0.0000)
  33 Ru     2.842665    6.515382   16.759224    ( 0.0000,  0.0000,  0.0000)
  34 Pd     5.665960    6.441185   16.762339    ( 0.0000,  0.0000,  0.0000)
  35 Ir     8.564525    6.360482   16.933830    ( 0.0000,  0.0000,  0.0000)
  36 Ir     0.071918   -0.068780   18.965529    ( 0.0000,  0.0000,  0.0000)
  37 Pt     2.817942   -0.126985   19.104980    ( 0.0000,  0.0000,  0.0000)
  38 Ag     5.668115    0.001504   19.421022    ( 0.0000,  0.0000,  0.0000)
  39 Pd     1.347638    2.349692   19.262088    ( 0.0000,  0.0000,  0.0000)
  40 Pd     4.366442    2.548160   19.377908    ( 0.0000,  0.0000,  0.0000)
  41 Ir     7.192215    2.476053   19.011766    ( 0.0000,  0.0000,  0.0000)
  42 Ag     2.774104    4.876799   19.373503    ( 0.0000,  0.0000,  0.0000)
  43 Ir     5.691004    4.932502   19.032268    ( 0.0000,  0.0000,  0.0000)
  44 Ir     8.276481    4.809628   19.002967    ( 0.0000,  0.0000,  0.0000)
  45 O      4.345520    2.488185   21.394937    ( 0.0000,  0.0000,  0.0000)
  46 H      4.961207    3.178975   21.729223    ( 0.0000,  0.0000,  0.0000)

Unit cell:
           periodic     x           y           z      points  spacing
  1. axis:    yes    8.465341    0.000000    0.000000    35     0.2095
  2. axis:    yes    4.232670    7.331200    0.000000    35     0.2095
  3. axis:    no     0.000000    0.000000   29.187217   135     0.2162

  Lengths:   8.465341   8.465341  29.187217
  Angles:   90.000000  90.000000  60.000000

Effective grid spacing dv^(1/3) = 0.2221

                     log10-error:    total        iterations:
           time      wfs    density  energy       fermi  poisson
iter:   1  19:06:32  -3.24   +inf  -239.292317    3             
iter:   2  19:07:45  -2.09  -2.24  -269.539049    35            
iter:   3  19:08:56  -2.44  -1.46  -239.184695    4             
iter:   4  19:10:09  -3.33  -2.38  -238.684851    3             
iter:   5  19:11:21  -4.44  -3.23  -238.675429    2             
iter:   6  19:12:33  -5.06  -3.46  -238.672867    2             
iter:   7  19:13:48  -5.61  -3.51  -238.672112    2             
iter:   8  19:14:59  -5.76  -3.67  -238.671747    2             
iter:   9  19:16:12  -6.11  -3.70  -238.671116    2             
iter:  10  19:17:25  -5.95  -3.67  -238.672066    2             
iter:  11  19:18:40  -6.26  -3.65  -238.671509    2             
iter:  12  19:19:52  -6.30  -3.83  -238.670649    2             
iter:  13  19:21:04  -6.52  -3.93  -238.671148    2             
iter:  14  19:22:14  -6.95  -3.96  -238.670881    2             
iter:  15  19:23:22  -6.70  -4.01  -238.670805    2             
iter:  16  19:24:31  -6.97  -3.84  -238.670724    2             
iter:  17  19:25:41  -7.16  -4.28  -238.670600    2             
iter:  18  19:26:52  -6.93  -4.41  -238.670509    2             
iter:  19  19:28:03  -7.44  -4.35  -238.670802    2             

Converged after 19 iterations.

Dipole moment: (25.464649, 18.544506, -0.202652) |e|*Ang

Energy contributions relative to reference atoms: (reference = -12877860.274276)

Kinetic:       -224.256826
Potential:      +99.395663
External:        +0.000000
XC:            -105.818067
Entropy (-ST):   -2.236718
Local:           -6.873213
--------------------------
Free energy:   -239.789161
Extrapolated:  -238.670802

Fermi level: 0.97087

Showing only first 2 kpts
 Kpt  Band  Eigenvalues  Occupancy
  0   360      0.97151    0.12460
  0   361      0.98717    0.11483
  0   362      1.00873    0.10162
  0   363      1.03230    0.08777

  1   360      0.87444    0.18100
  1   361      0.90293    0.16590
  1   362      0.92363    0.15399
  1   363      0.96818    0.12668



Forces in eV/Ang:
  0 Pd   -0.12369    0.32907   -0.34498
  1 Ir    0.95035    0.69086    0.61099
  2 Ru   -1.08031    0.28882    0.69145
  3 Ru    0.41958    0.28580    1.58933
  4 Ir   -0.56683   -0.78762    1.18106
  5 Pt    0.16227    0.16157    0.04370
  6 Pd   -0.49847   -0.41730   -0.24256
  7 Pd    0.38606   -0.26566   -0.57484
  8 Ru    0.34544   -0.15361    0.55631
  9 Ag   -0.26962   -0.10739    0.03319
 10 Ag   -0.00491   -0.10777    0.06200
 11 Ag    0.07079   -0.15846   -0.11726
 12 Pt    0.10736    0.77308   -0.54527
 13 Pt    0.11814    0.53564   -0.68814
 14 Pt   -0.13762    0.18277   -0.15777
 15 Ru   -0.40439   -0.76892   -0.98963
 16 Pt   -0.41598    0.11811   -0.11518
 17 Ir    0.90751   -0.11700   -1.04278
 18 Pt   -0.00657   -0.00976    0.01289
 19 Ag    0.00328   -0.01385   -0.02019
 20 Pd    0.01269   -0.00554   -0.00986
 21 Ag   -0.00883    0.00292    0.00538
 22 Ru    0.00560    0.00181   -0.00119
 23 Pd    0.00048    0.00323    0.02174
 24 Ir    0.00418   -0.00676    0.00560
 25 Ir   -0.00113   -0.03464    0.01825
 26 Pt    0.00770   -0.01569    0.01399
 27 Ir    0.01333   -0.01052   -0.02196
 28 Pd    0.02358   -0.00928   -0.00677
 29 Ag   -0.01719   -0.01244    0.00174
 30 Pd   -0.00616   -0.02328   -0.00209
 31 Pd   -0.01887   -0.01843   -0.02585
 32 Pd    0.00679   -0.01914   -0.02865
 33 Ru   -0.00020   -0.03079    0.00634
 34 Pd    0.00019   -0.02122    0.02825
 35 Ir    0.00832   -0.01260    0.01731
 36 Ir   -0.00891   -0.04812    0.02290
 37 Pt   -0.00023   -0.03066    0.00377
 38 Ag    0.02397   -0.04238    0.01643
 39 Pd    0.00683   -0.01833    0.01687
 40 Pd    0.00609    0.00284    0.04355
 41 Ir   -0.00375   -0.04869    0.00422
 42 Ag    0.00345    0.00042   -0.00051
 43 Ir   -0.03168    0.01226   -0.01585
 44 Ir    0.04351    0.01095    0.00944
 45 O    -0.10103   -0.14104   -0.12278
 46 H     0.10187    0.14044    0.05888

System changes: positions 

Initializing position-dependent things.

Density initialized from wave functions
                                             
                                             
                                             
                                             
                                             
                                             
                      H                      
                    O                        
                 Ag      Ir    Ir            
            Pd      Pd                       
                   Ru     PIr    Ir          
        Ir    Pt    PAg    Pd                
                                             
        Ir     Pd    IAg    Ir     Pt        
                Ag                           
                       Ru     Pd             
           Pt     Ag    PPd    Ir            
                                             
            Pt     Pt    PPt    Ru           
       Ag     Ag     Ag                      
              Ru    Ir     Pt                
         Pd    Ir     Ru                     
                                             
                                             
                                             
                                             
                                             

Positions:
   0 Pd     0.000000    1.624086   10.000000    ( 0.0000,  0.0000,  0.0000)
   1 Ir     2.812999    1.624086   10.000000    ( 0.0000,  0.0000,  0.0000)
   2 Ru     5.625998    1.624086   10.000000    ( 0.0000,  0.0000,  0.0000)
   3 Ru     1.406500    4.060215   10.000000    ( 0.0000,  0.0000,  0.0000)
   4 Ir     4.219499    4.060215   10.000000    ( 0.0000,  0.0000,  0.0000)
   5 Pt     7.032498    4.060215   10.000000    ( 0.0000,  0.0000,  0.0000)
   6 Pd     2.812999    6.496343   10.000000    ( 0.0000,  0.0000,  0.0000)
   7 Pd     5.625998    6.496343   10.000000    ( 0.0000,  0.0000,  0.0000)
   8 Ru     8.438997    6.496343   10.000000    ( 0.0000,  0.0000,  0.0000)
   9 Ag     0.000000    0.000000   12.296804    ( 0.0000,  0.0000,  0.0000)
  10 Ag     2.812999    0.000000   12.296804    ( 0.0000,  0.0000,  0.0000)
  11 Ag     5.625998    0.000000   12.296804    ( 0.0000,  0.0000,  0.0000)
  12 Pt     1.406500    2.436129   12.296804    ( 0.0000,  0.0000,  0.0000)
  13 Pt     4.219499    2.436129   12.296804    ( 0.0000,  0.0000,  0.0000)
  14 Pt     7.032498    2.436129   12.296804    ( 0.0000,  0.0000,  0.0000)
  15 Ru     2.812999    4.872257   12.296804    ( 0.0000,  0.0000,  0.0000)
  16 Pt     5.625998    4.872257   12.296804    ( 0.0000,  0.0000,  0.0000)
  17 Ir     8.438997    4.872257   12.296804    ( 0.0000,  0.0000,  0.0000)
  18 Pt     1.327091    0.734792   14.645005    ( 0.0000,  0.0000,  0.0000)
  19 Ag     4.180592    0.774465   14.660487    ( 0.0000,  0.0000,  0.0000)
  20 Pd     6.991886    0.842508   14.629032    ( 0.0000,  0.0000,  0.0000)
  21 Ag     2.805320    3.185255   14.647617    ( 0.0000,  0.0000,  0.0000)
  22 Ru     5.653145    3.367976   14.473383    ( 0.0000,  0.0000,  0.0000)
  23 Pd     8.443398    3.189760   14.571931    ( 0.0000,  0.0000,  0.0000)
  24 Ir     4.198463    5.603336   14.563361    ( 0.0000,  0.0000,  0.0000)
  25 Ir     7.034499    5.558351   14.557917    ( 0.0000,  0.0000,  0.0000)
  26 Pt     9.856992    5.649039   14.592991    ( 0.0000,  0.0000,  0.0000)
  27 Ir    -0.067436    1.482931   16.926700    ( 0.0000,  0.0000,  0.0000)
  28 Pd     2.761376    1.578651   16.990174    ( 0.0000,  0.0000,  0.0000)
  29 Ag     5.526993    1.580987   16.946218    ( 0.0000,  0.0000,  0.0000)
  30 Pd     1.401785    4.003798   16.954319    ( 0.0000,  0.0000,  0.0000)
  31 Pd     4.193427    4.073287   16.920171    ( 0.0000,  0.0000,  0.0000)
  32 Pd     7.007540    3.954643   16.744011    ( 0.0000,  0.0000,  0.0000)
  33 Ru     2.843058    6.508839   16.758707    ( 0.0000,  0.0000,  0.0000)
  34 Pd     5.668426    6.435554   16.763426    ( 0.0000,  0.0000,  0.0000)
  35 Ir     8.567611    6.353312   16.935927    ( 0.0000,  0.0000,  0.0000)
  36 Ir     0.072961   -0.079264   18.965132    ( 0.0000,  0.0000,  0.0000)
  37 Pt     2.822139   -0.133357   19.103015    ( 0.0000,  0.0000,  0.0000)
  38 Ag     5.671589   -0.005054   19.427666    ( 0.0000,  0.0000,  0.0000)
  39 Pd     1.351688    2.340669   19.263542    ( 0.0000,  0.0000,  0.0000)
  40 Pd     4.369630    2.545110   19.374909    ( 0.0000,  0.0000,  0.0000)
  41 Ir     7.195202    2.464385   19.013198    ( 0.0000,  0.0000,  0.0000)
  42 Ag     2.769378    4.869564   19.372958    ( 0.0000,  0.0000,  0.0000)
  43 Ir     5.687202    4.932914   19.033389    ( 0.0000,  0.0000,  0.0000)
  44 Ir     8.277490    4.803050   19.003605    ( 0.0000,  0.0000,  0.0000)
  45 O      4.358857    2.486874   21.389989    ( 0.0000,  0.0000,  0.0000)
  46 H      4.961800    3.188356   21.734212    ( 0.0000,  0.0000,  0.0000)

Unit cell:
           periodic     x           y           z      points  spacing
  1. axis:    yes    8.465341    0.000000    0.000000    35     0.2095
  2. axis:    yes    4.232670    7.331200    0.000000    35     0.2095
  3. axis:    no     0.000000    0.000000   29.187217   135     0.2162

  Lengths:   8.465341   8.465341  29.187217
  Angles:   90.000000  90.000000  60.000000

Effective grid spacing dv^(1/3) = 0.2221

                     log10-error:    total        iterations:
           time      wfs    density  energy       fermi  poisson
iter:   1  19:29:44  -3.33   +inf  -238.706859    3             
iter:   2  19:30:54  -3.60  -2.87  -239.342163    3             
iter:   3  19:32:05  -3.78  -2.24  -238.840001    3             
iter:   4  19:33:18  -4.50  -2.55  -238.675546    3             
iter:   5  19:34:31  -5.50  -3.55  -238.675426    2             
iter:   6  19:35:43  -5.74  -3.65  -238.674900    2             
iter:   7  19:36:56  -5.63  -3.70  -238.674988    2             
iter:   8  19:38:10  -5.74  -3.84  -238.674685    2             
iter:   9  19:39:22  -6.17  -4.02  -238.674731    2             
iter:  10  19:40:34  -6.58  -3.89  -238.674357    2             
iter:  11  19:41:46  -6.95  -3.97  -238.674621    2             
iter:  12  19:42:58  -6.69  -4.12  -238.674147    2             
iter:  13  19:44:13  -6.96  -4.24  -238.674422    2             
iter:  14  19:45:24  -7.23  -4.39  -238.674285    2             
iter:  15  19:46:38  -7.71  -4.51  -238.674301    2             

Converged after 15 iterations.

Dipole moment: (25.339388, 19.074993, -0.197416) |e|*Ang

Energy contributions relative to reference atoms: (reference = -12877860.274276)

Kinetic:       -224.499189
Potential:      +99.605110
External:        +0.000000
XC:            -105.781257
Entropy (-ST):   -2.235718
Local:           -6.881107
--------------------------
Free energy:   -239.792160
Extrapolated:  -238.674301

Fermi level: 0.97255

Showing only first 2 kpts
 Kpt  Band  Eigenvalues  Occupancy
  0   360      0.97323    0.12457
  0   361      0.99032    0.11392
  0   362      1.01043    0.10161
  0   363      1.03426    0.08761

  1   360      0.87607    0.18102
  1   361      0.90450    0.16596
  1   362      0.92562    0.15381
  1   363      0.97033    0.12639



Forces in eV/Ang:
  0 Pd   -0.12439    0.32750   -0.34706
  1 Ir    0.94815    0.69016    0.60794
  2 Ru   -1.07731    0.28995    0.68483
  3 Ru    0.41857    0.28443    1.58543
  4 Ir   -0.56440   -0.78635    1.17803
  5 Pt    0.16178    0.16089    0.04195
  6 Pd   -0.49714   -0.41561   -0.24389
  7 Pd    0.38509   -0.26458   -0.57620
  8 Ru    0.34521   -0.15457    0.55231
  9 Ag   -0.27034   -0.11046    0.02749
 10 Ag   -0.00476   -0.11191    0.06375
 11 Ag    0.07012   -0.16073   -0.12078
 12 Pt    0.10751    0.76926   -0.54657
 13 Pt    0.11772    0.53380   -0.68996
 14 Pt   -0.13600    0.17856   -0.16465
 15 Ru   -0.40307   -0.77405   -0.99007
 16 Pt   -0.41674    0.11550   -0.12038
 17 Ir    0.90704   -0.12200   -1.04641
 18 Pt    0.00826   -0.01585    0.01996
 19 Ag    0.00218   -0.01844   -0.02631
 20 Pd    0.00349   -0.01021    0.00070
 21 Ag   -0.01166   -0.00500   -0.01145
 22 Ru   -0.00781   -0.01725   -0.01058
 23 Pd    0.01022   -0.01003    0.00321
 24 Ir    0.00706    0.00731    0.00211
 25 Ir    0.00502   -0.00096    0.01027
 26 Pt    0.00682   -0.00664    0.01399
 27 Ir    0.00283   -0.02790    0.03372
 28 Pd    0.02257   -0.00663    0.02659
 29 Ag   -0.01299   -0.01118    0.00483
 30 Pd    0.00448   -0.03010    0.02125
 31 Pd   -0.01950   -0.03086   -0.01477
 32 Pd    0.01165   -0.02636    0.03319
 33 Ru    0.00297   -0.00984    0.01010
 34 Pd   -0.00546   -0.00574   -0.00929
 35 Ir    0.00523   -0.00007    0.01065
 36 Ir   -0.01970    0.00646    0.00524
 37 Pt    0.01009   -0.00498    0.01602
 38 Ag    0.01409   -0.03343    0.01094
 39 Pd   -0.00581   -0.01974    0.00290
 40 Pd    0.01643    0.01429    0.03064
 41 Ir    0.02042   -0.00405   -0.01260
 42 Ag    0.01205   -0.01159    0.00569
 43 Ir    0.00480   -0.03811   -0.00450
 44 Ir   -0.00575   -0.03529    0.01657
 45 O    -0.03497   -0.05539    0.01618
 46 H     0.01689    0.04804   -0.02374

Timing:                                      incl.     excl.
-------------------------------------------------------------------
Density initialized from wave functions:    36.796    36.795   0.2% |
 Symmetrize density:                         0.001     0.001   0.0% |
Forces:                                    177.159   177.159   0.9% |
Hamiltonian:                                30.166     0.096   0.0% |
 Atomic:                                     6.023     2.579   0.0% |
  XC Correction:                             3.445     3.445   0.0% |
 Calculate atomic Hamiltonians:             10.442    10.442   0.1% |
 Communicate:                                4.101     4.101   0.0% |
 Initialize Hamiltonian:                     0.002     0.002   0.0% |
 Poisson:                                    0.054     0.054   0.0% |
 XC 3D grid:                                 9.448     9.448   0.0% |
LCAO initialization:                        52.473     4.900   0.0% |
 LCAO eigensolver:                           6.523     0.003   0.0% |
  Calculate projections:                     0.053     0.053   0.0% |
  DenseAtomicCorrection:                     0.127     0.127   0.0% |
  Distribute overlap matrix:                 0.026     0.026   0.0% |
  Orbital Layouts:                           0.418     0.418   0.0% |
  Potential matrix:                          5.817     5.817   0.0% |
  Sum over cells:                            0.079     0.079   0.0% |
 LCAO to grid:                              38.881    38.881   0.2% |
 Set positions (LCAO WFS):                   2.169     0.611   0.0% |
  Basic WFS set positions:                   0.003     0.003   0.0% |
  Basis functions set positions:             0.001     0.001   0.0% |
  P tci:                                     0.700     0.700   0.0% |
  ST tci:                                    0.634     0.634   0.0% |
  mktci:                                     0.220     0.220   0.0% |
PWDescriptor:                                0.041     0.041   0.0% |
Redistribute:                                2.638     2.638   0.0% |
SCF-cycle:                               19717.217  1678.940   8.3% |--|
 Davidson:                               16320.881  3594.925  17.8% |------|
  Apply H:                                3028.956  2961.987  14.7% |-----|
   HMM T:                                   66.969    66.969   0.3% |
  Subspace diag:                          2299.319     0.084   0.0% |
   calc_h_matrix:                         1399.632   428.767   2.1% ||
    Apply H:                               970.865   948.384   4.7% |-|
     HMM T:                                 22.481    22.481   0.1% |
   diagonalize:                             89.707    89.707   0.4% |
   rotate_psi:                             809.895   809.895   4.0% |-|
  calc. matrices:                         5093.097  3170.248  15.7% |-----|
   Apply H:                               1922.849  1879.412   9.3% |---|
    HMM T:                                  43.436    43.436   0.2% |
  diagonalize:                             719.656   719.656   3.6% ||
  rotate_psi:                             1584.927  1584.927   7.9% |--|
 Density:                                  878.966     0.015   0.0% |
  Atomic density matrices:                   4.395     4.395   0.0% |
  Mix:                                     301.784   301.784   1.5% ||
  Multipole moments:                         0.347     0.347   0.0% |
  Pseudo density:                          572.425   572.409   2.8% ||
   Symmetrize density:                       0.016     0.016   0.0% |
 Hamiltonian:                              779.643     2.547   0.0% |
  Atomic:                                  172.116    92.121   0.5% |
   XC Correction:                           79.995    79.995   0.4% |
  Calculate atomic Hamiltonians:           241.171   241.171   1.2% |
  Communicate:                             126.497   126.497   0.6% |
  Poisson:                                   1.223     1.223   0.0% |
  XC 3D grid:                              236.088   236.088   1.2% |
 Orthonormalize:                            58.788     0.005   0.0% |
  calc_s_matrix:                             8.569     8.569   0.0% |
  inverse-cholesky:                          1.701     1.701   0.0% |
  projections:                              32.847    32.847   0.2% |
  rotate_psi_s:                             15.666    15.666   0.1% |
Set symmetry:                                0.002     0.002   0.0% |
Other:                                     169.089   169.089   0.8% |
-------------------------------------------------------------------
Total:                                             20185.581 100.0%

Date: Thu Mar  3 19:46:57 2022
