
  ___ ___ ___ _ _ _  
 |   |   |_  | | | | 
 | | | | | . | | | | 
 |__ |  _|___|_____|  1.5.1
 |___|_|             

User:   clausen@node060.cluster
Date:   Thu Mar  3 14:10:22 2022
Arch:   x86_64
Pid:    83737
Python: 3.6.12
gpaw:   /software/kemi/gpaw/1.5.1/gpaw
_gpaw:  /software/kemi/gpaw/1.5.1/bin/gpaw-python
ase:    /software/kemi/ase/3.17.0/ase (version 3.17.0)
numpy:  /opt/rh/rh-python36/root/usr/lib64/python3.6/site-packages/numpy (version 1.13.1)
scipy:  /opt/rh/rh-python36/root/usr/lib64/python3.6/site-packages/scipy (version 0.19.1)
units:  Angstrom and eV
cores:  16

Input parameters:
  kpts: [4 4 1]
  mode: {ecut: 400.0,
         gammacentered: False,
         name: pw}
  xc: RPBE

System changes: positions, numbers, cell, pbc, initial_charges, initial_magmoms 

Initialize ...

Pd-setup:
  name: Palladium
  id: 6da19bfba079f22767af9506641940b9
  Z: 46
  valence: 16
  core: 30
  charge: 0.0
  file: /software/kemi/gpaw-setups/0.9.20000/Pd.RPBE.gz
  cutoffs: 1.19(comp), 2.38(filt), 2.28(core), lmax=2
  valence states:
                energy  radius
    5s(0.00)    -3.225   1.228
    4p(6.00)   -51.131   1.360
    5p(0.00)    -0.373   1.360
    4d(10.00)    -3.964   1.228
    *s          23.987   1.228
    *d          23.247   1.228

  Using partial waves for Pd as LCAO basis

Ir-setup:
  name: Iridium
  id: 73b603359d1d5397a85ae3c2440f9033
  Z: 77
  valence: 15
  core: 62
  charge: 0.0
  file: /software/kemi/gpaw-setups/0.9.20000/Ir.RPBE.gz
  cutoffs: 1.26(comp), 2.40(filt), 2.36(core), lmax=2
  valence states:
                energy  radius
    6s(2.00)    -6.219   1.296
    5p(6.00)   -54.684   1.328
    6p(0.00)    -1.215   1.328
    5d(7.00)    -7.118   1.286
    *s          20.992   1.296
    *d          20.093   1.286

  Using partial waves for Ir as LCAO basis

Ru-setup:
  name: Ruthenium
  id: 76477906e28f51dc1b29884d53556fe9
  Z: 44
  valence: 16
  core: 28
  charge: 0.0
  file: /software/kemi/gpaw-setups/0.9.20000/Ru.RPBE.gz
  cutoffs: 1.23(comp), 2.16(filt), 1.30(core), lmax=2
  valence states:
                energy  radius
    4s(2.00)   -76.255   1.281
    5s(1.00)    -4.126   1.281
    4p(6.00)   -46.371   1.286
    5p(0.00)    -0.913   1.286
    4d(7.00)    -5.146   1.254
    *d          22.066   1.254

  Using partial waves for Ru as LCAO basis

Pt-setup:
  name: Platinum
  id: f04f522592575c47ad794f6b4a415b4b
  Z: 78
  valence: 16
  core: 62
  charge: 0.0
  file: /software/kemi/gpaw-setups/0.9.20000/Pt.RPBE.gz
  cutoffs: 1.29(comp), 2.26(filt), 2.26(core), lmax=2
  valence states:
                energy  radius
    6s(1.00)    -5.516   1.307
    5p(6.00)   -55.971   1.371
    6p(0.00)    -0.856   1.371
    5d(9.00)    -6.087   1.307
    *s          21.695   1.307
    *d          21.125   1.307

  Using partial waves for Pt as LCAO basis

Ag-setup:
  name: Silver
  id: c05e55bab2c3858b3f9398f6d75cb77c
  Z: 47
  valence: 17
  core: 30
  charge: 0.0
  file: /software/kemi/gpaw-setups/0.9.20000/Ag.RPBE.gz
  cutoffs: 1.25(comp), 2.35(filt), 2.19(core), lmax=2
  valence states:
                energy  radius
    5s(1.00)    -4.277   1.286
    4p(6.00)   -58.523   1.328
    5p(0.00)    -0.755   1.328
    4d(10.00)    -7.386   1.180
    *s          22.934   1.286
    *d          19.826   1.180

  Using partial waves for Ag as LCAO basis

O-setup:
  name: Oxygen
  id: 08071ca1eed670e7821b24b7eb4d558c
  Z: 8
  valence: 6
  core: 2
  charge: 0.0
  file: /software/kemi/gpaw-setups/0.9.20000/O.RPBE.gz
  cutoffs: 0.67(comp), 1.17(filt), 0.83(core), lmax=2
  valence states:
                energy  radius
    2s(2.00)   -24.041   0.688
    2p(4.00)    -8.984   0.598
    *s           3.170   0.688
    *p          18.228   0.598
    *d           0.000   0.619

  Using partial waves for O as LCAO basis

H-setup:
  name: Hydrogen
  id: ea3f9156a1dc40d47a60fdce8f8bd75d
  Z: 1
  valence: 1
  core: 0
  charge: 0.0
  file: /software/kemi/gpaw-setups/0.9.20000/H.RPBE.gz
  cutoffs: 0.48(comp), 0.85(filt), 0.53(core), lmax=2
  valence states:
                energy  radius
    1s(1.00)    -6.572   0.476
    *s          20.639   0.476
    *p           0.000   0.476

  Using partial waves for H as LCAO basis

Reference energy: -12877860.274276

Spin-paired calculation

Occupation numbers:
  Fermi-Dirac: width=0.1000 eV

Convergence criteria:
  Maximum total energy change: 0.0005 eV / electron
  Maximum integral of absolute density change: 0.0001 electrons
  Maximum integral of absolute eigenstate change: 4e-08 eV^2
  Maximum number of iterations: 333

Symmetries present (total): 1

  ( 1  0  0)
  ( 0  1  0)
  ( 0  0  1)

16 k-points: 4 x 4 x 1 Monkhorst-Pack grid
8 k-points in the irreducible part of the Brillouin zone
       k-points in crystal coordinates                weights
   0:     0.12500000   -0.37500000    0.00000000          2/16
   1:     0.12500000   -0.12500000    0.00000000          2/16
   2:     0.12500000    0.12500000    0.00000000          2/16
   3:     0.12500000    0.37500000    0.00000000          2/16
   4:     0.37500000   -0.37500000    0.00000000          2/16
   5:     0.37500000   -0.12500000    0.00000000          2/16
   6:     0.37500000    0.12500000    0.00000000          2/16
   7:     0.37500000    0.37500000    0.00000000          2/16

Wave functions: Plane wave expansion
  Cutoff energy: 400.000 eV
  Number of coefficients (min, max): 32894, 32940
  Pulay-stress correction: 0.000000 eV/Ang^3 (de/decut=0.000000)
  Using FFTW library
  ScaLapack parameters: grid=1x1, blocksize=None
  Wavefunction extrapolation:
    Improved wavefunction reuse through dual PAW basis 

Eigensolver
   Davidson(niter=2, smin=None, normalize=True) 

Densities:
  Coarse grid: 35*35*135 grid
  Fine grid: 70*70*270 grid
  Total Charge: 0.000000 

Density mixing:
  Method: separate
  Backend: pulay
  Linear mixing parameter: 0.05
  Mixing with 5 old densities
  Damping of long wave oscillations: 50 

Hamiltonian:
  XC and Coulomb potentials evaluated on a 70*70*270 grid
  Using the RPBE Exchange-Correlation functional
 

XC parameters: RPBE with 2 nearest neighbor stencil

Memory estimate:
  Process memory now: 148.43 MiB
  Calculator: 554.76 MiB
    Density: 54.46 MiB
      Arrays: 16.41 MiB
      Localized functions: 31.69 MiB
      Mixer: 6.36 MiB
    Hamiltonian: 11.75 MiB
      Arrays: 10.73 MiB
      XC: 0.00 MiB
      Poisson: 0.00 MiB
      vbar: 1.03 MiB
    Wavefunctions: 488.54 MiB
      Arrays psit_nG: 220.65 MiB
      Eigensolver: 252.59 MiB
      Projections: 2.77 MiB
      Projectors: 5.91 MiB
      PW-descriptor: 6.62 MiB

Total number of cores used: 16
Parallelization over k-points: 8
Domain decomposition: 1 x 1 x 2

Number of atoms: 47
Number of atomic orbitals: 551
Number of bands in calculation: 439
Bands to converge: occupied states only
Number of valence electrons: 724

... initialized

Initializing position-dependent things.

Density initialized from atomic densities
Creating initial wave functions:
  439 bands from LCAO basis set

                                             
                                             
                                             
                                             
                                             
                                             
              H                              
            O                                
                  Ag     Ir    Ir            
            Pd      Pd                       
                   Ru     PIr    Ir          
        Ir    Pt    PAg                      
                           Pd                
        Ir     Pd    IAg    Ir     Pt        
                                             
                Ag     Ru     Pd             
           Pt     Ag    PPd    Ir            
                                             
            Pt     Pt    PPt    Ru           
       Ag     Ag     Ag                      
              Ru    Ir     Pt                
         Pd    Ir     Ru                     
                                             
                                             
                                             
                                             
                                             

Positions:
   0 Pd     0.000000    1.624086   10.000000    ( 0.0000,  0.0000,  0.0000)
   1 Ir     2.812999    1.624086   10.000000    ( 0.0000,  0.0000,  0.0000)
   2 Ru     5.625998    1.624086   10.000000    ( 0.0000,  0.0000,  0.0000)
   3 Ru     1.406500    4.060215   10.000000    ( 0.0000,  0.0000,  0.0000)
   4 Ir     4.219499    4.060215   10.000000    ( 0.0000,  0.0000,  0.0000)
   5 Pt     7.032498    4.060215   10.000000    ( 0.0000,  0.0000,  0.0000)
   6 Pd     2.812999    6.496343   10.000000    ( 0.0000,  0.0000,  0.0000)
   7 Pd     5.625998    6.496343   10.000000    ( 0.0000,  0.0000,  0.0000)
   8 Ru     8.438997    6.496343   10.000000    ( 0.0000,  0.0000,  0.0000)
   9 Ag     0.000000    0.000000   12.296804    ( 0.0000,  0.0000,  0.0000)
  10 Ag     2.812999    0.000000   12.296804    ( 0.0000,  0.0000,  0.0000)
  11 Ag     5.625998    0.000000   12.296804    ( 0.0000,  0.0000,  0.0000)
  12 Pt     1.406500    2.436129   12.296804    ( 0.0000,  0.0000,  0.0000)
  13 Pt     4.219499    2.436129   12.296804    ( 0.0000,  0.0000,  0.0000)
  14 Pt     7.032498    2.436129   12.296804    ( 0.0000,  0.0000,  0.0000)
  15 Ru     2.812999    4.872257   12.296804    ( 0.0000,  0.0000,  0.0000)
  16 Pt     5.625998    4.872257   12.296804    ( 0.0000,  0.0000,  0.0000)
  17 Ir     8.438997    4.872257   12.296804    ( 0.0000,  0.0000,  0.0000)
  18 Pt     1.331112    0.739375   14.657283    ( 0.0000,  0.0000,  0.0000)
  19 Ag     4.181622    0.793852   14.645499    ( 0.0000,  0.0000,  0.0000)
  20 Pd     7.001587    0.862206   14.620346    ( 0.0000,  0.0000,  0.0000)
  21 Ag     2.800841    3.198617   14.645984    ( 0.0000,  0.0000,  0.0000)
  22 Ru     5.661352    3.374873   14.464570    ( 0.0000,  0.0000,  0.0000)
  23 Pd     8.454364    3.209063   14.568969    ( 0.0000,  0.0000,  0.0000)
  24 Ir     4.203312    5.613553   14.568997    ( 0.0000,  0.0000,  0.0000)
  25 Ir     7.031881    5.578044   14.561300    ( 0.0000,  0.0000,  0.0000)
  26 Pt     9.857688    5.665883   14.596939    ( 0.0000,  0.0000,  0.0000)
  27 Ir    -0.077764    1.506761   16.938800    ( 0.0000,  0.0000,  0.0000)
  28 Pd     2.746751    1.593087   16.991368    ( 0.0000,  0.0000,  0.0000)
  29 Ag     5.532334    1.594992   16.918159    ( 0.0000,  0.0000,  0.0000)
  30 Pd     1.401555    4.031321   16.973309    ( 0.0000,  0.0000,  0.0000)
  31 Pd     4.186062    4.107308   16.892321    ( 0.0000,  0.0000,  0.0000)
  32 Pd     7.007491    3.969527   16.736476    ( 0.0000,  0.0000,  0.0000)
  33 Ru     2.845276    6.541012   16.753610    ( 0.0000,  0.0000,  0.0000)
  34 Pd     5.662228    6.450069   16.794393    ( 0.0000,  0.0000,  0.0000)
  35 Ir     8.552515    6.378355   16.920371    ( 0.0000,  0.0000,  0.0000)
  36 Ir     0.061963   -0.029589   18.981657    ( 0.0000,  0.0000,  0.0000)
  37 Pt     2.802470   -0.097062   19.141410    ( 0.0000,  0.0000,  0.0000)
  38 Ag     5.661265    0.013033   19.406409    ( 0.0000,  0.0000,  0.0000)
  39 Pd     1.350042    2.376862   19.278970    ( 0.0000,  0.0000,  0.0000)
  40 Pd     4.315258    2.518491   19.256067    ( 0.0000,  0.0000,  0.0000)
  41 Ir     7.173708    2.513849   19.018418    ( 0.0000,  0.0000,  0.0000)
  42 Ag     2.809713    4.893314   19.379442    ( 0.0000,  0.0000,  0.0000)
  43 Ir     5.700233    4.913916   19.039342    ( 0.0000,  0.0000,  0.0000)
  44 Ir     8.278779    4.849064   19.000358    ( 0.0000,  0.0000,  0.0000)
  45 O      1.350042    2.376862   21.406409    ( 0.0000,  0.0000,  0.0000)
  46 H      2.000042    3.026862   21.806409    ( 0.0000,  0.0000,  0.0000)

Unit cell:
           periodic     x           y           z      points  spacing
  1. axis:    yes    8.465341    0.000000    0.000000    35     0.2095
  2. axis:    yes    4.232670    7.331200    0.000000    35     0.2095
  3. axis:    no     0.000000    0.000000   29.187217   135     0.2162

  Lengths:   8.465341   8.465341  29.187217
  Angles:   90.000000  90.000000  60.000000

Effective grid spacing dv^(1/3) = 0.2221

                     log10-error:    total        iterations:
           time      wfs    density  energy       fermi  poisson
iter:   1  14:12:38  +0.33   +inf  -326.052263    3             
iter:   2  14:13:42  -0.57  -1.16  -402.514234    34            
iter:   3  14:14:47  -0.64  -1.08  -353.611781    3             
iter:   4  14:15:52  -1.30  -1.14  -271.413306    36            
iter:   5  14:16:57  -1.72  -1.35  -250.812652    35            
iter:   6  14:18:02  -1.90  -1.44  -246.761140    37            
iter:   7  14:19:07  -2.18  -1.49  -243.792086    3             
iter:   8  14:20:12  -2.27  -1.55  -240.496169    3             
iter:   9  14:21:16  -2.11  -1.69  -241.556782    3             
iter:  10  14:22:20  -2.76  -1.72  -239.241626    3             
iter:  11  14:23:25  -2.74  -1.88  -239.170603    3             
iter:  12  14:24:30  -2.58  -1.93  -238.925890    3             
iter:  13  14:25:35  -2.93  -2.11  -240.309713    3             
iter:  14  14:26:39  -3.25  -1.95  -238.830007    3             
iter:  15  14:27:44  -3.50  -2.22  -238.608082    3             
iter:  16  14:28:49  -3.30  -2.36  -238.587279    3             
iter:  17  14:29:53  -3.25  -2.47  -238.576978    3             
iter:  18  14:30:58  -3.71  -2.53  -238.515010    3             
iter:  19  14:32:03  -4.23  -2.65  -238.456765    2             
iter:  20  14:33:07  -4.36  -2.83  -238.520360    2             
iter:  21  14:34:12  -4.47  -2.64  -238.443293    3             
iter:  22  14:35:17  -4.68  -2.97  -238.442011    2             
iter:  23  14:36:23  -4.56  -3.01  -238.443621    2             
iter:  24  14:37:27  -4.57  -3.00  -238.459148    3             
iter:  25  14:38:32  -4.49  -2.94  -238.439863    2             
iter:  26  14:39:37  -5.17  -3.16  -238.440035    2             
iter:  27  14:40:43  -5.50  -3.23  -238.438333    2             
iter:  28  14:41:48  -5.76  -3.29  -238.437123    2             
iter:  29  14:42:53  -5.86  -3.44  -238.436878    2             
iter:  30  14:43:57  -5.34  -3.48  -238.440188    3             
iter:  31  14:45:02  -5.85  -3.43  -238.436270    2             
iter:  32  14:46:07  -5.97  -3.55  -238.437657    2             
iter:  33  14:47:11  -6.20  -3.62  -238.437797    2             
iter:  34  14:48:16  -6.31  -3.57  -238.437827    2             
iter:  35  14:49:21  -6.53  -3.73  -238.437372    2             
iter:  36  14:50:25  -6.33  -3.92  -238.437382    2             
iter:  37  14:51:31  -6.19  -4.07  -238.436524    2             
iter:  38  14:52:35  -7.25  -4.13  -238.437013    2             
iter:  39  14:53:39  -7.62  -4.40  -238.436941    2             

Converged after 39 iterations.

Dipole moment: (23.193009, 16.426687, -0.274242) |e|*Ang

Energy contributions relative to reference atoms: (reference = -12877860.274276)

Kinetic:       -227.468504
Potential:     +101.970408
External:        +0.000000
XC:            -104.981208
Entropy (-ST):   -2.270013
Local:           -6.822631
--------------------------
Free energy:   -239.571948
Extrapolated:  -238.436941

Fermi level: 0.93301

Showing only first 2 kpts
 Kpt  Band  Eigenvalues  Occupancy
  0   360      0.92364    0.13085
  0   361      0.95122    0.11365
  0   362      0.97478    0.09927
  0   363      0.98492    0.09326

  1   360      0.84332    0.17758
  1   361      0.85460    0.17164
  1   362      0.88630    0.15367
  1   363      0.92068    0.13270



Forces in eV/Ang:
  0 Pd   -0.12016    0.33148   -0.34683
  1 Ir    0.95099    0.69547    0.61033
  2 Ru   -1.08400    0.29890    0.69287
  3 Ru    0.42335    0.29036    1.61780
  4 Ir   -0.56136   -0.80333    1.17117
  5 Pt    0.14989    0.16450    0.04964
  6 Pd   -0.49617   -0.42301   -0.23819
  7 Pd    0.38807   -0.26666   -0.57618
  8 Ru    0.33495   -0.15362    0.55240
  9 Ag   -0.24326   -0.09622    0.06361
 10 Ag   -0.02463   -0.10302    0.05107
 11 Ag    0.07420   -0.17152   -0.14243
 12 Pt    0.09656    0.76501   -0.54064
 13 Pt    0.11585    0.57671   -0.72130
 14 Pt   -0.09855    0.21512   -0.17395
 15 Ru   -0.38812   -0.74731   -0.96326
 16 Pt   -0.41544    0.18115   -0.12287
 17 Ir    0.89675   -0.11531   -1.05616
 18 Pt   -0.01293   -0.01846    0.01562
 19 Ag    0.01102   -0.04999    0.02851
 20 Pd   -0.06423   -0.08573   -0.03036
 21 Ag   -0.01625   -0.01002   -0.00752
 22 Ru   -0.00626   -0.01549   -0.00612
 23 Pd   -0.04530   -0.03640    0.06671
 24 Ir   -0.01999   -0.02279    0.00373
 25 Ir   -0.00317   -0.04417    0.05337
 26 Pt   -0.00244   -0.00871    0.00698
 27 Ir    0.23224    0.09780   -0.03142
 28 Pd   -0.04033   -0.03184   -0.04487
 29 Ag   -0.00006   -0.00731    0.01212
 30 Pd   -0.06415   -0.07752   -0.07901
 31 Pd    0.02673   -0.05108    0.01180
 32 Pd    0.02466   -0.00941    0.01715
 33 Ru    0.00149    0.00444    0.07808
 34 Pd    0.01721    0.03063   -0.04412
 35 Ir   -0.02042   -0.03641    0.03313
 36 Ir   -0.12074   -0.19330   -0.11022
 37 Pt    0.14734   -0.06464   -0.07986
 38 Ag    0.03157   -0.00666    0.00609
 39 Pd    0.14517    0.08013    1.09256
 40 Pd    0.03512   -0.00763    0.00533
 41 Ir   -0.23670   -0.01289   -0.00784
 42 Ag   -0.00562    0.02418   -0.03699
 43 Ir    0.00618    0.00673   -0.00441
 44 Ir   -0.01736    0.00547   -0.03189
 45 O     0.29198    0.15388   -0.36083
 46 H    -0.38454   -0.36971   -0.45047

System changes: positions 

Initializing position-dependent things.

Density initialized from wave functions
                                             
                                             
                                             
                                             
                                             
                                             
              H                              
            O                                
                 Ag      Ir    Ir            
            Pd      Pd                       
                   Ru    PdIr   Ir           
       Ir    PPt    PAg    Pd                
                                             
        Ir     Pd    IAg    Ir     Pt        
                                             
                Ag     Ru     Pd             
           Pt    RAg    PPd    Ir            
                                             
            Pt     Pt    PPt    Ru           
       Ag     Ag     Ag                      
              Ru    Ir     Pt                
        Pd     Ir     Ru                     
                                             
                                             
                                             
                                             
                                             

Positions:
   0 Pd     0.000000    1.624086   10.000000    ( 0.0000,  0.0000,  0.0000)
   1 Ir     2.812999    1.624086   10.000000    ( 0.0000,  0.0000,  0.0000)
   2 Ru     5.625998    1.624086   10.000000    ( 0.0000,  0.0000,  0.0000)
   3 Ru     1.406500    4.060215   10.000000    ( 0.0000,  0.0000,  0.0000)
   4 Ir     4.219499    4.060215   10.000000    ( 0.0000,  0.0000,  0.0000)
   5 Pt     7.032498    4.060215   10.000000    ( 0.0000,  0.0000,  0.0000)
   6 Pd     2.812999    6.496343   10.000000    ( 0.0000,  0.0000,  0.0000)
   7 Pd     5.625998    6.496343   10.000000    ( 0.0000,  0.0000,  0.0000)
   8 Ru     8.438997    6.496343   10.000000    ( 0.0000,  0.0000,  0.0000)
   9 Ag     0.000000    0.000000   12.296804    ( 0.0000,  0.0000,  0.0000)
  10 Ag     2.812999    0.000000   12.296804    ( 0.0000,  0.0000,  0.0000)
  11 Ag     5.625998    0.000000   12.296804    ( 0.0000,  0.0000,  0.0000)
  12 Pt     1.406500    2.436129   12.296804    ( 0.0000,  0.0000,  0.0000)
  13 Pt     4.219499    2.436129   12.296804    ( 0.0000,  0.0000,  0.0000)
  14 Pt     7.032498    2.436129   12.296804    ( 0.0000,  0.0000,  0.0000)
  15 Ru     2.812999    4.872257   12.296804    ( 0.0000,  0.0000,  0.0000)
  16 Pt     5.625998    4.872257   12.296804    ( 0.0000,  0.0000,  0.0000)
  17 Ir     8.438997    4.872257   12.296804    ( 0.0000,  0.0000,  0.0000)
  18 Pt     1.329819    0.737529   14.658845    ( 0.0000,  0.0000,  0.0000)
  19 Ag     4.182725    0.788852   14.648350    ( 0.0000,  0.0000,  0.0000)
  20 Pd     6.995164    0.853633   14.617310    ( 0.0000,  0.0000,  0.0000)
  21 Ag     2.799215    3.197616   14.645232    ( 0.0000,  0.0000,  0.0000)
  22 Ru     5.660726    3.373324   14.463958    ( 0.0000,  0.0000,  0.0000)
  23 Pd     8.449834    3.205423   14.575640    ( 0.0000,  0.0000,  0.0000)
  24 Ir     4.201314    5.611273   14.569369    ( 0.0000,  0.0000,  0.0000)
  25 Ir     7.031564    5.573627   14.566637    ( 0.0000,  0.0000,  0.0000)
  26 Pt     9.857444    5.665012   14.597637    ( 0.0000,  0.0000,  0.0000)
  27 Ir    -0.054540    1.516542   16.935658    ( 0.0000,  0.0000,  0.0000)
  28 Pd     2.742717    1.589904   16.986881    ( 0.0000,  0.0000,  0.0000)
  29 Ag     5.532328    1.594261   16.919371    ( 0.0000,  0.0000,  0.0000)
  30 Pd     1.395140    4.023569   16.965409    ( 0.0000,  0.0000,  0.0000)
  31 Pd     4.188735    4.102200   16.893501    ( 0.0000,  0.0000,  0.0000)
  32 Pd     7.009957    3.968586   16.738191    ( 0.0000,  0.0000,  0.0000)
  33 Ru     2.845425    6.541457   16.761419    ( 0.0000,  0.0000,  0.0000)
  34 Pd     5.663949    6.453132   16.789982    ( 0.0000,  0.0000,  0.0000)
  35 Ir     8.550472    6.374714   16.923684    ( 0.0000,  0.0000,  0.0000)
  36 Ir     0.049889   -0.048919   18.970635    ( 0.0000,  0.0000,  0.0000)
  37 Pt     2.817204   -0.103526   19.133424    ( 0.0000,  0.0000,  0.0000)
  38 Ag     5.664422    0.012367   19.407018    ( 0.0000,  0.0000,  0.0000)
  39 Pd     1.364559    2.384875   19.388226    ( 0.0000,  0.0000,  0.0000)
  40 Pd     4.318770    2.517728   19.256600    ( 0.0000,  0.0000,  0.0000)
  41 Ir     7.150038    2.512560   19.017635    ( 0.0000,  0.0000,  0.0000)
  42 Ag     2.809151    4.895733   19.375744    ( 0.0000,  0.0000,  0.0000)
  43 Ir     5.700851    4.914589   19.038901    ( 0.0000,  0.0000,  0.0000)
  44 Ir     8.277043    4.849610   18.997169    ( 0.0000,  0.0000,  0.0000)
  45 O      1.379240    2.392250   21.370327    ( 0.0000,  0.0000,  0.0000)
  46 H      1.961588    2.989891   21.761363    ( 0.0000,  0.0000,  0.0000)

Unit cell:
           periodic     x           y           z      points  spacing
  1. axis:    yes    8.465341    0.000000    0.000000    35     0.2095
  2. axis:    yes    4.232670    7.331200    0.000000    35     0.2095
  3. axis:    no     0.000000    0.000000   29.187217   135     0.2162

  Lengths:   8.465341   8.465341  29.187217
  Angles:   90.000000  90.000000  60.000000

Effective grid spacing dv^(1/3) = 0.2221

                     log10-error:    total        iterations:
           time      wfs    density  energy       fermi  poisson
iter:   1  14:55:14  -2.15   +inf  -240.459043    4             
iter:   2  14:56:19  -2.09  -2.11  -245.410584    30            
iter:   3  14:57:24  -1.81  -1.83  -277.621160    3             
iter:   4  14:58:29  -2.18  -1.41  -239.827888    4             
iter:   5  14:59:34  -3.14  -2.09  -238.732163    3             
iter:   6  15:00:40  -3.80  -2.42  -238.455885    3             
iter:   7  15:01:45  -4.49  -2.91  -238.445457    3             
iter:   8  15:02:49  -4.43  -2.93  -238.420373    3             
iter:   9  15:03:54  -4.15  -3.00  -238.460847    2             
iter:  10  15:04:58  -4.45  -2.69  -238.453380    3             
iter:  11  15:06:03  -4.53  -2.74  -238.406198    3             
iter:  12  15:07:08  -4.52  -3.04  -238.391529    3             
iter:  13  15:08:10  -5.20  -3.26  -238.392210    3             
iter:  14  15:09:03  -5.68  -3.27  -238.390113    2             
iter:  15  15:10:05  -5.56  -3.38  -238.391598    2             
iter:  16  15:11:09  -4.65  -3.30  -238.493758    3             
iter:  17  15:12:13  -4.93  -2.66  -238.390579    3             
iter:  18  15:13:19  -5.83  -3.70  -238.389578    2             
iter:  19  15:14:21  -6.32  -3.77  -238.390212    2             
iter:  20  15:15:25  -6.55  -3.86  -238.389878    2             
iter:  21  15:16:29  -6.25  -3.99  -238.389923    2             
iter:  22  15:17:33  -6.13  -4.03  -238.391855    2             
iter:  23  15:18:37  -6.53  -3.64  -238.389785    2             
iter:  24  15:19:39  -6.64  -3.95  -238.389379    2             
iter:  25  15:20:42  -6.53  -3.90  -238.390154    2             
iter:  26  15:21:44  -6.80  -4.10  -238.389810    2             
iter:  27  15:22:48  -7.38  -4.22  -238.389845    2             
iter:  28  15:23:51  -7.06  -4.34  -238.390443    2             
iter:  29  15:24:54  -7.28  -3.93  -238.389752    2             
iter:  30  15:25:57  -7.23  -4.36  -238.389601    2             
iter:  31  15:27:01  -7.13  -4.33  -238.390130    2             
iter:  32  15:28:03  -7.86  -4.33  -238.389991    2             

Converged after 32 iterations.

Dipole moment: (22.233844, 17.371272, -0.195200) |e|*Ang

Energy contributions relative to reference atoms: (reference = -12877860.274276)

Kinetic:       -225.346590
Potential:     +101.088138
External:        +0.000000
XC:            -106.090212
Entropy (-ST):   -2.267198
Local:           -6.907727
--------------------------
Free energy:   -239.523590
Extrapolated:  -238.389991

Fermi level: 0.96746

Showing only first 2 kpts
 Kpt  Band  Eigenvalues  Occupancy
  0   360      0.96357    0.12743
  0   361      0.98735    0.11261
  0   362      1.00904    0.09938
  0   363      1.02014    0.09281

  1   360      0.87841    0.17725
  1   361      0.88678    0.17286
  1   362      0.91657    0.15614
  1   363      0.95807    0.13086



Forces in eV/Ang:
  0 Pd   -0.12309    0.32422   -0.35313
  1 Ir    0.94735    0.68839    0.60414
  2 Ru   -1.07453    0.29026    0.67977
  3 Ru    0.42242    0.29397    1.61326
  4 Ir   -0.56235   -0.79420    1.16315
  5 Pt    0.15212    0.16596    0.04713
  6 Pd   -0.49474   -0.41648   -0.24377
  7 Pd    0.38238   -0.26200   -0.58000
  8 Ru    0.34067   -0.15163    0.54842
  9 Ag   -0.24165   -0.09641    0.05937
 10 Ag   -0.02576   -0.10659    0.06015
 11 Ag    0.06775   -0.17317   -0.15851
 12 Pt    0.08524    0.76389   -0.53496
 13 Pt    0.11327    0.56465   -0.71730
 14 Pt   -0.09379    0.20861   -0.17655
 15 Ru   -0.39046   -0.74416   -0.95987
 16 Pt   -0.41052    0.18460   -0.12312
 17 Ir    0.89437   -0.12758   -1.05798
 18 Pt   -0.00695    0.00416   -0.04605
 19 Ag   -0.01682   -0.02403    0.00676
 20 Pd   -0.00391   -0.04983    0.01345
 21 Ag   -0.00643   -0.02321   -0.01056
 22 Ru   -0.01560   -0.03491    0.01133
 23 Pd   -0.02027   -0.04511   -0.00547
 24 Ir   -0.03193   -0.00890    0.00996
 25 Ir    0.01193   -0.02090   -0.00703
 26 Pt   -0.00808   -0.02317   -0.00706
 27 Ir    0.06913    0.08280    0.18253
 28 Pd   -0.09002    0.04722    0.14088
 29 Ag    0.02496   -0.03709   -0.03017
 30 Pd   -0.03958   -0.14362    0.07914
 31 Pd   -0.00720   -0.02432   -0.01130
 32 Pd   -0.01414   -0.03452    0.01496
 33 Ru    0.02353    0.00289    0.03033
 34 Pd   -0.00890   -0.02167   -0.01050
 35 Ir    0.04859   -0.00438   -0.02755
 36 Ir   -0.01773   -0.05483   -0.11302
 37 Pt    0.03963    0.04108   -0.07634
 38 Ag    0.02700   -0.00481    0.00949
 39 Pd    0.00062    0.05127   -0.45184
 40 Pd   -0.01136   -0.02333    0.00433
 41 Ir    0.10633   -0.02314   -0.07613
 42 Ag   -0.03175   -0.03166   -0.03836
 43 Ir   -0.02552    0.02603   -0.04448
 44 Ir    0.03082   -0.11820    0.01648
 45 O    -2.34437   -2.53915   -0.74542
 46 H     2.30003    2.38712    1.32978

System changes: positions 

Initializing position-dependent things.

Density initialized from wave functions
                                             
                                             
                                             
                                             
                                             
                                             
              H                              
            O                                
                  Ag     Ir    Ir            
            Pd      Pd                       
                   Ru     PIr    Ir          
        Ir   PPt    PAg    Pd                
                                             
        Ir     Pd    IAg    Ir     Pt        
                                             
                Ag     Ru     Pd             
           Pt     Ag    PPd    Ir            
                                             
            Pt     Pt    PPt    Ru           
       Ag     Ag     Ag                      
              Ru    Ir     Pt                
        Pd     Ir     Ru                     
                                             
                                             
                                             
                                             
                                             

Positions:
   0 Pd     0.000000    1.624086   10.000000    ( 0.0000,  0.0000,  0.0000)
   1 Ir     2.812999    1.624086   10.000000    ( 0.0000,  0.0000,  0.0000)
   2 Ru     5.625998    1.624086   10.000000    ( 0.0000,  0.0000,  0.0000)
   3 Ru     1.406500    4.060215   10.000000    ( 0.0000,  0.0000,  0.0000)
   4 Ir     4.219499    4.060215   10.000000    ( 0.0000,  0.0000,  0.0000)
   5 Pt     7.032498    4.060215   10.000000    ( 0.0000,  0.0000,  0.0000)
   6 Pd     2.812999    6.496343   10.000000    ( 0.0000,  0.0000,  0.0000)
   7 Pd     5.625998    6.496343   10.000000    ( 0.0000,  0.0000,  0.0000)
   8 Ru     8.438997    6.496343   10.000000    ( 0.0000,  0.0000,  0.0000)
   9 Ag     0.000000    0.000000   12.296804    ( 0.0000,  0.0000,  0.0000)
  10 Ag     2.812999    0.000000   12.296804    ( 0.0000,  0.0000,  0.0000)
  11 Ag     5.625998    0.000000   12.296804    ( 0.0000,  0.0000,  0.0000)
  12 Pt     1.406500    2.436129   12.296804    ( 0.0000,  0.0000,  0.0000)
  13 Pt     4.219499    2.436129   12.296804    ( 0.0000,  0.0000,  0.0000)
  14 Pt     7.032498    2.436129   12.296804    ( 0.0000,  0.0000,  0.0000)
  15 Ru     2.812999    4.872257   12.296804    ( 0.0000,  0.0000,  0.0000)
  16 Pt     5.625998    4.872257   12.296804    ( 0.0000,  0.0000,  0.0000)
  17 Ir     8.438997    4.872257   12.296804    ( 0.0000,  0.0000,  0.0000)
  18 Pt     1.330566    0.738595   14.657943    ( 0.0000,  0.0000,  0.0000)
  19 Ag     4.182088    0.791739   14.646704    ( 0.0000,  0.0000,  0.0000)
  20 Pd     6.998872    0.858582   14.619063    ( 0.0000,  0.0000,  0.0000)
  21 Ag     2.800154    3.198194   14.645666    ( 0.0000,  0.0000,  0.0000)
  22 Ru     5.661088    3.374219   14.464311    ( 0.0000,  0.0000,  0.0000)
  23 Pd     8.452449    3.207525   14.571788    ( 0.0000,  0.0000,  0.0000)
  24 Ir     4.202468    5.612589   14.569154    ( 0.0000,  0.0000,  0.0000)
  25 Ir     7.031747    5.576177   14.563556    ( 0.0000,  0.0000,  0.0000)
  26 Pt     9.857585    5.665514   14.597234    ( 0.0000,  0.0000,  0.0000)
  27 Ir    -0.067948    1.510895   16.937472    ( 0.0000,  0.0000,  0.0000)
  28 Pd     2.745046    1.591742   16.989471    ( 0.0000,  0.0000,  0.0000)
  29 Ag     5.532332    1.594683   16.918672    ( 0.0000,  0.0000,  0.0000)
  30 Pd     1.398843    4.028044   16.969970    ( 0.0000,  0.0000,  0.0000)
  31 Pd     4.187192    4.105149   16.892820    ( 0.0000,  0.0000,  0.0000)
  32 Pd     7.008533    3.969129   16.737201    ( 0.0000,  0.0000,  0.0000)
  33 Ru     2.845339    6.541200   16.756911    ( 0.0000,  0.0000,  0.0000)
  34 Pd     5.662955    6.451364   16.792529    ( 0.0000,  0.0000,  0.0000)
  35 Ir     8.551652    6.376816   16.921771    ( 0.0000,  0.0000,  0.0000)
  36 Ir     0.056860   -0.037759   18.976999    ( 0.0000,  0.0000,  0.0000)
  37 Pt     2.808698   -0.099794   19.138035    ( 0.0000,  0.0000,  0.0000)
  38 Ag     5.662599    0.012752   19.406667    ( 0.0000,  0.0000,  0.0000)
  39 Pd     1.356178    2.380249   19.325149    ( 0.0000,  0.0000,  0.0000)
  40 Pd     4.316742    2.518168   19.256292    ( 0.0000,  0.0000,  0.0000)
  41 Ir     7.163703    2.513304   19.018087    ( 0.0000,  0.0000,  0.0000)
  42 Ag     2.809475    4.894336   19.377879    ( 0.0000,  0.0000,  0.0000)
  43 Ir     5.700494    4.914201   19.039156    ( 0.0000,  0.0000,  0.0000)
  44 Ir     8.278046    4.849295   18.999010    ( 0.0000,  0.0000,  0.0000)
  45 O      1.362383    2.383366   21.391158    ( 0.0000,  0.0000,  0.0000)
  46 H      1.983789    3.011235   21.787369    ( 0.0000,  0.0000,  0.0000)

Unit cell:
           periodic     x           y           z      points  spacing
  1. axis:    yes    8.465341    0.000000    0.000000    35     0.2095
  2. axis:    yes    4.232670    7.331200    0.000000    35     0.2095
  3. axis:    no     0.000000    0.000000   29.187217   135     0.2162

  Lengths:   8.465341   8.465341  29.187217
  Angles:   90.000000  90.000000  60.000000

Effective grid spacing dv^(1/3) = 0.2221

                     log10-error:    total        iterations:
           time      wfs    density  energy       fermi  poisson
iter:   1  15:29:33  -2.53   +inf  -239.275593    3             
iter:   2  15:30:36  -2.30  -2.25  -257.172792    3             
iter:   3  15:31:39  -2.54  -1.54  -238.913057    3             
iter:   4  15:32:42  -3.28  -2.35  -239.149344    3             
iter:   5  15:33:45  -3.65  -2.29  -238.527742    3             
iter:   6  15:34:37  -4.16  -3.02  -238.502217    3             
iter:   7  15:35:25  -4.87  -3.14  -238.497176    2             
iter:   8  15:36:12  -5.18  -3.29  -238.494578    2             
iter:   9  15:36:59  -4.82  -3.30  -238.524244    3             
iter:  10  15:37:46  -4.85  -2.82  -238.516669    2             
iter:  11  15:38:33  -4.73  -2.98  -238.490244    3             
iter:  12  15:39:19  -5.45  -3.26  -238.488139    3             
iter:  13  15:40:05  -5.83  -3.51  -238.487622    2             
iter:  14  15:40:52  -6.16  -3.64  -238.487879    2             
iter:  15  15:41:39  -6.46  -3.85  -238.488382    2             
iter:  16  15:42:26  -6.17  -3.73  -238.491004    2             
iter:  17  15:43:14  -6.39  -3.52  -238.487725    2             
iter:  18  15:44:00  -6.28  -3.87  -238.489168    2             
iter:  19  15:44:48  -6.48  -3.87  -238.488799    2             
iter:  20  15:45:36  -6.70  -3.98  -238.488639    2             
iter:  21  15:46:23  -7.08  -4.05  -238.488433    2             
iter:  22  15:47:15  -7.42  -4.20  -238.488443    2             

Converged after 22 iterations.

Dipole moment: (22.787957, 16.831844, -0.241671) |e|*Ang

Energy contributions relative to reference atoms: (reference = -12877860.274276)

Kinetic:       -228.472045
Potential:     +103.412500
External:        +0.000000
XC:            -105.329411
Entropy (-ST):   -2.268456
Local:           -6.965258
--------------------------
Free energy:   -239.622671
Extrapolated:  -238.488443

Fermi level: 0.94561

Showing only first 2 kpts
 Kpt  Band  Eigenvalues  Occupancy
  0   360      0.93861    0.12937
  0   361      0.96476    0.11306
  0   362      0.98756    0.09915
  0   363      0.99718    0.09346

  1   360      0.85674    0.17715
  1   361      0.86571    0.17244
  1   362      0.89656    0.15505
  1   363      0.93456    0.13190



Forces in eV/Ang:
  0 Pd   -0.12394    0.32300   -0.35669
  1 Ir    0.94391    0.68633    0.59996
  2 Ru   -1.07124    0.29068    0.67353
  3 Ru    0.42072    0.29478    1.60708
  4 Ir   -0.56048   -0.79236    1.15765
  5 Pt    0.15210    0.16459    0.04034
  6 Pd   -0.49370   -0.41523   -0.24860
  7 Pd    0.38213   -0.26185   -0.58397
  8 Ru    0.33906   -0.15473    0.54140
  9 Ag   -0.24228   -0.09448    0.05786
 10 Ag   -0.02539   -0.10337    0.05130
 11 Ag    0.07167   -0.17056   -0.15328
 12 Pt    0.09181    0.76096   -0.54141
 13 Pt    0.11325    0.56737   -0.72138
 14 Pt   -0.09550    0.20788   -0.17937
 15 Ru   -0.38951   -0.74490   -0.96528
 16 Pt   -0.41270    0.18552   -0.13036
 17 Ir    0.89539   -0.11863   -1.06196
 18 Pt   -0.00992   -0.00790   -0.01093
 19 Ag    0.00190   -0.03636    0.02024
 20 Pd   -0.04403   -0.07494   -0.01103
 21 Ag   -0.01149   -0.01689   -0.00304
 22 Ru   -0.01191   -0.02994    0.00826
 23 Pd   -0.03500   -0.04409    0.04237
 24 Ir   -0.02833   -0.01389    0.01121
 25 Ir    0.00403   -0.02924    0.02675
 26 Pt   -0.00219   -0.01285    0.00423
 27 Ir    0.16653    0.09933    0.07439
 28 Pd   -0.07000    0.01112    0.04708
 29 Ag    0.00907   -0.01756   -0.01033
 30 Pd   -0.05229   -0.12116   -0.00292
 31 Pd    0.00185   -0.05199    0.00554
 32 Pd    0.01305   -0.02932    0.01842
 33 Ru    0.01021    0.00118    0.05468
 34 Pd    0.00619    0.01539   -0.03302
 35 Ir    0.01405   -0.01979    0.00415
 36 Ir   -0.06575   -0.11151   -0.08760
 37 Pt    0.09590   -0.00751   -0.06547
 38 Ag    0.03135   -0.00382    0.01469
 39 Pd    0.08387    0.06140    0.62215
 40 Pd    0.01595   -0.01630   -0.00038
 41 Ir   -0.06362   -0.02255   -0.02269
 42 Ag   -0.01533    0.00280   -0.04628
 43 Ir   -0.01678    0.01356   -0.01009
 44 Ir    0.01099   -0.05818   -0.00217
 45 O    -0.79087   -0.93855   -0.46124
 46 H     0.61274    0.63682    0.19725

System changes: positions 

Initializing position-dependent things.

Density initialized from wave functions
                                             
                                             
                                             
                                             
                                             
                                             
              H                              
            O                                
                 Ag      Ir    Ir            
            Pd      Pd                       
                   Ru    PIr    Ir           
       Ir    PPt    PAg    Pd                
                                             
        Ir     Pd    IAg    Ir     Pt        
                Ag                           
                       Ru     Pd             
           Pt    RAg    PPd    Ir            
                                             
            Pt     Pt    PPt    Ru           
       Ag     Ag     Ag                      
             Ru     Ir     Pt                
        Pd     Ir     Ru                     
                                             
                                             
                                             
                                             
                                             

Positions:
   0 Pd     0.000000    1.624086   10.000000    ( 0.0000,  0.0000,  0.0000)
   1 Ir     2.812999    1.624086   10.000000    ( 0.0000,  0.0000,  0.0000)
   2 Ru     5.625998    1.624086   10.000000    ( 0.0000,  0.0000,  0.0000)
   3 Ru     1.406500    4.060215   10.000000    ( 0.0000,  0.0000,  0.0000)
   4 Ir     4.219499    4.060215   10.000000    ( 0.0000,  0.0000,  0.0000)
   5 Pt     7.032498    4.060215   10.000000    ( 0.0000,  0.0000,  0.0000)
   6 Pd     2.812999    6.496343   10.000000    ( 0.0000,  0.0000,  0.0000)
   7 Pd     5.625998    6.496343   10.000000    ( 0.0000,  0.0000,  0.0000)
   8 Ru     8.438997    6.496343   10.000000    ( 0.0000,  0.0000,  0.0000)
   9 Ag     0.000000    0.000000   12.296804    ( 0.0000,  0.0000,  0.0000)
  10 Ag     2.812999    0.000000   12.296804    ( 0.0000,  0.0000,  0.0000)
  11 Ag     5.625998    0.000000   12.296804    ( 0.0000,  0.0000,  0.0000)
  12 Pt     1.406500    2.436129   12.296804    ( 0.0000,  0.0000,  0.0000)
  13 Pt     4.219499    2.436129   12.296804    ( 0.0000,  0.0000,  0.0000)
  14 Pt     7.032498    2.436129   12.296804    ( 0.0000,  0.0000,  0.0000)
  15 Ru     2.812999    4.872257   12.296804    ( 0.0000,  0.0000,  0.0000)
  16 Pt     5.625998    4.872257   12.296804    ( 0.0000,  0.0000,  0.0000)
  17 Ir     8.438997    4.872257   12.296804    ( 0.0000,  0.0000,  0.0000)
  18 Pt     1.327994    0.735495   14.658960    ( 0.0000,  0.0000,  0.0000)
  19 Ag     4.183682    0.781976   14.652226    ( 0.0000,  0.0000,  0.0000)
  20 Pd     6.986575    0.840693   14.614142    ( 0.0000,  0.0000,  0.0000)
  21 Ag     2.797010    3.195361   14.644420    ( 0.0000,  0.0000,  0.0000)
  22 Ru     5.659195    3.369491   14.464276    ( 0.0000,  0.0000,  0.0000)
  23 Pd     8.443417    3.198810   14.584254    ( 0.0000,  0.0000,  0.0000)
  24 Ir     4.197306    5.608384   14.570657    ( 0.0000,  0.0000,  0.0000)
  25 Ir     7.031706    5.567815   14.572877    ( 0.0000,  0.0000,  0.0000)
  26 Pt     9.857071    5.663219   14.598520    ( 0.0000,  0.0000,  0.0000)
  27 Ir    -0.022815    1.532565   16.940207    ( 0.0000,  0.0000,  0.0000)
  28 Pd     2.733460    1.588652   16.987982    ( 0.0000,  0.0000,  0.0000)
  29 Ag     5.533152    1.592138   16.919292    ( 0.0000,  0.0000,  0.0000)
  30 Pd     1.385802    4.006998   16.959517    ( 0.0000,  0.0000,  0.0000)
  31 Pd     4.190807    4.093821   16.894847    ( 0.0000,  0.0000,  0.0000)
  32 Pd     7.012903    3.965242   16.741092    ( 0.0000,  0.0000,  0.0000)
  33 Ru     2.846463    6.541881   16.771966    ( 0.0000,  0.0000,  0.0000)
  34 Pd     5.665739    6.456717   16.783829    ( 0.0000,  0.0000,  0.0000)
  35 Ir     8.550300    6.370317   16.926421    ( 0.0000,  0.0000,  0.0000)
  36 Ir     0.035295   -0.072852   18.954797    ( 0.0000,  0.0000,  0.0000)
  37 Pt     2.836442   -0.108813   19.121766    ( 0.0000,  0.0000,  0.0000)
  38 Ag     5.669529    0.011545   19.408791    ( 0.0000,  0.0000,  0.0000)
  39 Pd     1.382546    2.396181   19.522762    ( 0.0000,  0.0000,  0.0000)
  40 Pd     4.322725    2.515697   19.256945    ( 0.0000,  0.0000,  0.0000)
  41 Ir     7.127384    2.509586   19.015007    ( 0.0000,  0.0000,  0.0000)
  42 Ag     2.807353    4.897709   19.368889    ( 0.0000,  0.0000,  0.0000)
  43 Ir     5.699761    4.916306   19.037666    ( 0.0000,  0.0000,  0.0000)
  44 Ir     8.276810    4.844693   18.994701    ( 0.0000,  0.0000,  0.0000)
  45 O      1.327882    2.317588   21.302563    ( 0.0000,  0.0000,  0.0000)
  46 H      1.990108    3.021662   21.747287    ( 0.0000,  0.0000,  0.0000)

Unit cell:
           periodic     x           y           z      points  spacing
  1. axis:    yes    8.465341    0.000000    0.000000    35     0.2095
  2. axis:    yes    4.232670    7.331200    0.000000    35     0.2095
  3. axis:    no     0.000000    0.000000   29.187217   135     0.2162

  Lengths:   8.465341   8.465341  29.187217
  Angles:   90.000000  90.000000  60.000000

Effective grid spacing dv^(1/3) = 0.2221

                     log10-error:    total        iterations:
           time      wfs    density  energy       fermi  poisson
iter:   1  15:48:47  -1.66   +inf  -239.335988    3             
iter:   2  15:49:50  -1.99  -2.11  -272.215643    3             
iter:   3  15:50:55  -2.23  -1.44  -238.390648    3             
iter:   4  15:51:59  -3.27  -2.31  -238.272481    3             
iter:   5  15:53:03  -3.64  -2.38  -238.084732    3             
iter:   6  15:54:08  -3.82  -2.55  -237.990539    3             
iter:   7  15:55:11  -3.46  -2.78  -237.943393    3             
iter:   8  15:56:15  -3.82  -2.92  -237.926989    3             
iter:   9  15:57:19  -4.50  -3.07  -237.927683    2             
iter:  10  15:58:23  -4.73  -3.11  -237.937434    3             
iter:  11  15:59:27  -5.17  -2.90  -237.919902    2             
iter:  12  16:00:31  -4.97  -3.25  -237.920959    3             
iter:  13  16:01:35  -5.28  -3.22  -237.916869    3             
iter:  14  16:02:40  -5.17  -3.34  -237.918238    3             
iter:  15  16:03:43  -5.58  -3.50  -237.917271    2             
iter:  16  16:04:47  -5.69  -3.62  -237.917334    2             
iter:  17  16:05:50  -5.55  -3.45  -237.923009    2             
iter:  18  16:06:54  -5.77  -3.30  -237.917175    2             
iter:  19  16:07:58  -5.89  -3.78  -237.916464    2             
iter:  20  16:09:02  -6.23  -3.71  -237.917309    2             
iter:  21  16:10:06  -6.35  -3.86  -237.916390    2             
iter:  22  16:11:09  -6.30  -4.01  -237.916095    2             
iter:  23  16:12:14  -6.62  -3.87  -237.917199    2             
iter:  24  16:13:18  -6.66  -3.78  -237.916146    2             
iter:  25  16:14:21  -6.88  -4.00  -237.915992    2             
iter:  26  16:15:24  -6.61  -4.06  -237.917021    2             
iter:  27  16:16:29  -6.77  -3.99  -237.916126    2             
iter:  28  16:17:32  -7.22  -4.11  -237.916120    2             
iter:  29  16:18:36  -7.35  -4.21  -237.916513    2             
iter:  30  16:19:39  -7.61  -4.14  -237.916189    2             

Converged after 30 iterations.

Dipole moment: (23.277874, 18.341156, -0.019743) |e|*Ang

Energy contributions relative to reference atoms: (reference = -12877860.274276)

Kinetic:       -223.927950
Potential:      +99.257697
External:        +0.000000
XC:            -105.225181
Entropy (-ST):   -2.262165
Local:           -6.889672
--------------------------
Free energy:   -239.047272
Extrapolated:  -237.916189

Fermi level: 1.05236

Showing only first 2 kpts
 Kpt  Band  Eigenvalues  Occupancy
  0   360      1.05183    0.12533
  0   361      1.07468    0.11111
  0   362      1.09102    0.10113
  0   363      1.10942    0.09027

  1   360      0.96117    0.17835
  1   361      0.97297    0.17217
  1   362      1.00008    0.15695
  1   363      1.04651    0.12866



Forces in eV/Ang:
  0 Pd   -0.12145    0.32517   -0.35014
  1 Ir    0.95418    0.68958    0.60918
  2 Ru   -1.07809    0.28928    0.68488
  3 Ru    0.42491    0.29120    1.62097
  4 Ir   -0.56294   -0.79608    1.16810
  5 Pt    0.15226    0.16798    0.05427
  6 Pd   -0.49645   -0.41734   -0.23941
  7 Pd    0.38232   -0.26081   -0.57626
  8 Ru    0.34238   -0.14391    0.56227
  9 Ag   -0.23882   -0.10218    0.06352
 10 Ag   -0.02680   -0.11641    0.08273
 11 Ag    0.05762   -0.17648   -0.16374
 12 Pt    0.06693    0.76704   -0.51590
 13 Pt    0.11264    0.55561   -0.69917
 14 Pt   -0.09029    0.20952   -0.16471
 15 Ru   -0.39160   -0.74636   -0.94499
 16 Pt   -0.40664    0.18083   -0.09073
 17 Ir    0.88919   -0.14768   -1.04024
 18 Pt    0.00639    0.01572   -0.09882
 19 Ag   -0.06535    0.00636   -0.01119
 20 Pd    0.08652   -0.00044    0.08216
 21 Ag    0.00348   -0.03780   -0.01307
 22 Ru   -0.02003   -0.03035    0.01667
 23 Pd    0.00179   -0.03825   -0.10293
 24 Ir   -0.02153    0.00193    0.01135
 25 Ir    0.01911   -0.00690   -0.07205
 26 Pt   -0.01948   -0.04840   -0.01316
 27 Ir   -0.22346   -0.01931    0.23333
 28 Pd   -0.05591    0.09846    0.26527
 29 Ag    0.04896   -0.07455   -0.06732
 30 Pd   -0.00993   -0.13414    0.20947
 31 Pd   -0.03224    0.02570   -0.04322
 32 Pd   -0.06839   -0.03017    0.00696
 33 Ru    0.03356   -0.00810   -0.05466
 34 Pd   -0.03218   -0.08349    0.02672
 35 Ir    0.11926    0.01115   -0.09817
 36 Ir    0.08864    0.05667   -0.04676
 37 Pt   -0.05487    0.11222   -0.00531
 38 Ag    0.00602   -0.00297    0.03171
 39 Pd   -0.06153    0.11982   -4.82801
 40 Pd   -0.06456   -0.03893    0.02426
 41 Ir    0.40070   -0.03807   -0.05272
 42 Ag   -0.05314   -0.09632   -0.03119
 43 Ir   -0.02257    0.05242   -0.02863
 44 Ir    0.06434   -0.19042    0.12133
 45 O     1.53186    1.42477    5.88974
 46 H    -1.60435   -1.68597   -1.01933

System changes: positions 

Initializing position-dependent things.

Density initialized from wave functions
                                             
                                             
                                             
                                             
                                             
                                             
              H                              
            O                                
                 Ag      Ir    Ir            
            Pd      Pd                       
                   Ru    PdIr   Ir           
        Ir   PPt    PAg    Pd                
                                             
        Ir     Pd    IAg    Ir     Pt        
                                             
                Ag     Ru     Pd             
           Pt    RAg    PPd    Ir            
                                             
            Pt     Pt    PPt    Ru           
       Ag     Ag     Ag                      
              Ru    Ir     Pt                
        Pd     Ir     Ru                     
                                             
                                             
                                             
                                             
                                             

Positions:
   0 Pd     0.000000    1.624086   10.000000    ( 0.0000,  0.0000,  0.0000)
   1 Ir     2.812999    1.624086   10.000000    ( 0.0000,  0.0000,  0.0000)
   2 Ru     5.625998    1.624086   10.000000    ( 0.0000,  0.0000,  0.0000)
   3 Ru     1.406500    4.060215   10.000000    ( 0.0000,  0.0000,  0.0000)
   4 Ir     4.219499    4.060215   10.000000    ( 0.0000,  0.0000,  0.0000)
   5 Pt     7.032498    4.060215   10.000000    ( 0.0000,  0.0000,  0.0000)
   6 Pd     2.812999    6.496343   10.000000    ( 0.0000,  0.0000,  0.0000)
   7 Pd     5.625998    6.496343   10.000000    ( 0.0000,  0.0000,  0.0000)
   8 Ru     8.438997    6.496343   10.000000    ( 0.0000,  0.0000,  0.0000)
   9 Ag     0.000000    0.000000   12.296804    ( 0.0000,  0.0000,  0.0000)
  10 Ag     2.812999    0.000000   12.296804    ( 0.0000,  0.0000,  0.0000)
  11 Ag     5.625998    0.000000   12.296804    ( 0.0000,  0.0000,  0.0000)
  12 Pt     1.406500    2.436129   12.296804    ( 0.0000,  0.0000,  0.0000)
  13 Pt     4.219499    2.436129   12.296804    ( 0.0000,  0.0000,  0.0000)
  14 Pt     7.032498    2.436129   12.296804    ( 0.0000,  0.0000,  0.0000)
  15 Ru     2.812999    4.872257   12.296804    ( 0.0000,  0.0000,  0.0000)
  16 Pt     5.625998    4.872257   12.296804    ( 0.0000,  0.0000,  0.0000)
  17 Ir     8.438997    4.872257   12.296804    ( 0.0000,  0.0000,  0.0000)
  18 Pt     1.330090    0.738021   14.658132    ( 0.0000,  0.0000,  0.0000)
  19 Ag     4.182383    0.789931   14.647727    ( 0.0000,  0.0000,  0.0000)
  20 Pd     6.996596    0.855271   14.618152    ( 0.0000,  0.0000,  0.0000)
  21 Ag     2.799572    3.197670   14.645435    ( 0.0000,  0.0000,  0.0000)
  22 Ru     5.660737    3.373343   14.464305    ( 0.0000,  0.0000,  0.0000)
  23 Pd     8.450777    3.205911   14.574096    ( 0.0000,  0.0000,  0.0000)
  24 Ir     4.201512    5.611811   14.569432    ( 0.0000,  0.0000,  0.0000)
  25 Ir     7.031739    5.574629   14.565281    ( 0.0000,  0.0000,  0.0000)
  26 Pt     9.857490    5.665090   14.597472    ( 0.0000,  0.0000,  0.0000)
  27 Ir    -0.059593    1.514907   16.937979    ( 0.0000,  0.0000,  0.0000)
  28 Pd     2.742901    1.591170   16.989196    ( 0.0000,  0.0000,  0.0000)
  29 Ag     5.532484    1.594212   16.918787    ( 0.0000,  0.0000,  0.0000)
  30 Pd     1.396429    4.024148   16.968035    ( 0.0000,  0.0000,  0.0000)
  31 Pd     4.187861    4.103052   16.893195    ( 0.0000,  0.0000,  0.0000)
  32 Pd     7.009342    3.968410   16.737921    ( 0.0000,  0.0000,  0.0000)
  33 Ru     2.845547    6.541326   16.759698    ( 0.0000,  0.0000,  0.0000)
  34 Pd     5.663471    6.452355   16.790918    ( 0.0000,  0.0000,  0.0000)
  35 Ir     8.551401    6.375613   16.922632    ( 0.0000,  0.0000,  0.0000)
  36 Ir     0.052868   -0.044256   18.972889    ( 0.0000,  0.0000,  0.0000)
  37 Pt     2.813834   -0.101463   19.135023    ( 0.0000,  0.0000,  0.0000)
  38 Ag     5.663882    0.012528   19.407060    ( 0.0000,  0.0000,  0.0000)
  39 Pd     1.361059    2.383198   19.361731    ( 0.0000,  0.0000,  0.0000)
  40 Pd     4.317850    2.517711   19.256413    ( 0.0000,  0.0000,  0.0000)
  41 Ir     7.156980    2.512616   19.017517    ( 0.0000,  0.0000,  0.0000)
  42 Ag     2.809082    4.894961   19.376215    ( 0.0000,  0.0000,  0.0000)
  43 Ir     5.700358    4.914590   19.038880    ( 0.0000,  0.0000,  0.0000)
  44 Ir     8.277817    4.848443   18.998212    ( 0.0000,  0.0000,  0.0000)
  45 O      1.355997    2.371189   21.374758    ( 0.0000,  0.0000,  0.0000)
  46 H      1.984959    3.013165   21.779949    ( 0.0000,  0.0000,  0.0000)

Unit cell:
           periodic     x           y           z      points  spacing
  1. axis:    yes    8.465341    0.000000    0.000000    35     0.2095
  2. axis:    yes    4.232670    7.331200    0.000000    35     0.2095
  3. axis:    no     0.000000    0.000000   29.187217   135     0.2162

  Lengths:   8.465341   8.465341  29.187217
  Angles:   90.000000  90.000000  60.000000

Effective grid spacing dv^(1/3) = 0.2221

                     log10-error:    total        iterations:
           time      wfs    density  energy       fermi  poisson
iter:   1  16:21:11  -1.78   +inf  -240.349135    4             
iter:   2  16:22:15  -1.63  -2.00  -299.268005    36            
iter:   3  16:23:19  -2.09  -1.34  -241.076127    37            
iter:   4  16:24:22  -2.77  -2.04  -238.741468    4             
iter:   5  16:25:25  -3.56  -2.55  -238.628451    3             
iter:   6  16:26:28  -3.79  -2.73  -238.599704    3             
iter:   7  16:27:30  -4.02  -2.70  -238.613192    3             
iter:   8  16:28:33  -3.70  -2.71  -238.554871    3             
iter:   9  16:29:36  -4.29  -2.77  -238.545499    2             
iter:  10  16:30:38  -4.49  -2.86  -238.535996    3             
iter:  11  16:31:40  -4.64  -2.91  -238.516915    3             
iter:  12  16:32:41  -5.10  -3.20  -238.516957    2             
iter:  13  16:33:44  -5.25  -3.28  -238.520642    2             
iter:  14  16:34:45  -5.59  -3.25  -238.515612    2             
iter:  15  16:35:48  -5.64  -3.39  -238.517143    2             
iter:  16  16:36:51  -5.72  -3.42  -238.517247    2             
iter:  17  16:37:53  -5.81  -3.50  -238.515660    3             
iter:  18  16:38:55  -5.87  -3.65  -238.515882    2             
iter:  19  16:39:56  -5.97  -3.79  -238.518171    2             
iter:  20  16:40:59  -6.01  -3.52  -238.515294    2             
iter:  21  16:42:02  -6.29  -3.65  -238.515511    2             
iter:  22  16:43:05  -6.23  -3.92  -238.516124    2             
iter:  23  16:44:07  -6.22  -3.78  -238.515060    2             
iter:  24  16:45:09  -6.37  -3.92  -238.515236    2             
iter:  25  16:46:11  -6.43  -3.94  -238.516071    2             
iter:  26  16:47:14  -6.75  -3.79  -238.514915    2             
iter:  27  16:48:16  -6.91  -3.96  -238.515316    2             
iter:  28  16:49:18  -6.79  -4.02  -238.515602    2             
iter:  29  16:50:21  -6.95  -4.03  -238.515098    2             
iter:  30  16:51:22  -7.15  -4.04  -238.515186    2             
iter:  31  16:52:24  -7.31  -4.22  -238.515562    2             
iter:  32  16:53:26  -7.20  -3.96  -238.514817    2             
iter:  33  16:54:29  -7.45  -4.09  -238.515051    2             

Converged after 33 iterations.

Dipole moment: (22.884695, 17.123096, -0.204393) |e|*Ang

Energy contributions relative to reference atoms: (reference = -12877860.274276)

Kinetic:       -228.792315
Potential:     +103.480073
External:        +0.000000
XC:            -105.213522
Entropy (-ST):   -2.267970
Local:           -6.855302
--------------------------
Free energy:   -239.649035
Extrapolated:  -238.515051

Fermi level: 0.96413

Showing only first 2 kpts
 Kpt  Band  Eigenvalues  Occupancy
  0   360      0.95895    0.12824
  0   361      0.98381    0.11274
  0   362      1.00603    0.09919
  0   363      1.01602    0.09328

  1   360      0.87494    0.17732
  1   361      0.88359    0.17279
  1   362      0.91356    0.15595
  1   363      0.95379    0.13146



Forces in eV/Ang:
  0 Pd   -0.12413    0.32457   -0.34922
  1 Ir    0.94905    0.68727    0.61031
  2 Ru   -1.07581    0.28975    0.68478
  3 Ru    0.42173    0.29426    1.61713
  4 Ir   -0.56050   -0.79613    1.16894
  5 Pt    0.15127    0.16475    0.05074
  6 Pd   -0.49730   -0.41629   -0.23998
  7 Pd    0.38383   -0.26280   -0.57718
  8 Ru    0.34081   -0.15029    0.55149
  9 Ag   -0.24428   -0.09538    0.05787
 10 Ag   -0.02387   -0.10534    0.05631
 11 Ag    0.07011   -0.17015   -0.15540
 12 Pt    0.08693    0.76419   -0.53461
 13 Pt    0.11420    0.56448   -0.71884
 14 Pt   -0.09468    0.20664   -0.17688
 15 Ru   -0.39132   -0.74561   -0.96415
 16 Pt   -0.41254    0.18427   -0.12080
 17 Ir    0.89709   -0.12372   -1.05708
 18 Pt   -0.00660   -0.00201   -0.02564
 19 Ag   -0.01782   -0.02515    0.01414
 20 Pd   -0.00125   -0.04305    0.01978
 21 Ag   -0.01047   -0.02180   -0.00326
 22 Ru   -0.01355   -0.02454    0.00581
 23 Pd   -0.02013   -0.03862    0.00387
 24 Ir   -0.02220   -0.01335    0.01316
 25 Ir    0.00361   -0.02636    0.00389
 26 Pt   -0.00636   -0.02832    0.00172
 27 Ir    0.07694    0.07162    0.11427
 28 Pd   -0.05400    0.03065    0.09215
 29 Ag    0.02380   -0.02628   -0.02064
 30 Pd   -0.03057   -0.09777    0.03906
 31 Pd   -0.00176   -0.02439   -0.00367
 32 Pd   -0.01089   -0.02326    0.01863
 33 Ru    0.01915    0.01078    0.02598
 34 Pd   -0.00146   -0.01684   -0.01165
 35 Ir    0.02871   -0.01680   -0.00608
 36 Ir   -0.02841   -0.06629   -0.11905
 37 Pt    0.05309    0.01260   -0.09927
 38 Ag    0.02236   -0.00571    0.01284
 39 Pd    0.00618    0.02722   -0.25963
 40 Pd   -0.01454   -0.01532   -0.01640
 41 Ir    0.03242   -0.03234   -0.07748
 42 Ag   -0.02563   -0.02562   -0.05362
 43 Ir   -0.01142    0.02628   -0.03695
 44 Ir    0.02177   -0.08807   -0.01216
 45 O    -0.15349   -0.30227    0.43132
 46 H     0.06385    0.08614   -0.17070

System changes: positions 

Initializing position-dependent things.

Density initialized from wave functions
                                             
                                             
                                             
                                             
                                             
                                             
              H                              
            O                                
                 Ag      Ir    Ir            
            Pd      Pd                       
                   Ru    PdIr   Ir           
       Ir    PPt    PAg    Pd                
                                             
        Ir     Pd    IAg    Ir     Pt        
                                             
                Ag     Ru     Pd             
           Pt    RAg    PPd    Ir            
                                             
            Pt     Pt    PPt    Ru           
       Ag     Ag     Ag                      
             Ru     Ir     Pt                
        Pd     Ir     Ru                     
                                             
                                             
                                             
                                             
                                             

Positions:
   0 Pd     0.000000    1.624086   10.000000    ( 0.0000,  0.0000,  0.0000)
   1 Ir     2.812999    1.624086   10.000000    ( 0.0000,  0.0000,  0.0000)
   2 Ru     5.625998    1.624086   10.000000    ( 0.0000,  0.0000,  0.0000)
   3 Ru     1.406500    4.060215   10.000000    ( 0.0000,  0.0000,  0.0000)
   4 Ir     4.219499    4.060215   10.000000    ( 0.0000,  0.0000,  0.0000)
   5 Pt     7.032498    4.060215   10.000000    ( 0.0000,  0.0000,  0.0000)
   6 Pd     2.812999    6.496343   10.000000    ( 0.0000,  0.0000,  0.0000)
   7 Pd     5.625998    6.496343   10.000000    ( 0.0000,  0.0000,  0.0000)
   8 Ru     8.438997    6.496343   10.000000    ( 0.0000,  0.0000,  0.0000)
   9 Ag     0.000000    0.000000   12.296804    ( 0.0000,  0.0000,  0.0000)
  10 Ag     2.812999    0.000000   12.296804    ( 0.0000,  0.0000,  0.0000)
  11 Ag     5.625998    0.000000   12.296804    ( 0.0000,  0.0000,  0.0000)
  12 Pt     1.406500    2.436129   12.296804    ( 0.0000,  0.0000,  0.0000)
  13 Pt     4.219499    2.436129   12.296804    ( 0.0000,  0.0000,  0.0000)
  14 Pt     7.032498    2.436129   12.296804    ( 0.0000,  0.0000,  0.0000)
  15 Ru     2.812999    4.872257   12.296804    ( 0.0000,  0.0000,  0.0000)
  16 Pt     5.625998    4.872257   12.296804    ( 0.0000,  0.0000,  0.0000)
  17 Ir     8.438997    4.872257   12.296804    ( 0.0000,  0.0000,  0.0000)
  18 Pt     1.329160    0.737375   14.656187    ( 0.0000,  0.0000,  0.0000)
  19 Ag     4.181065    0.786378   14.649734    ( 0.0000,  0.0000,  0.0000)
  20 Pd     6.994809    0.849145   14.619153    ( 0.0000,  0.0000,  0.0000)
  21 Ag     2.798213    3.195433   14.644955    ( 0.0000,  0.0000,  0.0000)
  22 Ru     5.659342    3.370692   14.464701    ( 0.0000,  0.0000,  0.0000)
  23 Pd     8.447788    3.201459   14.576172    ( 0.0000,  0.0000,  0.0000)
  24 Ir     4.198965    5.610031   14.570730    ( 0.0000,  0.0000,  0.0000)
  25 Ir     7.031997    5.571129   14.566991    ( 0.0000,  0.0000,  0.0000)
  26 Pt     9.856858    5.662316   14.597806    ( 0.0000,  0.0000,  0.0000)
  27 Ir    -0.046650    1.523944   16.947643    ( 0.0000,  0.0000,  0.0000)
  28 Pd     2.736903    1.593173   16.996481    ( 0.0000,  0.0000,  0.0000)
  29 Ag     5.534632    1.591639   16.917204    ( 0.0000,  0.0000,  0.0000)
  30 Pd     1.392004    4.013199   16.969615    ( 0.0000,  0.0000,  0.0000)
  31 Pd     4.188351    4.099493   16.893168    ( 0.0000,  0.0000,  0.0000)
  32 Pd     7.009003    3.966019   16.740050    ( 0.0000,  0.0000,  0.0000)
  33 Ru     2.847322    6.542397   16.764055    ( 0.0000,  0.0000,  0.0000)
  34 Pd     5.663772    6.451635   16.788719    ( 0.0000,  0.0000,  0.0000)
  35 Ir     8.553515    6.373181   16.922897    ( 0.0000,  0.0000,  0.0000)
  36 Ir     0.047236   -0.055145   18.959361    ( 0.0000,  0.0000,  0.0000)
  37 Pt     2.822396   -0.101913   19.124054    ( 0.0000,  0.0000,  0.0000)
  38 Ag     5.666729    0.011848   19.408396    ( 0.0000,  0.0000,  0.0000)
  39 Pd     1.365350    2.387736   19.366696    ( 0.0000,  0.0000,  0.0000)
  40 Pd     4.317445    2.516111   19.255077    ( 0.0000,  0.0000,  0.0000)
  41 Ir     7.153999    2.509354   19.010351    ( 0.0000,  0.0000,  0.0000)
  42 Ag     2.806615    4.893265   19.370404    ( 0.0000,  0.0000,  0.0000)
  43 Ir     5.699437    4.917137   19.035448    ( 0.0000,  0.0000,  0.0000)
  44 Ir     8.279376    4.840542   18.996357    ( 0.0000,  0.0000,  0.0000)
  45 O      1.346876    2.345035   21.403144    ( 0.0000,  0.0000,  0.0000)
  46 H      1.983319    3.013943   21.754535    ( 0.0000,  0.0000,  0.0000)

Unit cell:
           periodic     x           y           z      points  spacing
  1. axis:    yes    8.465341    0.000000    0.000000    35     0.2095
  2. axis:    yes    4.232670    7.331200    0.000000    35     0.2095
  3. axis:    no     0.000000    0.000000   29.187217   135     0.2162

  Lengths:   8.465341   8.465341  29.187217
  Angles:   90.000000  90.000000  60.000000

Effective grid spacing dv^(1/3) = 0.2221

                     log10-error:    total        iterations:
           time      wfs    density  energy       fermi  poisson
iter:   1  16:55:58  -2.94   +inf  -238.698232    3             
iter:   2  16:56:51  -3.02  -2.60  -242.494207    3             
iter:   3  16:57:51  -3.30  -1.85  -238.579992    3             
iter:   4  16:58:50  -4.09  -2.83  -238.630041    3             
iter:   5  16:59:51  -4.48  -2.75  -238.543810    3             
iter:   6  17:00:52  -5.24  -3.28  -238.541661    2             
iter:   7  17:01:52  -5.66  -3.47  -238.540364    2             
iter:   8  17:02:53  -5.29  -3.54  -238.540926    2             
iter:   9  17:03:54  -5.47  -3.32  -238.540592    2             
iter:  10  17:04:55  -5.54  -3.43  -238.542879    3             
iter:  11  17:05:56  -5.41  -3.49  -238.538465    3             
iter:  12  17:06:57  -6.19  -3.49  -238.538381    2             
iter:  13  17:07:58  -6.48  -3.77  -238.538297    2             
iter:  14  17:08:59  -6.61  -3.86  -238.538637    2             
iter:  15  17:10:00  -6.72  -3.87  -238.539052    2             
iter:  16  17:11:01  -6.44  -3.84  -238.539701    2             
iter:  17  17:12:03  -6.54  -3.85  -238.538196    2             
iter:  18  17:13:04  -6.27  -3.86  -238.539264    2             
iter:  19  17:14:04  -6.81  -4.04  -238.539019    2             
iter:  20  17:15:05  -7.34  -4.12  -238.538838    2             
iter:  21  17:16:05  -7.72  -4.36  -238.538696    2             

Converged after 21 iterations.

Dipole moment: (22.792277, 17.530958, -0.241478) |e|*Ang

Energy contributions relative to reference atoms: (reference = -12877860.274276)

Kinetic:       -228.410538
Potential:     +103.104589
External:        +0.000000
XC:            -105.232187
Entropy (-ST):   -2.266031
Local:           -6.867545
--------------------------
Free energy:   -239.671711
Extrapolated:  -238.538696

Fermi level: 0.94863

Showing only first 2 kpts
 Kpt  Band  Eigenvalues  Occupancy
  0   360      0.94432    0.12770
  0   361      0.97065    0.11130
  0   362      0.99066    0.09911
  0   363      1.00011    0.09352

  1   360      0.85977    0.17715
  1   361      0.86868    0.17247
  1   362      0.89624    0.15702
  1   363      0.93804    0.13161



Forces in eV/Ang:
  0 Pd   -0.12315    0.32418   -0.35233
  1 Ir    0.94778    0.68904    0.60490
  2 Ru   -1.07405    0.29096    0.68112
  3 Ru    0.42306    0.29369    1.60995
  4 Ir   -0.56110   -0.79461    1.16266
  5 Pt    0.15291    0.16651    0.04642
  6 Pd   -0.49582   -0.41706   -0.24227
  7 Pd    0.38240   -0.26173   -0.57960
  8 Ru    0.34066   -0.15272    0.55168
  9 Ag   -0.24665   -0.10051    0.05692
 10 Ag   -0.02332   -0.11011    0.05843
 11 Ag    0.06922   -0.17176   -0.15183
 12 Pt    0.08038    0.76429   -0.53681
 13 Pt    0.11336    0.55908   -0.71508
 14 Pt   -0.09712    0.19987   -0.17163
 15 Ru   -0.39048   -0.74633   -0.95995
 16 Pt   -0.41554    0.17860   -0.10787
 17 Ir    0.89360   -0.13076   -1.05543
 18 Pt    0.00042   -0.00357   -0.00431
 19 Ag   -0.02660   -0.01445    0.01252
 20 Pd    0.01847   -0.02204    0.01509
 21 Ag   -0.00907   -0.02405    0.00240
 22 Ru   -0.01063   -0.01271    0.00026
 23 Pd   -0.01301   -0.02226   -0.01553
 24 Ir   -0.01110   -0.01488   -0.00196
 25 Ir    0.00769   -0.02603   -0.00664
 26 Pt   -0.00641   -0.03043    0.00646
 27 Ir    0.01232    0.02763   -0.01968
 28 Pd    0.00790    0.02952    0.03337
 29 Ag   -0.00482   -0.03123   -0.01885
 30 Pd   -0.01753   -0.04946    0.02027
 31 Pd   -0.01552   -0.01546   -0.01267
 32 Pd   -0.02689   -0.00087   -0.02285
 33 Ru    0.00479   -0.02201    0.00482
 34 Pd    0.01131   -0.02181   -0.05698
 35 Ir    0.04137   -0.03144   -0.00082
 36 Ir    0.01626   -0.07114    0.01605
 37 Pt    0.04187   -0.00853   -0.03230
 38 Ag    0.01473   -0.00785    0.00617
 39 Pd   -0.07394   -0.06279    0.17058
 40 Pd    0.00390   -0.01362   -0.01312
 41 Ir    0.04468   -0.00920    0.02876
 42 Ag   -0.02009   -0.02752   -0.04783
 43 Ir   -0.01034    0.01722   -0.02891
 44 Ir    0.00334   -0.04400    0.02101
 45 O    -0.02241   -0.17427   -0.08164
 46 H    -0.01960    0.00176   -0.07673

System changes: positions 

Initializing position-dependent things.

Density initialized from wave functions
                                             
                                             
                                             
                                             
                                             
                                             
              H                              
            O                                
                 Ag      Ir    Ir            
            Pd      Pd                       
                   Ru    PdIr    Ir          
       Ir    PPt    PAg    Pd                
                                             
        Ir     Pd    IAg    Ir     Pt        
                Ag                           
                       Ru     Pd             
           Pt    RAg    PPd    Ir            
                                             
            Pt     Pt    PPt    Ru           
       Ag     Ag     Ag                      
             Ru     Ir     Pt                
        Pd     Ir     Ru                     
                                             
                                             
                                             
                                             
                                             

Positions:
   0 Pd     0.000000    1.624086   10.000000    ( 0.0000,  0.0000,  0.0000)
   1 Ir     2.812999    1.624086   10.000000    ( 0.0000,  0.0000,  0.0000)
   2 Ru     5.625998    1.624086   10.000000    ( 0.0000,  0.0000,  0.0000)
   3 Ru     1.406500    4.060215   10.000000    ( 0.0000,  0.0000,  0.0000)
   4 Ir     4.219499    4.060215   10.000000    ( 0.0000,  0.0000,  0.0000)
   5 Pt     7.032498    4.060215   10.000000    ( 0.0000,  0.0000,  0.0000)
   6 Pd     2.812999    6.496343   10.000000    ( 0.0000,  0.0000,  0.0000)
   7 Pd     5.625998    6.496343   10.000000    ( 0.0000,  0.0000,  0.0000)
   8 Ru     8.438997    6.496343   10.000000    ( 0.0000,  0.0000,  0.0000)
   9 Ag     0.000000    0.000000   12.296804    ( 0.0000,  0.0000,  0.0000)
  10 Ag     2.812999    0.000000   12.296804    ( 0.0000,  0.0000,  0.0000)
  11 Ag     5.625998    0.000000   12.296804    ( 0.0000,  0.0000,  0.0000)
  12 Pt     1.406500    2.436129   12.296804    ( 0.0000,  0.0000,  0.0000)
  13 Pt     4.219499    2.436129   12.296804    ( 0.0000,  0.0000,  0.0000)
  14 Pt     7.032498    2.436129   12.296804    ( 0.0000,  0.0000,  0.0000)
  15 Ru     2.812999    4.872257   12.296804    ( 0.0000,  0.0000,  0.0000)
  16 Pt     5.625998    4.872257   12.296804    ( 0.0000,  0.0000,  0.0000)
  17 Ir     8.438997    4.872257   12.296804    ( 0.0000,  0.0000,  0.0000)
  18 Pt     1.328624    0.736507   14.654314    ( 0.0000,  0.0000,  0.0000)
  19 Ag     4.176641    0.782230   14.652646    ( 0.0000,  0.0000,  0.0000)
  20 Pd     6.996275    0.842465   14.621924    ( 0.0000,  0.0000,  0.0000)
  21 Ag     2.796146    3.190830   14.644945    ( 0.0000,  0.0000,  0.0000)
  22 Ru     5.657050    3.367369   14.464954    ( 0.0000,  0.0000,  0.0000)
  23 Pd     8.444223    3.195710   14.575309    ( 0.0000,  0.0000,  0.0000)
  24 Ir     4.195914    5.606923   14.571320    ( 0.0000,  0.0000,  0.0000)
  25 Ir     7.033151    5.565457   14.567145    ( 0.0000,  0.0000,  0.0000)
  26 Pt     9.855587    5.656464   14.598853    ( 0.0000,  0.0000,  0.0000)
  27 Ir    -0.037055    1.533253   16.951444    ( 0.0000,  0.0000,  0.0000)
  28 Pd     2.734172    1.598366   17.005689    ( 0.0000,  0.0000,  0.0000)
  29 Ag     5.535478    1.585864   16.913696    ( 0.0000,  0.0000,  0.0000)
  30 Pd     1.386954    3.999850   16.973408    ( 0.0000,  0.0000,  0.0000)
  31 Pd     4.186671    4.095334   16.891457    ( 0.0000,  0.0000,  0.0000)
  32 Pd     7.005156    3.964420   16.738464    ( 0.0000,  0.0000,  0.0000)
  33 Ru     2.849141    6.540296   16.767384    ( 0.0000,  0.0000,  0.0000)
  34 Pd     5.665412    6.448157   16.779987    ( 0.0000,  0.0000,  0.0000)
  35 Ir     8.560305    6.367497   16.922949    ( 0.0000,  0.0000,  0.0000)
  36 Ir     0.045819   -0.071354   18.952407    ( 0.0000,  0.0000,  0.0000)
  37 Pt     2.833244   -0.103289   19.112478    ( 0.0000,  0.0000,  0.0000)
  38 Ag     5.670446    0.010366   19.410043    ( 0.0000,  0.0000,  0.0000)
  39 Pd     1.358155    2.382347   19.387520    ( 0.0000,  0.0000,  0.0000)
  40 Pd     4.317534    2.513318   19.252413    ( 0.0000,  0.0000,  0.0000)
  41 Ir     7.158165    2.505989   19.009114    ( 0.0000,  0.0000,  0.0000)
  42 Ag     2.802348    4.888442   19.360368    ( 0.0000,  0.0000,  0.0000)
  43 Ir     5.697563    4.921101   19.029298    ( 0.0000,  0.0000,  0.0000)
  44 Ir     8.280844    4.829597   18.997771    ( 0.0000,  0.0000,  0.0000)
  45 O      1.343736    2.311057   21.416638    ( 0.0000,  0.0000,  0.0000)
  46 H      1.974669    3.009619   21.724661    ( 0.0000,  0.0000,  0.0000)

Unit cell:
           periodic     x           y           z      points  spacing
  1. axis:    yes    8.465341    0.000000    0.000000    35     0.2095
  2. axis:    yes    4.232670    7.331200    0.000000    35     0.2095
  3. axis:    no     0.000000    0.000000   29.187217   135     0.2162

  Lengths:   8.465341   8.465341  29.187217
  Angles:   90.000000  90.000000  60.000000

Effective grid spacing dv^(1/3) = 0.2221

                     log10-error:    total        iterations:
           time      wfs    density  energy       fermi  poisson
iter:   1  17:17:35  -2.90   +inf  -238.794403    3             
iter:   2  17:18:36  -2.62  -2.46  -249.016746    2             
iter:   3  17:19:38  -2.91  -1.65  -238.575743    3             
iter:   4  17:20:27  -4.04  -2.95  -238.616444    3             
iter:   5  17:21:14  -4.62  -2.78  -238.554445    3             
iter:   6  17:22:02  -5.11  -3.34  -238.551752    3             
iter:   7  17:22:49  -5.44  -3.45  -238.551139    2             
iter:   8  17:23:36  -5.43  -3.54  -238.550092    2             
iter:   9  17:24:24  -5.33  -3.52  -238.552159    2             
iter:  10  17:25:11  -5.61  -3.45  -238.552768    3             
iter:  11  17:25:58  -5.66  -3.55  -238.549716    3             
iter:  12  17:26:45  -6.24  -3.51  -238.549916    2             
iter:  13  17:27:32  -6.65  -3.87  -238.549852    2             
iter:  14  17:28:20  -6.77  -3.96  -238.549890    2             
iter:  15  17:29:07  -6.61  -4.02  -238.550301    2             
iter:  16  17:29:54  -6.65  -3.92  -238.550451    2             
iter:  17  17:30:41  -6.48  -4.07  -238.549303    2             
iter:  18  17:31:28  -6.61  -3.77  -238.550198    2             
iter:  19  17:32:16  -7.14  -4.03  -238.550037    2             
iter:  20  17:33:12  -7.39  -4.31  -238.549994    2             
iter:  21  17:34:15  -7.60  -4.29  -238.549926    2             

Converged after 21 iterations.

Dipole moment: (21.972573, 18.086174, -0.258211) |e|*Ang

Energy contributions relative to reference atoms: (reference = -12877860.274276)

Kinetic:       -227.588277
Potential:     +102.357270
External:        +0.000000
XC:            -105.325206
Entropy (-ST):   -2.262522
Local:           -6.862452
--------------------------
Free energy:   -239.681187
Extrapolated:  -238.549926

Fermi level: 0.94341

Showing only first 2 kpts
 Kpt  Band  Eigenvalues  Occupancy
  0   360      0.93949    0.12745
  0   361      0.96646    0.11066
  0   362      0.98461    0.09961
  0   363      0.99592    0.09291

  1   360      0.85368    0.17760
  1   361      0.86280    0.17282
  1   362      0.88954    0.15787
  1   363      0.93351    0.13118



Forces in eV/Ang:
  0 Pd   -0.12289    0.32500   -0.35014
  1 Ir    0.94808    0.69057    0.60744
  2 Ru   -1.07387    0.29198    0.68316
  3 Ru    0.42448    0.29184    1.60657
  4 Ir   -0.56076   -0.79546    1.16652
  5 Pt    0.15476    0.16845    0.04929
  6 Pd   -0.49625   -0.41734   -0.23926
  7 Pd    0.38282   -0.26137   -0.57698
  8 Ru    0.34089   -0.15314    0.55594
  9 Ag   -0.24835   -0.10562    0.05590
 10 Ag   -0.02180   -0.11678    0.05926
 11 Ag    0.06795   -0.17144   -0.13438
 12 Pt    0.07753    0.76306   -0.54544
 13 Pt    0.11187    0.55097   -0.70886
 14 Pt   -0.10517    0.18797   -0.17099
 15 Ru   -0.38906   -0.75347   -0.95744
 16 Pt   -0.41992    0.17112   -0.09660
 17 Ir    0.89202   -0.13838   -1.05774
 18 Pt    0.00429   -0.00907    0.00804
 19 Ag   -0.00617   -0.01742    0.00492
 20 Pd    0.00025   -0.01783    0.00264
 21 Ag   -0.00796   -0.01198    0.00419
 22 Ru   -0.01360   -0.01289   -0.01566
 23 Pd   -0.00397   -0.00987   -0.01302
 24 Ir   -0.00458   -0.01683   -0.02039
 25 Ir    0.00810   -0.00586   -0.03406
 26 Pt    0.00191   -0.01622    0.00008
 27 Ir   -0.05561   -0.09338   -0.02315
 28 Pd    0.02853    0.00035   -0.00231
 29 Ag    0.01250   -0.01014    0.00499
 30 Pd   -0.01180   -0.01679   -0.00260
 31 Pd   -0.01588   -0.01813   -0.02408
 32 Pd   -0.02077   -0.01720    0.00109
 33 Ru    0.00281   -0.01903   -0.02357
 34 Pd    0.02190    0.00962   -0.04495
 35 Ir    0.02258   -0.04684    0.01761
 36 Ir    0.06127    0.00132    0.00740
 37 Pt    0.02191   -0.04235   -0.00107
 38 Ag    0.01644   -0.00612    0.00887
 39 Pd   -0.08255   -0.12302    0.09274
 40 Pd    0.01795   -0.00909   -0.01152
 41 Ir   -0.02110   -0.02065    0.02823
 42 Ag   -0.02894   -0.05512   -0.01446
 43 Ir    0.00590    0.00566   -0.00157
 44 Ir   -0.02610    0.02118    0.01824
 45 O     0.12361    0.02686   -0.08941
 46 H    -0.10388   -0.08509    0.02376

System changes: positions 

Initializing position-dependent things.

Density initialized from wave functions
                                             
                                             
                                             
                                             
                                             
                                             
              H                              
            O                                
                 Ag      Ir    Ir            
            Pd      Pd                       
                   Ru    PdIr    Ir          
       Ir    PPt    PAg    Pd                
                                             
        Ir     Pd    IAg    Ir     Pt        
                Ag                           
                       Ru     Pd             
           Pt    RAg    PPd    Ir            
                                             
            Pt     Pt    PPt    Ru           
       Ag     Ag     Ag                      
             Ru     Ir     Pt                
        Pd     Ir     Ru                     
                                             
                                             
                                             
                                             
                                             

Positions:
   0 Pd     0.000000    1.624086   10.000000    ( 0.0000,  0.0000,  0.0000)
   1 Ir     2.812999    1.624086   10.000000    ( 0.0000,  0.0000,  0.0000)
   2 Ru     5.625998    1.624086   10.000000    ( 0.0000,  0.0000,  0.0000)
   3 Ru     1.406500    4.060215   10.000000    ( 0.0000,  0.0000,  0.0000)
   4 Ir     4.219499    4.060215   10.000000    ( 0.0000,  0.0000,  0.0000)
   5 Pt     7.032498    4.060215   10.000000    ( 0.0000,  0.0000,  0.0000)
   6 Pd     2.812999    6.496343   10.000000    ( 0.0000,  0.0000,  0.0000)
   7 Pd     5.625998    6.496343   10.000000    ( 0.0000,  0.0000,  0.0000)
   8 Ru     8.438997    6.496343   10.000000    ( 0.0000,  0.0000,  0.0000)
   9 Ag     0.000000    0.000000   12.296804    ( 0.0000,  0.0000,  0.0000)
  10 Ag     2.812999    0.000000   12.296804    ( 0.0000,  0.0000,  0.0000)
  11 Ag     5.625998    0.000000   12.296804    ( 0.0000,  0.0000,  0.0000)
  12 Pt     1.406500    2.436129   12.296804    ( 0.0000,  0.0000,  0.0000)
  13 Pt     4.219499    2.436129   12.296804    ( 0.0000,  0.0000,  0.0000)
  14 Pt     7.032498    2.436129   12.296804    ( 0.0000,  0.0000,  0.0000)
  15 Ru     2.812999    4.872257   12.296804    ( 0.0000,  0.0000,  0.0000)
  16 Pt     5.625998    4.872257   12.296804    ( 0.0000,  0.0000,  0.0000)
  17 Ir     8.438997    4.872257   12.296804    ( 0.0000,  0.0000,  0.0000)
  18 Pt     1.328810    0.735241   14.654069    ( 0.0000,  0.0000,  0.0000)
  19 Ag     4.174425    0.778631   14.654262    ( 0.0000,  0.0000,  0.0000)
  20 Pd     6.996599    0.837693   14.623389    ( 0.0000,  0.0000,  0.0000)
  21 Ag     2.794490    3.187791   14.645345    ( 0.0000,  0.0000,  0.0000)
[...]
  18 Pt     1.320384    0.663906   14.682471    ( 0.0000,  0.0000,  0.0000)
  19 Ag     4.173870    0.710791   14.665145    ( 0.0000,  0.0000,  0.0000)
  20 Pd     6.996025    0.776137   14.640187    ( 0.0000,  0.0000,  0.0000)
  21 Ag     2.788075    3.113978   14.651127    ( 0.0000,  0.0000,  0.0000)
  22 Ru     5.647532    3.316863   14.454558    ( 0.0000,  0.0000,  0.0000)
  23 Pd     8.440491    3.124009   14.569928    ( 0.0000,  0.0000,  0.0000)
  24 Ir     4.181476    5.542013   14.564646    ( 0.0000,  0.0000,  0.0000)
  25 Ir     7.049796    5.491852   14.566163    ( 0.0000,  0.0000,  0.0000)
  26 Pt     9.851136    5.582397   14.597013    ( 0.0000,  0.0000,  0.0000)
  27 Ir    -0.063028    1.375566   17.029707    ( 0.0000,  0.0000,  0.0000)
  28 Pd     2.730636    1.466992   17.024193    ( 0.0000,  0.0000,  0.0000)
  29 Ag     5.523284    1.460937   16.936242    ( 0.0000,  0.0000,  0.0000)
  30 Pd     1.360376    3.828426   16.985859    ( 0.0000,  0.0000,  0.0000)
  31 Pd     4.176699    3.969599   16.886611    ( 0.0000,  0.0000,  0.0000)
  32 Pd     7.000118    3.838548   16.736784    ( 0.0000,  0.0000,  0.0000)
  33 Ru     2.843082    6.413751   16.769457    ( 0.0000,  0.0000,  0.0000)
  34 Pd     5.679362    6.322610   16.767919    ( 0.0000,  0.0000,  0.0000)
  35 Ir     8.589029    6.226124   16.943288    ( 0.0000,  0.0000,  0.0000)
  36 Ir     0.046633   -0.353782   18.955095    ( 0.0000,  0.0000,  0.0000)
  37 Pt     2.868080   -0.263188   19.113035    ( 0.0000,  0.0000,  0.0000)
  38 Ag     5.716429   -0.154228   19.449036    ( 0.0000,  0.0000,  0.0000)
  39 Pd     1.224491    2.099540   19.413760    ( 0.0000,  0.0000,  0.0000)
  40 Pd     4.304791    2.312790   19.300992    ( 0.0000,  0.0000,  0.0000)
  41 Ir     7.068474    2.425044   19.045251    ( 0.0000,  0.0000,  0.0000)
  42 Ag     2.740850    4.641349   19.376119    ( 0.0000,  0.0000,  0.0000)
  43 Ir     5.682814    4.766065   19.025324    ( 0.0000,  0.0000,  0.0000)
  44 Ir     8.276395    4.683998   19.011277    ( 0.0000,  0.0000,  0.0000)
  45 O      1.617746    1.881743   21.391312    ( 0.0000,  0.0000,  0.0000)
  46 H      1.601626    2.780382   21.792736    ( 0.0000,  0.0000,  0.0000)

Unit cell:
           periodic     x           y           z      points  spacing
  1. axis:    yes    8.465341    0.000000    0.000000    35     0.2095
  2. axis:    yes    4.232670    7.331200    0.000000    35     0.2095
  3. axis:    no     0.000000    0.000000   29.187217   135     0.2162

  Lengths:   8.465341   8.465341  29.187217
  Angles:   90.000000  90.000000  60.000000

Effective grid spacing dv^(1/3) = 0.2221

                     log10-error:    total        iterations:
           time      wfs    density  energy       fermi  poisson
iter:   1  04:15:56  -4.40   +inf  -238.740641    2             
iter:   2  04:16:49  -3.01  -2.69  -243.559829    3             
iter:   3  04:17:43  -3.29  -1.81  -238.667646    3             
iter:   4  04:18:37  -4.56  -3.23  -238.656706    3             
iter:   5  04:19:30  -5.62  -3.58  -238.656224    2             
iter:   6  04:20:23  -6.35  -4.08  -238.656067    2             
iter:   7  04:21:17  -6.69  -4.08  -238.656072    2             
iter:   8  04:22:10  -6.93  -4.31  -238.656072    2             
iter:   9  04:23:04  -7.01  -4.34  -238.656273    2             
iter:  10  04:23:56  -7.19  -4.31  -238.655828    2             
iter:  11  04:24:51  -7.26  -4.24  -238.656180    2             
iter:  12  04:25:44  -7.67  -4.56  -238.656035    2             

Converged after 12 iterations.

Dipole moment: (20.333481, 28.524156, -0.205233) |e|*Ang

Energy contributions relative to reference atoms: (reference = -12877860.274276)

Kinetic:       -224.503081
Potential:      +99.511415
External:        +0.000000
XC:            -105.654775
Entropy (-ST):   -2.247733
Local:           -6.885727
--------------------------
Free energy:   -239.779901
Extrapolated:  -238.656035

Fermi level: 0.96643

Showing only first 2 kpts
 Kpt  Band  Eigenvalues  Occupancy
  0   360      0.94601    0.13772
  0   361      0.99206    0.10907
  0   362      1.00836    0.09917
  0   363      1.02075    0.09186

  1   360      0.87144    0.18028
  1   361      0.89180    0.16960
  1   362      0.92173    0.15248
  1   363      0.95526    0.13198



Forces in eV/Ang:
  0 Pd   -0.12583    0.32989   -0.35259
  1 Ir    0.94461    0.70337    0.60078
  2 Ru   -1.06714    0.30262    0.67008
  3 Ru    0.42180    0.26999    1.57123
  4 Ir   -0.56173   -0.79585    1.15469
  5 Pt    0.16254    0.17458    0.03727
  6 Pd   -0.49860   -0.41869   -0.22579
  7 Pd    0.38508   -0.25802   -0.56942
  8 Ru    0.33757   -0.17889    0.58737
  9 Ag   -0.23124   -0.12541    0.12114
 10 Ag   -0.05371   -0.14793    0.13462
 11 Ag    0.06956   -0.20163   -0.08339
 12 Pt    0.09114    0.66956   -0.60528
 13 Pt    0.07783    0.45828   -0.71969
 14 Pt   -0.10564    0.04969   -0.19800
 15 Ru   -0.36428   -0.81804   -0.94252
 16 Pt   -0.41784    0.08096   -0.06798
 17 Ir    0.89034   -0.21375   -1.06687
 18 Pt    0.00346   -0.00456   -0.02671
 19 Ag   -0.00037   -0.01145   -0.00464
 20 Pd   -0.02202   -0.00179   -0.01403
 21 Ag    0.00796   -0.00586   -0.00863
 22 Ru   -0.01430   -0.00135   -0.00389
 23 Pd   -0.00659    0.00715    0.00077
 24 Ir    0.00647   -0.01373   -0.01796
 25 Ir   -0.01512   -0.00014    0.00660
 26 Pt   -0.00113    0.00503   -0.00182
 27 Ir   -0.00285    0.01790    0.03947
 28 Pd    0.00227    0.00658   -0.00199
 29 Ag    0.00859   -0.01868   -0.00772
 30 Pd   -0.00821    0.01244   -0.00608
 31 Pd   -0.01146   -0.00441   -0.00056
 32 Pd    0.00147   -0.00288   -0.02609
 33 Ru   -0.03526    0.00703    0.00017
 34 Pd    0.01281   -0.01087    0.00842
 35 Ir    0.00725    0.01783    0.00525
 36 Ir   -0.00665    0.00531    0.01922
 37 Pt   -0.02231    0.00458   -0.00284
 38 Ag   -0.01054   -0.01193   -0.00774
 39 Pd    0.00771    0.00636   -0.04554
 40 Pd   -0.01247   -0.00305   -0.01226
 41 Ir    0.03908   -0.03460   -0.01430
 42 Ag   -0.01135    0.01585   -0.00797
 43 Ir   -0.01530    0.00371    0.00641
 44 Ir    0.04008   -0.00085   -0.00570
 45 O    -0.01993   -0.12250   -0.04598
 46 H    -0.05598    0.16295    0.09312

System changes: positions 

Initializing position-dependent things.

Density initialized from wave functions
                                             
                                             
                                             
                                             
                                             
                                             
             H                               
             O                               
                 Ag      Ir    Ir            
            Pd      Pd                       
                   Ru     Ir     Ir          
             PPt    PAg                      
       Ir                  Pd                
        Ir     Pd    IAg    Ir     Pt        
                Ag                           
                       Ru     Pd             
           Pt     Ag    PPd    Ir            
                                             
             Pt    Pt    PPt    Ru           
        Ag    Ag    IAg    Pt                
                                             
         Pd    Ir     Ru                     
                                             
                                             
                                             
                                             
                                             

Positions:
   0 Pd     0.000000    1.624086   10.000000    ( 0.0000,  0.0000,  0.0000)
   1 Ir     2.812999    1.624086   10.000000    ( 0.0000,  0.0000,  0.0000)
   2 Ru     5.625998    1.624086   10.000000    ( 0.0000,  0.0000,  0.0000)
   3 Ru     1.406500    4.060215   10.000000    ( 0.0000,  0.0000,  0.0000)
   4 Ir     4.219499    4.060215   10.000000    ( 0.0000,  0.0000,  0.0000)
   5 Pt     7.032498    4.060215   10.000000    ( 0.0000,  0.0000,  0.0000)
   6 Pd     2.812999    6.496343   10.000000    ( 0.0000,  0.0000,  0.0000)
   7 Pd     5.625998    6.496343   10.000000    ( 0.0000,  0.0000,  0.0000)
   8 Ru     8.438997    6.496343   10.000000    ( 0.0000,  0.0000,  0.0000)
   9 Ag     0.000000    0.000000   12.296804    ( 0.0000,  0.0000,  0.0000)
  10 Ag     2.812999    0.000000   12.296804    ( 0.0000,  0.0000,  0.0000)
  11 Ag     5.625998    0.000000   12.296804    ( 0.0000,  0.0000,  0.0000)
  12 Pt     1.406500    2.436129   12.296804    ( 0.0000,  0.0000,  0.0000)
  13 Pt     4.219499    2.436129   12.296804    ( 0.0000,  0.0000,  0.0000)
  14 Pt     7.032498    2.436129   12.296804    ( 0.0000,  0.0000,  0.0000)
  15 Ru     2.812999    4.872257   12.296804    ( 0.0000,  0.0000,  0.0000)
  16 Pt     5.625998    4.872257   12.296804    ( 0.0000,  0.0000,  0.0000)
  17 Ir     8.438997    4.872257   12.296804    ( 0.0000,  0.0000,  0.0000)
  18 Pt     1.320175    0.663558   14.681883    ( 0.0000,  0.0000,  0.0000)
  19 Ag     4.173796    0.710201   14.664459    ( 0.0000,  0.0000,  0.0000)
  20 Pd     6.994099    0.776763   14.639338    ( 0.0000,  0.0000,  0.0000)
  21 Ag     2.789396    3.113806   14.650215    ( 0.0000,  0.0000,  0.0000)
  22 Ru     5.646806    3.316951   14.454675    ( 0.0000,  0.0000,  0.0000)
  23 Pd     8.440063    3.126074   14.569465    ( 0.0000,  0.0000,  0.0000)
  24 Ir     4.181385    5.542359   14.564356    ( 0.0000,  0.0000,  0.0000)
  25 Ir     7.046515    5.492458   14.566535    ( 0.0000,  0.0000,  0.0000)
  26 Pt     9.851688    5.584312   14.597050    ( 0.0000,  0.0000,  0.0000)
  27 Ir    -0.061974    1.377389   17.030384    ( 0.0000,  0.0000,  0.0000)
  28 Pd     2.731561    1.468973   17.022836    ( 0.0000,  0.0000,  0.0000)
  29 Ag     5.524112    1.462267   16.935250    ( 0.0000,  0.0000,  0.0000)
  30 Pd     1.359876    3.832486   16.983196    ( 0.0000,  0.0000,  0.0000)
  31 Pd     4.175931    3.970192   16.887440    ( 0.0000,  0.0000,  0.0000)
  32 Pd     7.000121    3.839538   16.734433    ( 0.0000,  0.0000,  0.0000)
  33 Ru     2.841029    6.416007   16.770760    ( 0.0000,  0.0000,  0.0000)
  34 Pd     5.678513    6.322859   16.769786    ( 0.0000,  0.0000,  0.0000)
  35 Ir     8.588901    6.229929   16.944447    ( 0.0000,  0.0000,  0.0000)
  36 Ir     0.047501   -0.350328   18.957026    ( 0.0000,  0.0000,  0.0000)
  37 Pt     2.865579   -0.261460   19.112783    ( 0.0000,  0.0000,  0.0000)
  38 Ag     5.713580   -0.153887   19.448590    ( 0.0000,  0.0000,  0.0000)
  39 Pd     1.228828    2.102804   19.410691    ( 0.0000,  0.0000,  0.0000)
  40 Pd     4.302777    2.313663   19.298497    ( 0.0000,  0.0000,  0.0000)
  41 Ir     7.070146    2.424528   19.045035    ( 0.0000,  0.0000,  0.0000)
  42 Ag     2.739743    4.645512   19.375228    ( 0.0000,  0.0000,  0.0000)
  43 Ir     5.682762    4.766556   19.026026    ( 0.0000,  0.0000,  0.0000)
  44 Ir     8.281736    4.687789   19.010474    ( 0.0000,  0.0000,  0.0000)
  45 O      1.614461    1.887783   21.391505    ( 0.0000,  0.0000,  0.0000)
  46 H      1.598925    2.789194   21.797196    ( 0.0000,  0.0000,  0.0000)

Unit cell:
           periodic     x           y           z      points  spacing
  1. axis:    yes    8.465341    0.000000    0.000000    35     0.2095
  2. axis:    yes    4.232670    7.331200    0.000000    35     0.2095
  3. axis:    no     0.000000    0.000000   29.187217   135     0.2162

  Lengths:   8.465341   8.465341  29.187217
  Angles:   90.000000  90.000000  60.000000

Effective grid spacing dv^(1/3) = 0.2221

                     log10-error:    total        iterations:
           time      wfs    density  energy       fermi  poisson
iter:   1  04:27:02  -3.86   +inf  -238.724389    2             
iter:   2  04:27:56  -3.11  -2.72  -242.593473    3             
iter:   3  04:28:49  -3.37  -1.86  -238.659510    3             
iter:   4  04:29:43  -4.72  -3.48  -238.663348    3             
iter:   5  04:30:37  -5.47  -3.40  -238.657563    3             
iter:   6  04:31:30  -6.13  -3.80  -238.658089    2             
iter:   7  04:32:24  -6.07  -3.82  -238.657615    2             
iter:   8  04:33:17  -5.97  -3.89  -238.657196    2             
iter:   9  04:34:13  -6.69  -3.86  -238.657240    2             
iter:  10  04:35:07  -6.92  -4.19  -238.657323    2             
iter:  11  04:36:00  -6.95  -4.24  -238.656992    2             
iter:  12  04:36:54  -7.18  -4.16  -238.657407    2             
iter:  13  04:37:45  -7.45  -4.35  -238.657269    2             

Converged after 13 iterations.

Dipole moment: (20.317801, 28.525132, -0.206230) |e|*Ang

Energy contributions relative to reference atoms: (reference = -12877860.274276)

Kinetic:       -225.044292
Potential:      +99.976352
External:        +0.000000
XC:            -105.551437
Entropy (-ST):   -2.248540
Local:           -6.913621
--------------------------
Free energy:   -239.781539
Extrapolated:  -238.657269

Fermi level: 0.96608

Showing only first 2 kpts
 Kpt  Band  Eigenvalues  Occupancy
  0   360      0.94547    0.13783
  0   361      0.99184    0.10899
  0   362      1.00806    0.09914
  0   363      1.02085    0.09160

  1   360      0.87136    0.18014
  1   361      0.89198    0.16930
  1   362      0.92106    0.15267
  1   363      0.95477    0.13206



Forces in eV/Ang:
  0 Pd   -0.12529    0.32972   -0.35153
  1 Ir    0.94386    0.70374    0.60202
  2 Ru   -1.06724    0.30293    0.67195
  3 Ru    0.42195    0.26965    1.57202
  4 Ir   -0.56110   -0.79426    1.15611
  5 Pt    0.16157    0.17438    0.03841
  6 Pd   -0.49677   -0.41922   -0.22689
  7 Pd    0.38417   -0.25862   -0.56891
  8 Ru    0.33708   -0.17828    0.58676
  9 Ag   -0.23360   -0.12316    0.11862
 10 Ag   -0.05363   -0.14797    0.12990
 11 Ag    0.06936   -0.20314   -0.09000
 12 Pt    0.08904    0.67117   -0.60271
 13 Pt    0.07794    0.45939   -0.72875
 14 Pt   -0.10482    0.05285   -0.19786
 15 Ru   -0.36972   -0.81835   -0.94159
 16 Pt   -0.41889    0.07760   -0.07734
 17 Ir    0.88825   -0.21127   -1.05645
 18 Pt   -0.01529    0.01138   -0.00034
 19 Ag   -0.01085   -0.01197   -0.00418
 20 Pd    0.02382    0.00162    0.00274
 21 Ag   -0.01402    0.00072   -0.00000
 22 Ru   -0.00479   -0.00742   -0.00771
 23 Pd    0.00538   -0.01009    0.00410
 24 Ir   -0.00827    0.00087    0.00678
 25 Ir    0.02156    0.00281    0.00520
 26 Pt   -0.01659   -0.01977    0.00065
 27 Ir   -0.00046    0.00071   -0.00100
 28 Pd   -0.01739    0.00053   -0.00832
 29 Ag    0.01212    0.00328   -0.00048
 30 Pd   -0.00523   -0.01836   -0.02246
 31 Pd   -0.00435    0.01260   -0.00081
 32 Pd    0.00493    0.00359    0.03919
 33 Ru    0.02083    0.00009   -0.01473
 34 Pd   -0.00411    0.00048   -0.00401
 35 Ir   -0.02367   -0.00771   -0.02584
 36 Ir   -0.01446   -0.00795   -0.00443
 37 Pt   -0.01463   -0.01920    0.00052
 38 Ag    0.00010    0.01385    0.00265
 39 Pd    0.00057    0.02267    0.00127
 40 Pd    0.00964    0.01707    0.00501
 41 Ir    0.02937    0.04089   -0.01130
 42 Ag    0.01760   -0.00400    0.00325
 43 Ir    0.04155   -0.02091   -0.00350
 44 Ir   -0.08466   -0.05179   -0.00185
 45 O    -0.01005    0.01677    0.01934
 46 H    -0.06853    0.00374    0.01234

Timing:                                      incl.     excl.
-------------------------------------------------------------------
Density initialized from wave functions:   126.642   126.640   0.2% |
 Symmetrize density:                         0.002     0.002   0.0% |
Forces:                                    677.371   677.371   1.3% ||
Hamiltonian:                               103.851     0.381   0.0% |
 Atomic:                                    20.909     9.227   0.0% |
  XC Correction:                            11.682    11.682   0.0% |
 Calculate atomic Hamiltonians:             46.880    46.880   0.1% |
 Communicate:                                0.021     0.021   0.0% |
 Initialize Hamiltonian:                     0.001     0.001   0.0% |
 Poisson:                                    0.253     0.253   0.0% |
 XC 3D grid:                                35.406    35.406   0.1% |
LCAO initialization:                        55.040     3.759   0.0% |
 LCAO eigensolver:                           5.623     0.003   0.0% |
  Calculate projections:                     0.068     0.068   0.0% |
  DenseAtomicCorrection:                     0.057     0.057   0.0% |
  Distribute overlap matrix:                 0.024     0.024   0.0% |
  Orbital Layouts:                           0.395     0.395   0.0% |
  Potential matrix:                          5.009     5.009   0.0% |
  Sum over cells:                            0.067     0.067   0.0% |
 LCAO to grid:                              44.015    44.015   0.1% |
 Set positions (LCAO WFS):                   1.643     0.486   0.0% |
  Basic WFS set positions:                   0.002     0.002   0.0% |
  Basis functions set positions:             0.000     0.000   0.0% |
  P tci:                                     0.555     0.555   0.0% |
  ST tci:                                    0.452     0.452   0.0% |
  mktci:                                     0.149     0.149   0.0% |
PWDescriptor:                                0.039     0.039   0.0% |
Redistribute:                                0.339     0.339   0.0% |
SCF-cycle:                               50825.689   539.309   1.0% |
 Davidson:                               45701.322 10501.576  20.2% |-------|
  Apply H:                                7674.948  7388.891  14.2% |-----|
   HMM T:                                  286.056   286.056   0.5% |
  Subspace diag:                          6662.581     0.236   0.0% |
   calc_h_matrix:                         3831.713  1260.000   2.4% ||
    Apply H:                              2571.713  2476.016   4.8% |-|
     HMM T:                                 95.697    95.697   0.2% |
   diagonalize:                            100.320   100.320   0.2% |
   rotate_psi:                            2730.311  2730.311   5.2% |-|
  calc. matrices:                        13660.572  8529.831  16.4% |------|
   Apply H:                               5130.742  4939.950   9.5% |---|
    HMM T:                                 190.792   190.792   0.4% |
  diagonalize:                            1759.402  1759.402   3.4% ||
  rotate_psi:                             5442.243  5442.243  10.5% |---|
 Density:                                 2398.754     0.044   0.0% |
  Atomic density matrices:                  11.737    11.737   0.0% |
  Mix:                                    1032.576  1032.576   2.0% ||
  Multipole moments:                         0.826     0.826   0.0% |
  Pseudo density:                         1353.570  1353.524   2.6% ||
   Symmetrize density:                       0.046     0.046   0.0% |
 Hamiltonian:                             1957.928     7.256   0.0% |
  Atomic:                                  427.432   206.586   0.4% |
   XC Correction:                          220.845   220.845   0.4% |
  Calculate atomic Hamiltonians:           853.556   853.556   1.6% ||
  Communicate:                               0.342     0.342   0.0% |
  Poisson:                                   4.814     4.814   0.0% |
  XC 3D grid:                              664.528   664.528   1.3% ||
 Orthonormalize:                           228.377     0.019   0.0% |
  calc_s_matrix:                            32.648    32.648   0.1% |
  inverse-cholesky:                          2.670     2.670   0.0% |
  projections:                             122.988   122.988   0.2% |
  rotate_psi_s:                             70.052    70.052   0.1% |
Set symmetry:                                0.001     0.001   0.0% |
Other:                                     268.592   268.592   0.5% |
-------------------------------------------------------------------
Total:                                             52057.565 100.0%

Date: Fri Mar  4 04:38:00 2022
