
  ___ ___ ___ _ _ _  
 |   |   |_  | | | | 
 | | | | | . | | | | 
 |__ |  _|___|_____|  1.5.1
 |___|_|             

User:   clausen@node033.cluster
Date:   Thu Mar  3 20:03:22 2022
Arch:   x86_64
Pid:    7584
Python: 3.6.12
gpaw:   /software/kemi/gpaw/1.5.1/gpaw
_gpaw:  /software/kemi/gpaw/1.5.1/bin/gpaw-python
ase:    /software/kemi/ase/3.17.0/ase (version 3.17.0)
numpy:  /opt/rh/rh-python36/root/usr/lib64/python3.6/site-packages/numpy (version 1.13.1)
scipy:  /opt/rh/rh-python36/root/usr/lib64/python3.6/site-packages/scipy (version 0.19.1)
units:  Angstrom and eV
cores:  16

Input parameters:
  kpts: [4 4 1]
  mode: {ecut: 400.0,
         gammacentered: False,
         name: pw}
  xc: RPBE

System changes: positions, numbers, cell, pbc, initial_charges, initial_magmoms 

Initialize ...

Ag-setup:
  name: Silver
  id: c05e55bab2c3858b3f9398f6d75cb77c
  Z: 47
  valence: 17
  core: 30
  charge: 0.0
  file: /software/kemi/gpaw-setups/0.9.20000/Ag.RPBE.gz
  cutoffs: 1.25(comp), 2.35(filt), 2.19(core), lmax=2
  valence states:
                energy  radius
    5s(1.00)    -4.277   1.286
    4p(6.00)   -58.523   1.328
    5p(0.00)    -0.755   1.328
    4d(10.00)    -7.386   1.180
    *s          22.934   1.286
    *d          19.826   1.180

  Using partial waves for Ag as LCAO basis

Ir-setup:
  name: Iridium
  id: 73b603359d1d5397a85ae3c2440f9033
  Z: 77
  valence: 15
  core: 62
  charge: 0.0
  file: /software/kemi/gpaw-setups/0.9.20000/Ir.RPBE.gz
  cutoffs: 1.26(comp), 2.40(filt), 2.36(core), lmax=2
  valence states:
                energy  radius
    6s(2.00)    -6.219   1.296
    5p(6.00)   -54.684   1.328
    6p(0.00)    -1.215   1.328
    5d(7.00)    -7.118   1.286
    *s          20.992   1.296
    *d          20.093   1.286

  Using partial waves for Ir as LCAO basis

Pt-setup:
  name: Platinum
  id: f04f522592575c47ad794f6b4a415b4b
  Z: 78
  valence: 16
  core: 62
  charge: 0.0
  file: /software/kemi/gpaw-setups/0.9.20000/Pt.RPBE.gz
  cutoffs: 1.29(comp), 2.26(filt), 2.26(core), lmax=2
  valence states:
                energy  radius
    6s(1.00)    -5.516   1.307
    5p(6.00)   -55.971   1.371
    6p(0.00)    -0.856   1.371
    5d(9.00)    -6.087   1.307
    *s          21.695   1.307
    *d          21.125   1.307

  Using partial waves for Pt as LCAO basis

Ru-setup:
  name: Ruthenium
  id: 76477906e28f51dc1b29884d53556fe9
  Z: 44
  valence: 16
  core: 28
  charge: 0.0
  file: /software/kemi/gpaw-setups/0.9.20000/Ru.RPBE.gz
  cutoffs: 1.23(comp), 2.16(filt), 1.30(core), lmax=2
  valence states:
                energy  radius
    4s(2.00)   -76.255   1.281
    5s(1.00)    -4.126   1.281
    4p(6.00)   -46.371   1.286
    5p(0.00)    -0.913   1.286
    4d(7.00)    -5.146   1.254
    *d          22.066   1.254

  Using partial waves for Ru as LCAO basis

O-setup:
  name: Oxygen
  id: 08071ca1eed670e7821b24b7eb4d558c
  Z: 8
  valence: 6
  core: 2
  charge: 0.0
  file: /software/kemi/gpaw-setups/0.9.20000/O.RPBE.gz
  cutoffs: 0.67(comp), 1.17(filt), 0.83(core), lmax=2
  valence states:
                energy  radius
    2s(2.00)   -24.041   0.688
    2p(4.00)    -8.984   0.598
    *s           3.170   0.688
    *p          18.228   0.598
    *d           0.000   0.619

  Using partial waves for O as LCAO basis

Reference energy: -16429278.754816

Spin-paired calculation

Occupation numbers:
  Fermi-Dirac: width=0.1000 eV

Convergence criteria:
  Maximum total energy change: 0.0005 eV / electron
  Maximum integral of absolute density change: 0.0001 electrons
  Maximum integral of absolute eigenstate change: 4e-08 eV^2
  Maximum number of iterations: 333

Symmetries present (total): 1

  ( 1  0  0)
  ( 0  1  0)
  ( 0  0  1)

16 k-points: 4 x 4 x 1 Monkhorst-Pack grid
8 k-points in the irreducible part of the Brillouin zone
       k-points in crystal coordinates                weights
   0:     0.12500000   -0.37500000    0.00000000          2/16
   1:     0.12500000   -0.12500000    0.00000000          2/16
   2:     0.12500000    0.12500000    0.00000000          2/16
   3:     0.12500000    0.37500000    0.00000000          2/16
   4:     0.37500000   -0.37500000    0.00000000          2/16
   5:     0.37500000   -0.12500000    0.00000000          2/16
   6:     0.37500000    0.12500000    0.00000000          2/16
   7:     0.37500000    0.37500000    0.00000000          2/16

Wave functions: Plane wave expansion
  Cutoff energy: 400.000 eV
  Number of coefficients (min, max): 32722, 32776
  Pulay-stress correction: 0.000000 eV/Ang^3 (de/decut=0.000000)
  Using FFTW library
  ScaLapack parameters: grid=1x1, blocksize=None
  Wavefunction extrapolation:
    Improved wavefunction reuse through dual PAW basis 

Eigensolver
   Davidson(niter=2, smin=None, normalize=True) 

Densities:
  Coarse grid: 35*35*135 grid
  Fine grid: 70*70*270 grid
  Total Charge: 0.000000 

Density mixing:
  Method: separate
  Backend: pulay
  Linear mixing parameter: 0.05
  Mixing with 5 old densities
  Damping of long wave oscillations: 50 

Hamiltonian:
  XC and Coulomb potentials evaluated on a 70*70*270 grid
  Using the RPBE Exchange-Correlation functional
 

XC parameters: RPBE with 2 nearest neighbor stencil

Memory estimate:
  Process memory now: 151.09 MiB
  Calculator: 540.22 MiB
    Density: 48.12 MiB
      Arrays: 16.41 MiB
      Localized functions: 25.35 MiB
      Mixer: 6.36 MiB
    Hamiltonian: 11.50 MiB
      Arrays: 10.73 MiB
      XC: 0.00 MiB
      Poisson: 0.00 MiB
      vbar: 0.77 MiB
    Wavefunctions: 480.60 MiB
      Arrays psit_nG: 217.55 MiB
      Eigensolver: 248.94 MiB
      Projections: 2.73 MiB
      Projectors: 4.75 MiB
      PW-descriptor: 6.62 MiB

Total number of cores used: 16
Parallelization over k-points: 8
Domain decomposition: 1 x 1 x 2

Number of atoms: 46
Number of atomic orbitals: 547
Number of bands in calculation: 435
Bands to converge: occupied states only
Number of valence electrons: 718

... initialized

Initializing position-dependent things.

Density initialized from atomic densities
Creating initial wave functions:
  435 bands from LCAO basis set

                                             
                                             
                                             
                                             
                                             
                                             
                              OAg            
                  Ir    Ir                   
            Ag                               
                  AIr     Pt    Ru           
       Ir    IIr    IPt    Pt                
                                             
         Ru    Ir    PIr    Ag     Ir        
                Ag     Ag     Ag             
                                             
           Ir    PPt    RPt    Ir            
                                             
            Ir    IAg    AAg    Pt           
       Ag     Ir     Ir                      
             Ir     Ir     Ir                
        Ag     Ag     Ir                     
                                             
                                             
                                             
                                             
                                             

Positions:
   0 Ag     0.000000    1.621936   10.000000    ( 0.0000,  0.0000,  0.0000)
   1 Ag     2.809275    1.621936   10.000000    ( 0.0000,  0.0000,  0.0000)
   2 Ir     5.618550    1.621936   10.000000    ( 0.0000,  0.0000,  0.0000)
   3 Ir     1.404638    4.054840   10.000000    ( 0.0000,  0.0000,  0.0000)
   4 Ir     4.213913    4.054840   10.000000    ( 0.0000,  0.0000,  0.0000)
   5 Ir     7.023188    4.054840   10.000000    ( 0.0000,  0.0000,  0.0000)
   6 Ir     2.809275    6.487743   10.000000    ( 0.0000,  0.0000,  0.0000)
   7 Ag     5.618550    6.487743   10.000000    ( 0.0000,  0.0000,  0.0000)
   8 Pt     8.427826    6.487743   10.000000    ( 0.0000,  0.0000,  0.0000)
   9 Ag     0.000000    0.000000   12.293764    ( 0.0000,  0.0000,  0.0000)
  10 Ir     2.809275    0.000000   12.293764    ( 0.0000,  0.0000,  0.0000)
  11 Ir     5.618550    0.000000   12.293764    ( 0.0000,  0.0000,  0.0000)
  12 Ir     1.404638    2.432904   12.293764    ( 0.0000,  0.0000,  0.0000)
  13 Ag     4.213913    2.432904   12.293764    ( 0.0000,  0.0000,  0.0000)
  14 Ag     7.023188    2.432904   12.293764    ( 0.0000,  0.0000,  0.0000)
  15 Pt     2.809275    4.865807   12.293764    ( 0.0000,  0.0000,  0.0000)
  16 Ru     5.618550    4.865807   12.293764    ( 0.0000,  0.0000,  0.0000)
  17 Ir     8.427826    4.865807   12.293764    ( 0.0000,  0.0000,  0.0000)
  18 Ir     1.441638    0.791118   14.593247    ( 0.0000,  0.0000,  0.0000)
  19 Pt     4.193480    0.729862   14.611205    ( 0.0000,  0.0000,  0.0000)
  20 Pt     7.034823    0.803600   14.634811    ( 0.0000,  0.0000,  0.0000)
  21 Ag     2.789574    3.267050   14.608106    ( 0.0000,  0.0000,  0.0000)
  22 Ag     5.614143    3.230616   14.629701    ( 0.0000,  0.0000,  0.0000)
  23 Ag     8.464759    3.239382   14.607930    ( 0.0000,  0.0000,  0.0000)
  24 Pt     4.237230    5.675263   14.599690    ( 0.0000,  0.0000,  0.0000)
  25 Ag     7.020289    5.624637   14.588938    ( 0.0000,  0.0000,  0.0000)
  26 Ir     9.810296    5.749034   14.534386    ( 0.0000,  0.0000,  0.0000)
  27 Ru     0.088724    1.655821   16.925664    ( 0.0000,  0.0000,  0.0000)
  28 Ir     2.745717    1.627778   16.875164    ( 0.0000,  0.0000,  0.0000)
  29 Ir     5.551846    1.597836   16.889230    ( 0.0000,  0.0000,  0.0000)
  30 Ir     1.358794    4.007324   17.013226    ( 0.0000,  0.0000,  0.0000)
  31 Ir     4.198339    3.977911   16.957702    ( 0.0000,  0.0000,  0.0000)
  32 Pt     7.125382    4.056246   16.998429    ( 0.0000,  0.0000,  0.0000)
  33 Ag     2.759687    6.474835   16.802442    ( 0.0000,  0.0000,  0.0000)
  34 Ir     5.663661    6.563267   16.864024    ( 0.0000,  0.0000,  0.0000)
  35 Ru     8.399575    6.483077   16.866623    ( 0.0000,  0.0000,  0.0000)
  36 Ir     0.015859   -0.055829   18.998154    ( 0.0000,  0.0000,  0.0000)
  37 Ir     2.776668   -0.025110   18.984491    ( 0.0000,  0.0000,  0.0000)
  38 Pt     5.623976   -0.052286   19.132338    ( 0.0000,  0.0000,  0.0000)
  39 Ag     1.411190    2.424549   19.550242    ( 0.0000,  0.0000,  0.0000)
  40 Ir     4.228423    2.403175   19.018562    ( 0.0000,  0.0000,  0.0000)
  41 Pt     6.964575    2.313754   19.128521    ( 0.0000,  0.0000,  0.0000)
  42 Ir     2.920544    4.885225   19.043791    ( 0.0000,  0.0000,  0.0000)
  43 Ir     5.524960    4.949858   19.026821    ( 0.0000,  0.0000,  0.0000)
  44 Ag     8.407084    4.876484   19.535850    ( 0.0000,  0.0000,  0.0000)
  45 O      8.409377    3.204929   20.850242    ( 0.0000,  0.0000,  0.0000)

Unit cell:
           periodic     x           y           z      points  spacing
  1. axis:    yes    8.445283    0.000000    0.000000    35     0.2090
  2. axis:    yes    4.222641    7.313829    0.000000    35     0.2090
  3. axis:    no     0.000000    0.000000   29.175054   135     0.2161

  Lengths:   8.445283   8.445283  29.175054
  Angles:   90.000000  90.000000  60.000000

Effective grid spacing dv^(1/3) = 0.2217

                     log10-error:    total        iterations:
           time      wfs    density  energy       fermi  poisson
iter:   1  20:05:24  +0.17   +inf  -295.594425    2             
iter:   2  20:06:32  -1.10  -1.37  -294.593472    37            
iter:   3  20:07:40  -1.37  -1.32  -328.482840    37            
iter:   4  20:08:49  -1.73  -1.25  -274.611085    3             
iter:   5  20:09:56  -2.28  -1.49  -268.499296    37            
iter:   6  20:10:51  -2.42  -1.55  -267.523897    3             
iter:   7  20:11:47  -2.37  -1.58  -264.918380    3             
iter:   8  20:12:41  -2.68  -1.71  -263.903430    3             
iter:   9  20:13:34  -2.79  -1.82  -263.979707    3             
iter:  10  20:14:28  -2.36  -1.90  -265.007803    3             
iter:  11  20:15:22  -2.93  -1.95  -263.667570    3             
iter:  12  20:16:15  -3.51  -2.20  -263.681584    3             
iter:  13  20:17:09  -3.54  -2.25  -264.306706    2             
iter:  14  20:18:02  -3.21  -2.09  -264.052677    3             
iter:  15  20:18:56  -3.19  -2.14  -263.527418    3             
iter:  16  20:19:50  -3.68  -2.57  -263.541797    3             
iter:  17  20:20:51  -4.04  -2.54  -263.488861    2             
iter:  18  20:21:51  -4.17  -2.69  -263.500557    3             
iter:  19  20:22:53  -3.76  -2.65  -263.461187    3             
iter:  20  20:23:54  -4.35  -2.84  -263.524923    3             
iter:  21  20:24:56  -4.48  -2.65  -263.449906    2             
iter:  22  20:25:57  -5.16  -3.08  -263.446837    2             
iter:  23  20:27:05  -4.83  -3.12  -263.448999    3             
iter:  24  20:28:14  -5.30  -3.32  -263.447095    2             
iter:  25  20:29:22  -5.83  -3.45  -263.446657    2             
iter:  26  20:30:30  -5.93  -3.49  -263.447925    2             
iter:  27  20:31:33  -5.58  -3.49  -263.447061    2             
iter:  28  20:32:34  -5.83  -3.36  -263.447153    2             
iter:  29  20:33:35  -6.06  -3.71  -263.448149    2             
iter:  30  20:34:37  -6.48  -3.70  -263.447190    2             
iter:  31  20:35:37  -6.36  -3.80  -263.447441    2             
iter:  32  20:36:38  -6.18  -3.87  -263.448199    2             
iter:  33  20:37:39  -6.76  -3.76  -263.446804    2             
iter:  34  20:38:40  -6.79  -3.91  -263.447296    2             
iter:  35  20:39:40  -7.13  -3.99  -263.447244    2             
iter:  36  20:40:42  -6.69  -4.04  -263.446602    2             
iter:  37  20:41:42  -7.16  -4.19  -263.446951    2             
iter:  38  20:42:43  -7.41  -4.21  -263.446880    2             

Converged after 38 iterations.

Dipole moment: (22.817174, 18.863969, -0.345200) |e|*Ang

Energy contributions relative to reference atoms: (reference = -16429278.754816)

Kinetic:       -151.270013
Potential:      +95.286893
External:        +0.000000
XC:            -200.018491
Entropy (-ST):   -2.132800
Local:           -6.378869
--------------------------
Free energy:   -264.513280
Extrapolated:  -263.446880

Fermi level: 1.18780

Showing only first 2 kpts
 Kpt  Band  Eigenvalues  Occupancy
  0   357      1.17867    0.13070
  0   358      1.20270    0.11571
  0   359      1.24832    0.08829
  0   360      1.28564    0.06830

  1   357      1.07200    0.19024
  1   358      1.11018    0.17122
  1   359      1.14102    0.15371
  1   360      1.16053    0.14194



Forces in eV/Ang:
  0 Ag   -0.42062    0.16140   -1.04477
  1 Ag    0.25400    0.22718   -0.85013
  2 Ir    0.49740   -0.18169    0.02864
  3 Ir   -0.09953    1.23614    1.40197
  4 Ir    0.42567    0.41859    0.87397
  5 Ir   -0.33104   -0.02467    1.21854
  6 Ir   -1.72124   -0.50525    0.74557
  7 Ag   -0.12013   -0.35202   -0.94030
  8 Pt    1.06504   -0.38406    0.47869
  9 Ag    0.12962    0.01480    0.16225
 10 Ir   -0.04978   -0.44200    0.92702
 11 Ir   -0.67188   -0.78580   -0.51786
 12 Ir    0.36980    0.16123    0.16160
 13 Ag   -0.01512   -0.02936    0.14252
 14 Ag    0.05751    0.08911    0.12710
 15 Pt   -0.15031   -0.04040   -0.60887
 16 Ru    0.62805    0.45893   -1.37672
 17 Ir    0.13489    0.28263   -1.27473
 18 Ir    0.00443    0.04824    0.01333
 19 Pt   -0.03511   -0.04628   -0.06839
 20 Pt   -0.00935    0.01664    0.06691
 21 Ag    0.01449    0.00739    0.04317
 22 Ag    0.01901   -0.00488    0.02854
 23 Ag    0.00738    0.01645   -0.00348
 24 Pt    0.01220    0.00315    0.04906
 25 Ag   -0.01019   -0.03354   -0.00121
 26 Ir    0.00648   -0.03419   -0.00501
 27 Ru   -0.06791   -0.03014   -0.10895
 28 Ir    0.05424    0.02915    0.20005
 29 Ir    0.20586    0.10091    0.40079
 30 Ir   -0.04116    0.00264   -0.07390
 31 Ir    0.02449    0.01163    0.06340
 32 Pt    0.01790   -0.00577   -0.08891
 33 Ag   -0.01024   -0.02505   -0.04896
 34 Ir   -0.00912   -0.05345    0.04096
 35 Ru    0.05158   -0.05907    0.18616
 36 Ir    0.05876   -0.23242   -0.11971
 37 Ir   -0.03726    0.04151   -0.03891
 38 Pt   -0.08356   -0.01466   -0.07334
 39 Ag    0.80891   -0.49288   -0.00772
 40 Ir   -0.07649   -0.00024   -0.03923
 41 Pt    0.20166    0.16245    0.85609
 42 Ir    0.10711    0.02012   -0.12235
 43 Ir   -0.10300    0.04925   -0.09569
 44 Ag   -0.03040    0.76492    0.05078
 45 O    -1.07092   -0.52921   -0.72918

System changes: positions 

Initializing position-dependent things.

Density initialized from wave functions
                                             
                                             
                                             
                                             
                                             
                                             
                              OAg            
                  Ir    Ir                   
             Ag           Pt                 
                  AIr     Ir    Ru           
       Ir    IIr    IPt     Pt               
                                             
         Ru    Ir    PIr    Ag     Ir        
                Ag     Ag     Ag             
                                             
           Ir    PPt    RPt    Ir            
                                             
            Ir    IAg    AAg    Pt           
       Ag     Ir     Ir                      
             Ir     Ir     Ir                
        Ag     Ag     Ir                     
                                             
                                             
                                             
                                             
                                             

Positions:
   0 Ag     0.000000    1.621936   10.000000    ( 0.0000,  0.0000,  0.0000)
   1 Ag     2.809275    1.621936   10.000000    ( 0.0000,  0.0000,  0.0000)
   2 Ir     5.618550    1.621936   10.000000    ( 0.0000,  0.0000,  0.0000)
   3 Ir     1.404638    4.054840   10.000000    ( 0.0000,  0.0000,  0.0000)
   4 Ir     4.213913    4.054840   10.000000    ( 0.0000,  0.0000,  0.0000)
   5 Ir     7.023188    4.054840   10.000000    ( 0.0000,  0.0000,  0.0000)
   6 Ir     2.809275    6.487743   10.000000    ( 0.0000,  0.0000,  0.0000)
   7 Ag     5.618550    6.487743   10.000000    ( 0.0000,  0.0000,  0.0000)
   8 Pt     8.427826    6.487743   10.000000    ( 0.0000,  0.0000,  0.0000)
   9 Ag     0.000000    0.000000   12.293764    ( 0.0000,  0.0000,  0.0000)
  10 Ir     2.809275    0.000000   12.293764    ( 0.0000,  0.0000,  0.0000)
  11 Ir     5.618550    0.000000   12.293764    ( 0.0000,  0.0000,  0.0000)
  12 Ir     1.404638    2.432904   12.293764    ( 0.0000,  0.0000,  0.0000)
  13 Ag     4.213913    2.432904   12.293764    ( 0.0000,  0.0000,  0.0000)
  14 Ag     7.023188    2.432904   12.293764    ( 0.0000,  0.0000,  0.0000)
  15 Pt     2.809275    4.865807   12.293764    ( 0.0000,  0.0000,  0.0000)
  16 Ru     5.618550    4.865807   12.293764    ( 0.0000,  0.0000,  0.0000)
  17 Ir     8.427826    4.865807   12.293764    ( 0.0000,  0.0000,  0.0000)
  18 Ir     1.442081    0.795942   14.594580    ( 0.0000,  0.0000,  0.0000)
  19 Pt     4.189969    0.725234   14.604365    ( 0.0000,  0.0000,  0.0000)
  20 Pt     7.033888    0.805264   14.641502    ( 0.0000,  0.0000,  0.0000)
  21 Ag     2.791023    3.267789   14.612422    ( 0.0000,  0.0000,  0.0000)
  22 Ag     5.616044    3.230128   14.632554    ( 0.0000,  0.0000,  0.0000)
  23 Ag     8.465497    3.241026   14.607581    ( 0.0000,  0.0000,  0.0000)
  24 Pt     4.238450    5.675578   14.604596    ( 0.0000,  0.0000,  0.0000)
  25 Ag     7.019270    5.621283   14.588817    ( 0.0000,  0.0000,  0.0000)
  26 Ir     9.810944    5.745616   14.533884    ( 0.0000,  0.0000,  0.0000)
  27 Ru     0.081933    1.652807   16.914769    ( 0.0000,  0.0000,  0.0000)
  28 Ir     2.751141    1.630692   16.895169    ( 0.0000,  0.0000,  0.0000)
  29 Ir     5.572432    1.607927   16.929309    ( 0.0000,  0.0000,  0.0000)
  30 Ir     1.354678    4.007588   17.005836    ( 0.0000,  0.0000,  0.0000)
  31 Ir     4.200789    3.979073   16.964042    ( 0.0000,  0.0000,  0.0000)
  32 Pt     7.127172    4.055669   16.989538    ( 0.0000,  0.0000,  0.0000)
  33 Ag     2.758663    6.472330   16.797546    ( 0.0000,  0.0000,  0.0000)
  34 Ir     5.662749    6.557922   16.868120    ( 0.0000,  0.0000,  0.0000)
  35 Ru     8.404733    6.477170   16.885239    ( 0.0000,  0.0000,  0.0000)
  36 Ir     0.021735   -0.079071   18.986184    ( 0.0000,  0.0000,  0.0000)
  37 Ir     2.772943   -0.020959   18.980600    ( 0.0000,  0.0000,  0.0000)
  38 Pt     5.615620   -0.053752   19.125004    ( 0.0000,  0.0000,  0.0000)
  39 Ag     1.492081    2.375260   19.549470    ( 0.0000,  0.0000,  0.0000)
  40 Ir     4.220774    2.403151   19.014639    ( 0.0000,  0.0000,  0.0000)
  41 Pt     6.984742    2.329999   19.214130    ( 0.0000,  0.0000,  0.0000)
  42 Ir     2.931256    4.887236   19.031556    ( 0.0000,  0.0000,  0.0000)
  43 Ir     5.514660    4.954783   19.017252    ( 0.0000,  0.0000,  0.0000)
  44 Ag     8.404044    4.952976   19.540929    ( 0.0000,  0.0000,  0.0000)
  45 O      8.302285    3.152007   20.777324    ( 0.0000,  0.0000,  0.0000)

Unit cell:
           periodic     x           y           z      points  spacing
  1. axis:    yes    8.445283    0.000000    0.000000    35     0.2090
  2. axis:    yes    4.222641    7.313829    0.000000    35     0.2090
  3. axis:    no     0.000000    0.000000   29.175054   135     0.2161

  Lengths:   8.445283   8.445283  29.175054
  Angles:   90.000000  90.000000  60.000000

Effective grid spacing dv^(1/3) = 0.2217

                     log10-error:    total        iterations:
           time      wfs    density  energy       fermi  poisson
iter:   1  20:44:11  -2.03   +inf  -267.245506    3             
iter:   2  20:45:11  -1.54  -1.91  -332.164622    36            
iter:   3  20:46:11  -1.90  -1.30  -267.548972    37            
iter:   4  20:47:12  -2.71  -1.90  -264.048795    4             
iter:   5  20:48:12  -3.66  -2.51  -263.924208    3             
iter:   6  20:49:13  -4.13  -2.75  -263.904007    3             
iter:   7  20:50:21  -4.23  -2.77  -263.869448    3             
iter:   8  20:51:30  -3.92  -2.94  -263.851516    3             
iter:   9  20:52:27  -4.46  -3.18  -263.855774    2             
iter:  10  20:53:22  -5.06  -2.96  -263.849069    2             
iter:  11  20:54:18  -4.94  -3.19  -263.843271    2             
iter:  12  20:55:13  -5.23  -3.22  -263.841371    2             
iter:  13  20:56:09  -5.74  -3.55  -263.841525    2             
iter:  14  20:57:04  -5.94  -3.67  -263.841201    2             
iter:  15  20:58:00  -6.02  -3.77  -263.841409    2             
iter:  16  20:58:56  -6.03  -3.81  -263.840492    2             
iter:  17  20:59:50  -6.38  -3.58  -263.841681    2             
iter:  18  21:00:44  -6.45  -3.82  -263.840554    2             
iter:  19  21:01:37  -6.91  -3.98  -263.840720    2             
iter:  20  21:02:30  -7.17  -4.19  -263.840671    2             
iter:  21  21:03:24  -7.28  -4.22  -263.840846    2             
iter:  22  21:04:17  -7.50  -4.34  -263.840623    2             

Converged after 22 iterations.

Dipole moment: (17.648521, 19.629501, -0.286370) |e|*Ang

Energy contributions relative to reference atoms: (reference = -16429278.754816)

Kinetic:       -147.780207
Potential:      +91.857285
External:        +0.000000
XC:            -200.492063
Entropy (-ST):   -2.137027
Local:           -6.357124
--------------------------
Free energy:   -264.909137
Extrapolated:  -263.840623

Fermi level: 1.21418

Showing only first 2 kpts
 Kpt  Band  Eigenvalues  Occupancy
  0   357      1.20029    0.13366
  0   358      1.22809    0.11632
  0   359      1.27397    0.08870
  0   360      1.30706    0.07079

  1   357      1.10219    0.18849
  1   358      1.13684    0.17106
  1   359      1.17684    0.14807
  1   360      1.19828    0.13491



Forces in eV/Ang:
  0 Ag   -0.41836    0.15801   -1.05174
  1 Ag    0.25225    0.22789   -0.85733
  2 Ir    0.49809   -0.18482    0.02409
  3 Ir   -0.10088    1.22823    1.38089
  4 Ir    0.42282    0.41926    0.86686
  5 Ir   -0.32966   -0.02505    1.20629
  6 Ir   -1.71989   -0.50046    0.73153
  7 Ag   -0.12033   -0.34529   -0.93877
  8 Pt    1.06178   -0.38694    0.45472
  9 Ag    0.12080    0.01744    0.18391
 10 Ir   -0.04647   -0.44959    0.93082
 11 Ir   -0.66875   -0.77932   -0.49574
 12 Ir    0.37736    0.16874    0.16657
 13 Ag   -0.01149   -0.01893    0.15431
 14 Ag    0.05429    0.08263    0.13993
 15 Pt   -0.13643   -0.04088   -0.59984
 16 Ru    0.62125    0.45645   -1.38689
 17 Ir    0.12793    0.27961   -1.27700
 18 Ir   -0.01010    0.03465    0.07895
 19 Pt    0.01391   -0.02879    0.06428
 20 Pt   -0.03828    0.02082    0.01434
 21 Ag    0.03462   -0.02055    0.02416
 22 Ag   -0.01801   -0.06754    0.05510
 23 Ag    0.00212   -0.00111   -0.05116
 24 Pt    0.02025    0.00008   -0.00453
 25 Ag    0.00445    0.01544    0.02376
 26 Ir    0.00878    0.00766   -0.03223
 27 Ru   -0.12576    0.01780    0.02292
 28 Ir    0.03100    0.02800   -0.06830
 29 Ir    0.26878    0.08189    0.09939
 30 Ir   -0.02705   -0.04360    0.02218
 31 Ir    0.06317   -0.05404   -0.18962
 32 Pt    0.00993   -0.12608    0.11622
 33 Ag   -0.03494   -0.00353   -0.06184
 34 Ir    0.04596    0.01050   -0.13942
 35 Ru    0.06669   -0.00461   -0.02966
 36 Ir   -0.05444    0.07163    0.01736
 37 Ir   -0.01823   -0.04429    0.05672
 38 Pt    0.17812    0.18970   -0.05631
 39 Ag    0.00352    0.09134    0.27453
 40 Ir    0.19278    0.02128    0.15295
 41 Pt    0.22240    0.15678    0.75709
 42 Ir   -0.18291   -0.00066    0.02518
 43 Ir    0.16056   -0.07539    0.04490
 44 Ag    0.04100   -0.01280    0.19634
 45 O    -0.75876   -0.51687   -1.22777

System changes: positions 

Initializing position-dependent things.

Density initialized from wave functions
                                             
                                             
                                             
                                             
                                             
                                             
                             O Ag            
                  Ir    Ir                   
             Ag           Pt    Ru           
                  AIr                        
       Ir    IIr    IPt     Pt               
                                             
         Ru    Ir    PIr    Ag     Ir        
                Ag     Ag     Ag             
                                             
           Ir    PPt    RPt    Ir            
                                             
            Ir    IAg    AAg    Pt           
       Ag     Ir     Ir                      
             Ir     Ir     Ir                
        Ag     Ag     Ir                     
                                             
                                             
                                             
                                             
                                             

Positions:
   0 Ag     0.000000    1.621936   10.000000    ( 0.0000,  0.0000,  0.0000)
   1 Ag     2.809275    1.621936   10.000000    ( 0.0000,  0.0000,  0.0000)
   2 Ir     5.618550    1.621936   10.000000    ( 0.0000,  0.0000,  0.0000)
   3 Ir     1.404638    4.054840   10.000000    ( 0.0000,  0.0000,  0.0000)
   4 Ir     4.213913    4.054840   10.000000    ( 0.0000,  0.0000,  0.0000)
   5 Ir     7.023188    4.054840   10.000000    ( 0.0000,  0.0000,  0.0000)
   6 Ir     2.809275    6.487743   10.000000    ( 0.0000,  0.0000,  0.0000)
   7 Ag     5.618550    6.487743   10.000000    ( 0.0000,  0.0000,  0.0000)
   8 Pt     8.427826    6.487743   10.000000    ( 0.0000,  0.0000,  0.0000)
   9 Ag     0.000000    0.000000   12.293764    ( 0.0000,  0.0000,  0.0000)
  10 Ir     2.809275    0.000000   12.293764    ( 0.0000,  0.0000,  0.0000)
  11 Ir     5.618550    0.000000   12.293764    ( 0.0000,  0.0000,  0.0000)
  12 Ir     1.404638    2.432904   12.293764    ( 0.0000,  0.0000,  0.0000)
  13 Ag     4.213913    2.432904   12.293764    ( 0.0000,  0.0000,  0.0000)
  14 Ag     7.023188    2.432904   12.293764    ( 0.0000,  0.0000,  0.0000)
  15 Pt     2.809275    4.865807   12.293764    ( 0.0000,  0.0000,  0.0000)
  16 Ru     5.618550    4.865807   12.293764    ( 0.0000,  0.0000,  0.0000)
  17 Ir     8.427826    4.865807   12.293764    ( 0.0000,  0.0000,  0.0000)
  18 Ir     1.442626    0.801868   14.596217    ( 0.0000,  0.0000,  0.0000)
  19 Pt     4.185656    0.719547   14.595963    ( 0.0000,  0.0000,  0.0000)
  20 Pt     7.032739    0.807308   14.649723    ( 0.0000,  0.0000,  0.0000)
  21 Ag     2.792804    3.268697   14.617725    ( 0.0000,  0.0000,  0.0000)
  22 Ag     5.618380    3.229528   14.636060    ( 0.0000,  0.0000,  0.0000)
  23 Ag     8.466404    3.243047   14.607153    ( 0.0000,  0.0000,  0.0000)
  24 Pt     4.239949    5.675965   14.610624    ( 0.0000,  0.0000,  0.0000)
  25 Ag     7.018017    5.617162   14.588669    ( 0.0000,  0.0000,  0.0000)
  26 Ir     9.811740    5.741416   14.533269    ( 0.0000,  0.0000,  0.0000)
  27 Ru     0.073590    1.649103   16.901383    ( 0.0000,  0.0000,  0.0000)
  28 Ir     2.757805    1.634273   16.919747    ( 0.0000,  0.0000,  0.0000)
  29 Ir     5.597723    1.620325   16.978548    ( 0.0000,  0.0000,  0.0000)
  30 Ir     1.349620    4.007912   16.996757    ( 0.0000,  0.0000,  0.0000)
  31 Ir     4.203798    3.980502   16.971831    ( 0.0000,  0.0000,  0.0000)
  32 Pt     7.129371    4.054960   16.978615    ( 0.0000,  0.0000,  0.0000)
  33 Ag     2.757405    6.469253   16.791531    ( 0.0000,  0.0000,  0.0000)
  34 Ir     5.661629    6.551355   16.873153    ( 0.0000,  0.0000,  0.0000)
  35 Ru     8.411070    6.469913   16.908109    ( 0.0000,  0.0000,  0.0000)
  36 Ir     0.028954   -0.107626   18.971477    ( 0.0000,  0.0000,  0.0000)
  37 Ir     2.768365   -0.015859   18.975820    ( 0.0000,  0.0000,  0.0000)
  38 Pt     5.605354   -0.055554   19.115994    ( 0.0000,  0.0000,  0.0000)
  39 Ag     1.591459    2.314707   19.548521    ( 0.0000,  0.0000,  0.0000)
  40 Ir     4.211377    2.403121   19.009819    ( 0.0000,  0.0000,  0.0000)
  41 Pt     7.009517    2.349958   19.319306    ( 0.0000,  0.0000,  0.0000)
  42 Ir     2.944415    4.889708   19.016524    ( 0.0000,  0.0000,  0.0000)
  43 Ir     5.502006    4.960834   19.005496    ( 0.0000,  0.0000,  0.0000)
  44 Ag     8.400310    5.046950   19.547167    ( 0.0000,  0.0000,  0.0000)
  45 O      8.170716    3.086991   20.687741    ( 0.0000,  0.0000,  0.0000)

Unit cell:
           periodic     x           y           z      points  spacing
  1. axis:    yes    8.445283    0.000000    0.000000    35     0.2090
  2. axis:    yes    4.222641    7.313829    0.000000    35     0.2090
  3. axis:    no     0.000000    0.000000   29.175054   135     0.2161

  Lengths:   8.445283   8.445283  29.175054
  Angles:   90.000000  90.000000  60.000000

Effective grid spacing dv^(1/3) = 0.2217

                     log10-error:    total        iterations:
           time      wfs    density  energy       fermi  poisson
iter:   1  21:05:36  -1.82   +inf  -279.676909    3             
iter:   2  21:06:29  -0.53  -1.58  -553.081217    38            
iter:   3  21:07:25  -1.20  -1.00  -273.319740    35            
iter:   4  21:08:25  -2.11  -1.70  -264.187733    37            
iter:   5  21:09:32  -3.19  -2.43  -264.117801    3             
iter:   6  21:10:41  -3.86  -2.46  -263.971617    2             
iter:   7  21:11:49  -4.14  -2.71  -263.939764    3             
iter:   8  21:12:58  -4.03  -2.80  -263.984499    2             
iter:   9  21:14:06  -3.84  -2.58  -263.935229    3             
iter:  10  21:15:09  -4.26  -2.77  -263.885242    3             
iter:  11  21:16:09  -4.69  -3.07  -263.879730    2             
iter:  12  21:17:09  -5.15  -3.14  -263.878765    3             
iter:  13  21:18:09  -5.32  -3.26  -263.876864    2             
iter:  14  21:19:09  -5.23  -3.40  -263.876856    2             
iter:  15  21:20:10  -5.43  -3.52  -263.875602    2             
iter:  16  21:21:11  -5.70  -3.65  -263.879216    2             
iter:  17  21:22:11  -6.21  -3.49  -263.875853    2             
iter:  18  21:23:11  -6.05  -3.74  -263.876831    2             
iter:  19  21:24:07  -6.44  -3.77  -263.876097    2             
iter:  20  21:25:03  -6.71  -3.90  -263.876107    2             
iter:  21  21:26:00  -6.66  -4.01  -263.876056    2             
iter:  22  21:26:56  -6.89  -4.07  -263.877133    2             
iter:  23  21:27:52  -6.83  -3.77  -263.875838    2             
iter:  24  21:28:47  -7.02  -4.13  -263.876068    2             
iter:  25  21:29:44  -7.06  -4.25  -263.875867    2             
iter:  26  21:30:37  -7.34  -4.35  -263.876040    2             
iter:  27  21:31:29  -7.60  -4.49  -263.876082    2             

Converged after 27 iterations.

Dipole moment: (12.507001, 20.493352, -0.190501) |e|*Ang

Energy contributions relative to reference atoms: (reference = -16429278.754816)

Kinetic:       -134.964625
Potential:      +80.710317
External:        +0.000000
XC:            -202.166077
Entropy (-ST):   -2.128691
Local:           -6.391352
--------------------------
Free energy:   -264.940428
Extrapolated:  -263.876082

Fermi level: 1.26630

Showing only first 2 kpts
 Kpt  Band  Eigenvalues  Occupancy
  0   357      1.24925    0.13563
  0   358      1.28512    0.11327
  0   359      1.32743    0.08794
  0   360      1.35158    0.07471

  1   357      1.16061    0.18552
  1   358      1.19232    0.16924
  1   359      1.23883    0.14206
  1   360      1.26085    0.12841



Forces in eV/Ang:
  0 Ag   -0.41621    0.15675   -1.04696
  1 Ag    0.24971    0.22547   -0.85278
  2 Ir    0.49901   -0.18706    0.03871
  3 Ir   -0.10173    1.22673    1.38882
  4 Ir    0.41579    0.41808    0.88548
  5 Ir   -0.32337   -0.02561    1.21310
  6 Ir   -1.72142   -0.49698    0.73526
  7 Ag   -0.11660   -0.33955   -0.92683
  8 Pt    1.05533   -0.39210    0.44501
  9 Ag    0.10965    0.01564    0.21183
 10 Ir   -0.04042   -0.46196    0.94250
 11 Ir   -0.65670   -0.77491   -0.46459
 12 Ir    0.38540    0.18169    0.17525
 13 Ag   -0.00755   -0.00635    0.17459
 14 Ag    0.05050    0.07205    0.16115
 15 Pt   -0.12168   -0.03514   -0.57886
 16 Ru    0.61263    0.45943   -1.39251
 17 Ir    0.12228    0.27912   -1.27929
 18 Ir   -0.01258    0.00646    0.17091
 19 Pt    0.06363   -0.00538    0.21936
 20 Pt   -0.08923    0.01204   -0.04126
 21 Ag    0.06734   -0.06467    0.01904
 22 Ag   -0.07547   -0.14053    0.09796
 23 Ag   -0.00089   -0.02834   -0.11215
 24 Pt    0.03406   -0.00541   -0.06878
 25 Ag    0.01962    0.09845    0.06088
 26 Ir    0.01602    0.07577   -0.05097
 27 Ru   -0.15752    0.09793    0.16234
 28 Ir    0.01615    0.01010   -0.44880
 29 Ir    0.32606    0.06027   -0.33448
 30 Ir   -0.01209   -0.09861    0.14932
 31 Ir    0.13847   -0.17229   -0.54618
 32 Pt   -0.01077   -0.24516    0.31462
 33 Ag   -0.07942    0.04947   -0.06933
 34 Ir    0.14879    0.10203   -0.41050
 35 Ru    0.07171    0.06208   -0.30352
 36 Ir   -0.22787    0.47121    0.18204
 37 Ir    0.04514   -0.24793    0.11384
 38 Pt    0.57032    0.50239   -0.03157
 39 Ag   -0.92991    0.71539    0.46421
 40 Ir    0.68196    0.06478    0.34239
 41 Pt   -0.59545   -0.40772   -0.21100
 42 Ir   -0.64255   -0.07650    0.26380
 43 Ir    0.49871   -0.23888    0.20392
 44 Ag    0.04061   -0.88001    0.27468
 45 O     0.02397   -0.08326   -0.03163

System changes: positions 

Initializing position-dependent things.

Density initialized from wave functions
                                             
                                             
                                             
                                             
                                             
                                             
                              OAg            
                  Ir    Ir                   
             Ag           Pt                 
                  AIr           Ru           
       Ir    IIr    IPt     Pt               
                                             
         Ru    Ir    PIr    Ag     Ir        
                Ag     Ag     Ag             
                                             
           Ir    PPt    RPt    Ir            
                                             
            Ir    IAg    AAg    Pt           
       Ag     Ir     Ir                      
             Ir     Ir     Ir                
        Ag     Ag     Ir                     
                                             
                                             
                                             
                                             
                                             

Positions:
   0 Ag     0.000000    1.621936   10.000000    ( 0.0000,  0.0000,  0.0000)
   1 Ag     2.809275    1.621936   10.000000    ( 0.0000,  0.0000,  0.0000)
   2 Ir     5.618550    1.621936   10.000000    ( 0.0000,  0.0000,  0.0000)
   3 Ir     1.404638    4.054840   10.000000    ( 0.0000,  0.0000,  0.0000)
   4 Ir     4.213913    4.054840   10.000000    ( 0.0000,  0.0000,  0.0000)
   5 Ir     7.023188    4.054840   10.000000    ( 0.0000,  0.0000,  0.0000)
   6 Ir     2.809275    6.487743   10.000000    ( 0.0000,  0.0000,  0.0000)
   7 Ag     5.618550    6.487743   10.000000    ( 0.0000,  0.0000,  0.0000)
   8 Pt     8.427826    6.487743   10.000000    ( 0.0000,  0.0000,  0.0000)
   9 Ag     0.000000    0.000000   12.293764    ( 0.0000,  0.0000,  0.0000)
  10 Ir     2.809275    0.000000   12.293764    ( 0.0000,  0.0000,  0.0000)
  11 Ir     5.618550    0.000000   12.293764    ( 0.0000,  0.0000,  0.0000)
  12 Ir     1.404638    2.432904   12.293764    ( 0.0000,  0.0000,  0.0000)
  13 Ag     4.213913    2.432904   12.293764    ( 0.0000,  0.0000,  0.0000)
  14 Ag     7.023188    2.432904   12.293764    ( 0.0000,  0.0000,  0.0000)
  15 Pt     2.809275    4.865807   12.293764    ( 0.0000,  0.0000,  0.0000)
  16 Ru     5.618550    4.865807   12.293764    ( 0.0000,  0.0000,  0.0000)
  17 Ir     8.427826    4.865807   12.293764    ( 0.0000,  0.0000,  0.0000)
  18 Ir     1.442340    0.798762   14.595359    ( 0.0000,  0.0000,  0.0000)
  19 Pt     4.187917    0.722527   14.600367    ( 0.0000,  0.0000,  0.0000)
  20 Pt     7.033341    0.806237   14.645415    ( 0.0000,  0.0000,  0.0000)
  21 Ag     2.791871    3.268221   14.614946    ( 0.0000,  0.0000,  0.0000)
  22 Ag     5.617156    3.229843   14.634223    ( 0.0000,  0.0000,  0.0000)
  23 Ag     8.465929    3.241988   14.607377    ( 0.0000,  0.0000,  0.0000)
  24 Pt     4.239163    5.675762   14.607465    ( 0.0000,  0.0000,  0.0000)
  25 Ag     7.018674    5.619322   14.588747    ( 0.0000,  0.0000,  0.0000)
  26 Ir     9.811323    5.743617   14.533591    ( 0.0000,  0.0000,  0.0000)
  27 Ru     0.077963    1.651044   16.908398    ( 0.0000,  0.0000,  0.0000)
  28 Ir     2.754312    1.632396   16.906866    ( 0.0000,  0.0000,  0.0000)
  29 Ir     5.584468    1.613827   16.952742    ( 0.0000,  0.0000,  0.0000)
  30 Ir     1.352271    4.007742   17.001515    ( 0.0000,  0.0000,  0.0000)
  31 Ir     4.202221    3.979753   16.967749    ( 0.0000,  0.0000,  0.0000)
  32 Pt     7.128218    4.055332   16.984340    ( 0.0000,  0.0000,  0.0000)
  33 Ag     2.758064    6.470865   16.794684    ( 0.0000,  0.0000,  0.0000)
  34 Ir     5.662216    6.554797   16.870515    ( 0.0000,  0.0000,  0.0000)
  35 Ru     8.407749    6.473717   16.896123    ( 0.0000,  0.0000,  0.0000)
  36 Ir     0.025170   -0.092661   18.979184    ( 0.0000,  0.0000,  0.0000)
  37 Ir     2.770764   -0.018532   18.978326    ( 0.0000,  0.0000,  0.0000)
  38 Pt     5.610734   -0.054609   19.120716    ( 0.0000,  0.0000,  0.0000)
  39 Ag     1.539376    2.346442   19.549019    ( 0.0000,  0.0000,  0.0000)
  40 Ir     4.216302    2.403136   19.012345    ( 0.0000,  0.0000,  0.0000)
  41 Pt     6.996532    2.339498   19.264185    ( 0.0000,  0.0000,  0.0000)
  42 Ir     2.937518    4.888413   19.024402    ( 0.0000,  0.0000,  0.0000)
  43 Ir     5.508638    4.957663   19.011657    ( 0.0000,  0.0000,  0.0000)
  44 Ag     8.402267    4.997699   19.543898    ( 0.0000,  0.0000,  0.0000)
  45 O      8.239670    3.121065   20.734691    ( 0.0000,  0.0000,  0.0000)

Unit cell:
           periodic     x           y           z      points  spacing
  1. axis:    yes    8.445283    0.000000    0.000000    35     0.2090
  2. axis:    yes    4.222641    7.313829    0.000000    35     0.2090
  3. axis:    no     0.000000    0.000000   29.175054   135     0.2161

  Lengths:   8.445283   8.445283  29.175054
  Angles:   90.000000  90.000000  60.000000

Effective grid spacing dv^(1/3) = 0.2217

                     log10-error:    total        iterations:
           time      wfs    density  energy       fermi  poisson
iter:   1  21:33:04  -2.16   +inf  -270.393008    3             
iter:   2  21:34:10  -1.20  -1.75  -411.385086    35            
iter:   3  21:35:16  -1.57  -1.16  -265.269250    38            
iter:   4  21:36:21  -2.65  -2.10  -264.446522    3             
iter:   5  21:37:27  -3.49  -2.30  -264.125741    3             
iter:   6  21:38:33  -3.97  -2.53  -264.013896    3             
iter:   7  21:39:39  -4.81  -2.74  -264.001818    3             
iter:   8  21:40:44  -4.51  -2.78  -263.967594    3             
iter:   9  21:41:50  -4.13  -2.94  -263.974127    3             
iter:  10  21:42:56  -4.41  -2.92  -263.947316    3             
iter:  11  21:44:01  -5.25  -3.18  -263.946428    2             
iter:  12  21:45:07  -5.19  -3.29  -263.943692    3             
iter:  13  21:46:12  -5.31  -3.39  -263.946260    2             
iter:  14  21:47:16  -5.84  -3.31  -263.940851    2             
iter:  15  21:48:24  -5.95  -3.59  -263.942158    2             
iter:  16  21:49:32  -6.16  -3.57  -263.940523    2             
iter:  17  21:50:40  -6.51  -3.68  -263.941206    2             
iter:  18  21:51:49  -6.45  -3.75  -263.940575    2             
iter:  19  21:52:58  -6.39  -3.82  -263.940951    2             
iter:  20  21:54:06  -6.45  -3.94  -263.940358    2             
iter:  21  21:55:14  -6.93  -3.84  -263.940798    2             
iter:  22  21:56:23  -6.90  -4.17  -263.940490    2             
iter:  23  21:57:32  -6.90  -4.02  -263.941060    2             
iter:  24  21:58:40  -6.51  -4.17  -263.940660    2             
iter:  25  21:59:38  -7.21  -4.17  -263.940834    2             
iter:  26  22:00:30  -7.69  -4.43  -263.940593    2             

Converged after 26 iterations.

Dipole moment: (14.971052, 20.051485, -0.246124) |e|*Ang

Energy contributions relative to reference atoms: (reference = -16429278.754816)

Kinetic:       -144.125039
Potential:      +88.679808
External:        +0.000000
XC:            -201.060737
Entropy (-ST):   -2.135784
Local:           -6.366733
--------------------------
Free energy:   -265.008485
Extrapolated:  -263.940593

Fermi level: 1.23543

Showing only first 2 kpts
 Kpt  Band  Eigenvalues  Occupancy
  0   357      1.21971    0.13480
  0   358      1.25133    0.11508
  0   359      1.29529    0.08867
  0   360      1.32496    0.07250

  1   357      1.12690    0.18687
  1   358      1.15964    0.17023
  1   359      1.20376    0.14463
  1   360      1.22512    0.13144



Forces in eV/Ang:
  0 Ag   -0.41868    0.15772   -1.04793
  1 Ag    0.25291    0.22658   -0.85260
  2 Ir    0.49785   -0.18565    0.03315
  3 Ir   -0.10123    1.23272    1.38772
  4 Ir    0.42060    0.41879    0.87697
  5 Ir   -0.32843   -0.02408    1.21258
  6 Ir   -1.72586   -0.50134    0.73575
  7 Ag   -0.11795   -0.34449   -0.93186
  8 Pt    1.06279   -0.39015    0.45273
  9 Ag    0.11432    0.01625    0.20079
 10 Ir   -0.04343   -0.45769    0.93447
 11 Ir   -0.66087   -0.77988   -0.48139
 12 Ir    0.37890    0.17605    0.17009
 13 Ag   -0.00890   -0.01196    0.16258
 14 Ag    0.05300    0.07735    0.14952
 15 Pt   -0.13189   -0.03657   -0.59479
 16 Ru    0.61600    0.45780   -1.39197
 17 Ir    0.12741    0.27916   -1.28323
 18 Ir   -0.00470    0.01862    0.13090
 19 Pt    0.04438   -0.01337    0.16310
 20 Pt   -0.07173    0.01193   -0.01294
 21 Ag    0.05514   -0.04667    0.02526
 22 Ag   -0.05155   -0.10892    0.07607
 23 Ag    0.00134   -0.01473   -0.08022
 24 Pt    0.02456    0.00042   -0.03722
 25 Ag    0.01234    0.06124    0.04316
 26 Ir    0.01308    0.05193   -0.03804
 27 Ru   -0.15702    0.05976    0.09511
 28 Ir    0.02451    0.01500   -0.27987
 29 Ir    0.30190    0.07192   -0.10696
 30 Ir   -0.02706   -0.07537    0.08051
 31 Ir    0.10307   -0.12118   -0.37416
 32 Pt    0.00479   -0.20665    0.21990
 33 Ag   -0.06235    0.03083   -0.07506
 34 Ir    0.10098    0.06500   -0.28560
 35 Ru    0.07132    0.03750   -0.18171
 36 Ir   -0.15483    0.27133    0.07590
 37 Ir    0.00687   -0.13269    0.10233
 38 Pt    0.36829    0.32634   -0.03513
 39 Ag   -0.45700    0.41961    0.37334
 40 Ir    0.41434    0.04548    0.26329
 41 Pt    0.05433    0.01606    0.48248
 42 Ir   -0.43121   -0.04548    0.16251
 43 Ir    0.31810   -0.16170    0.10331
 44 Ag    0.07120   -0.45203    0.24477
 45 O    -0.53338   -0.44367   -0.96597

System changes: positions 

Initializing position-dependent things.

Density initialized from wave functions
                                             
                                             
                                             
                                             
                                             
                                             
                             O Ag            
                  Ir    Ir                   
             Ag    Ir     Pt    Ru           
                  Ag                         
       Ir    IIr    IPt     Pt               
                      Ir                     
         Ru    Ir    Pt     Ag     Ir        
                Ag     Ag     Ag             
                                             
           Ir    PPt    RPt    Ir            
                                             
            Ir    IAg    AAg    Pt           
       Ag    IIr    IIr    Ir                
                                             
        Ag     Ag     Ir                     
                                             
                                             
                                             
                                             
                                             

Positions:
   0 Ag     0.000000    1.621936   10.000000    ( 0.0000,  0.0000,  0.0000)
   1 Ag     2.809275    1.621936   10.000000    ( 0.0000,  0.0000,  0.0000)
   2 Ir     5.618550    1.621936   10.000000    ( 0.0000,  0.0000,  0.0000)
   3 Ir     1.404638    4.054840   10.000000    ( 0.0000,  0.0000,  0.0000)
   4 Ir     4.213913    4.054840   10.000000    ( 0.0000,  0.0000,  0.0000)
   5 Ir     7.023188    4.054840   10.000000    ( 0.0000,  0.0000,  0.0000)
   6 Ir     2.809275    6.487743   10.000000    ( 0.0000,  0.0000,  0.0000)
   7 Ag     5.618550    6.487743   10.000000    ( 0.0000,  0.0000,  0.0000)
   8 Pt     8.427826    6.487743   10.000000    ( 0.0000,  0.0000,  0.0000)
   9 Ag     0.000000    0.000000   12.293764    ( 0.0000,  0.0000,  0.0000)
  10 Ir     2.809275    0.000000   12.293764    ( 0.0000,  0.0000,  0.0000)
  11 Ir     5.618550    0.000000   12.293764    ( 0.0000,  0.0000,  0.0000)
  12 Ir     1.404638    2.432904   12.293764    ( 0.0000,  0.0000,  0.0000)
  13 Ag     4.213913    2.432904   12.293764    ( 0.0000,  0.0000,  0.0000)
  14 Ag     7.023188    2.432904   12.293764    ( 0.0000,  0.0000,  0.0000)
  15 Pt     2.809275    4.865807   12.293764    ( 0.0000,  0.0000,  0.0000)
  16 Ru     5.618550    4.865807   12.293764    ( 0.0000,  0.0000,  0.0000)
  17 Ir     8.427826    4.865807   12.293764    ( 0.0000,  0.0000,  0.0000)
  18 Ir     1.442339    0.804101   14.606487    ( 0.0000,  0.0000,  0.0000)
  19 Pt     4.188477    0.717749   14.607342    ( 0.0000,  0.0000,  0.0000)
  20 Pt     7.027077    0.808501   14.649845    ( 0.0000,  0.0000,  0.0000)
  21 Ag     2.797278    3.265238   14.620384    ( 0.0000,  0.0000,  0.0000)
  22 Ag     5.614740    3.221087   14.642375    ( 0.0000,  0.0000,  0.0000)
  23 Ag     8.466630    3.242191   14.600937    ( 0.0000,  0.0000,  0.0000)
  24 Pt     4.242038    5.676050   14.608585    ( 0.0000,  0.0000,  0.0000)
  25 Ag     7.018795    5.621303   14.591962    ( 0.0000,  0.0000,  0.0000)
  26 Ir     9.812853    5.744832   14.530265    ( 0.0000,  0.0000,  0.0000)
  27 Ru     0.060405    1.653188   16.906867    ( 0.0000,  0.0000,  0.0000)
  28 Ir     2.760591    1.635911   16.901600    ( 0.0000,  0.0000,  0.0000)
  29 Ir     5.624330    1.627528   16.977020    ( 0.0000,  0.0000,  0.0000)
  30 Ir     1.346857    4.002170   17.001705    ( 0.0000,  0.0000,  0.0000)
  31 Ir     4.212118    3.971393   16.944167    ( 0.0000,  0.0000,  0.0000)
  32 Pt     7.130037    4.039001   16.994012    ( 0.0000,  0.0000,  0.0000)
  33 Ag     2.752448    6.471202   16.784953    ( 0.0000,  0.0000,  0.0000)
  34 Ir     5.669228    6.555453   16.851913    ( 0.0000,  0.0000,  0.0000)
  35 Ru     8.417404    6.471807   16.897265    ( 0.0000,  0.0000,  0.0000)
  36 Ir     0.018048   -0.090674   18.975307    ( 0.0000,  0.0000,  0.0000)
  37 Ir     2.768271   -0.025352   18.983027    ( 0.0000,  0.0000,  0.0000)
  38 Pt     5.632231   -0.030748   19.112075    ( 0.0000,  0.0000,  0.0000)
  39 Ag     1.569867    2.338698   19.577050    ( 0.0000,  0.0000,  0.0000)
  40 Ir     4.241906    2.406608   19.029376    ( 0.0000,  0.0000,  0.0000)
  41 Pt     7.017050    2.353899   19.370616    ( 0.0000,  0.0000,  0.0000)
  42 Ir     2.913101    4.886553   19.026959    ( 0.0000,  0.0000,  0.0000)
  43 Ir     5.524706    4.949243   19.011831    ( 0.0000,  0.0000,  0.0000)
  44 Ag     8.405269    5.025007   19.566803    ( 0.0000,  0.0000,  0.0000)
  45 O      8.111917    3.044110   20.601434    ( 0.0000,  0.0000,  0.0000)

Unit cell:
           periodic     x           y           z      points  spacing
  1. axis:    yes    8.445283    0.000000    0.000000    35     0.2090
  2. axis:    yes    4.222641    7.313829    0.000000    35     0.2090
  3. axis:    no     0.000000    0.000000   29.175054   135     0.2161

  Lengths:   8.445283   8.445283  29.175054
  Angles:   90.000000  90.000000  60.000000

Effective grid spacing dv^(1/3) = 0.2217

                     log10-error:    total        iterations:
           time      wfs    density  energy       fermi  poisson
iter:   1  22:01:42  -1.95   +inf  -270.512056    3             
iter:   2  22:02:32  -1.58  -1.94  -325.511983    36            
iter:   3  22:03:22  -1.62  -1.31  -280.443333    3             
iter:   4  22:04:12  -2.79  -1.60  -264.634953    4             
iter:   5  22:05:01  -3.07  -2.24  -264.257608    3             
iter:   6  22:05:51  -3.80  -2.37  -263.935466    3             
iter:   7  22:06:41  -4.33  -2.67  -263.889273    3             
iter:   8  22:07:31  -4.11  -2.79  -263.847091    3             
iter:   9  22:08:18  -3.85  -2.82  -263.806275    3             
iter:  10  22:09:15  -4.28  -3.08  -263.833265    3             
iter:  11  22:10:14  -4.79  -2.74  -263.811091    2             
iter:  12  22:11:12  -4.69  -3.01  -263.793977    2             
iter:  13  22:12:10  -5.14  -3.15  -263.791045    2             
iter:  14  22:13:09  -5.58  -3.34  -263.791093    2             
iter:  15  22:14:08  -5.41  -3.54  -263.792441    2             
iter:  16  22:15:05  -5.66  -3.58  -263.792384    2             
iter:  17  22:16:04  -5.72  -3.64  -263.791531    2             
iter:  18  22:17:04  -6.12  -3.73  -263.792074    2             
iter:  19  22:18:01  -6.18  -3.78  -263.790647    2             
iter:  20  22:18:59  -6.82  -3.82  -263.791516    2             
iter:  21  22:19:56  -6.77  -4.00  -263.790835    2             
iter:  22  22:20:55  -6.58  -4.04  -263.790734    2             
iter:  23  22:21:52  -6.80  -4.14  -263.790758    2             
iter:  24  22:22:50  -7.31  -4.19  -263.790921    2             
iter:  25  22:23:49  -7.57  -4.50  -263.790882    2             

Converged after 25 iterations.

Dipole moment: (14.846504, 19.279713, -0.088149) |e|*Ang

Energy contributions relative to reference atoms: (reference = -16429278.754816)

Kinetic:       -135.166321
Potential:      +80.954137
External:        +0.000000
XC:            -202.093091
Entropy (-ST):   -2.123296
Local:           -6.423960
--------------------------
Free energy:   -264.852530
Extrapolated:  -263.790882

Fermi level: 1.31866

Showing only first 2 kpts
 Kpt  Band  Eigenvalues  Occupancy
  0   357      1.29839    0.13762
  0   358      1.33821    0.11282
  0   359      1.38022    0.08770
  0   360      1.40495    0.07418

  1   357      1.21799    0.18309
  1   358      1.24042    0.17155
  1   359      1.29061    0.14242
  1   360      1.31556    0.12694



Forces in eV/Ang:
  0 Ag   -0.41695    0.15706   -1.04889
  1 Ag    0.25005    0.22396   -0.85287
  2 Ir    0.49946   -0.18655    0.03743
  3 Ir   -0.10310    1.22901    1.38260
  4 Ir    0.41816    0.42067    0.88039
  5 Ir   -0.32225   -0.02422    1.20941
  6 Ir   -1.72385   -0.50036    0.72669
  7 Ag   -0.11628   -0.34081   -0.92362
  8 Pt    1.05474   -0.39021    0.44596
  9 Ag    0.11761    0.02693    0.23455
 10 Ir   -0.03696   -0.43220    0.98613
 11 Ir   -0.65824   -0.76656   -0.46958
 12 Ir    0.40043    0.17758    0.17112
 13 Ag   -0.00899   -0.01996    0.18811
 14 Ag    0.04014    0.07530    0.16102
 15 Pt   -0.11838   -0.04396   -0.57033
 16 Ru    0.61932    0.44771   -1.37123
 17 Ir    0.11129    0.28437   -1.27485
 18 Ir   -0.03748    0.04056    0.05226
 19 Pt    0.03653    0.01511    0.09413
 20 Pt   -0.01206    0.01269   -0.09849
 21 Ag   -0.01249   -0.01163   -0.08885
 22 Ag    0.01848   -0.04444   -0.03634
 23 Ag   -0.00944    0.00705   -0.06339
 24 Pt    0.02224   -0.02540   -0.06692
 25 Ag    0.03282   -0.03195    0.00145
 26 Ir   -0.00742    0.01773   -0.06120
 27 Ru   -0.01742    0.07224    0.10638
 28 Ir    0.12439   -0.03618   -0.03219
 29 Ir    0.07928    0.07931   -0.24891
 30 Ir    0.05660   -0.08731    0.17522
 31 Ir    0.02668   -0.02720    0.20128
 32 Pt    0.04786   -0.09271    0.18570
 33 Ag    0.06623   -0.09967    0.05197
 34 Ir    0.08980    0.08005    0.07999
 35 Ru   -0.03055    0.05228   -0.15305
 36 Ir    0.04221   -0.06159   -0.01898
 37 Ir   -0.02834   -0.09633   -0.08336
 38 Pt    0.24327    0.20989    0.00129
 39 Ag   -0.19894    0.38180    0.11129
 40 Ir    0.32719    0.09996   -0.10386
 41 Pt   -2.80112   -1.78306   -2.47953
 42 Ir    0.00244   -0.08480   -0.11226
 43 Ir   -0.19991    0.13557   -0.03101
 44 Ag    0.19795   -0.22974    0.02838
 45 O     1.96559    1.22495    2.43862

System changes: positions 

Initializing position-dependent things.

Density initialized from wave functions
                                             
                                             
                                             
                                             
                                             
                                             
                             O Ag            
                  Ir    Ir                   
             Ag           Pt    Ru           
                  AIr                        
       Ir    IIr    IPt     Pt               
                                             
         Ru    Ir    PIr    Ag     Ir        
                Ag     Ag     Ag             
                                             
           Ir    PPt    RPt    Ir            
                                             
            Ir    IAg    AAg    Pt           
       Ag     Ir     Ir                      
             Ir     Ir     Ir                
        Ag     Ag     Ir                     
                                             
                                             
                                             
                                             
                                             

Positions:
   0 Ag     0.000000    1.621936   10.000000    ( 0.0000,  0.0000,  0.0000)
   1 Ag     2.809275    1.621936   10.000000    ( 0.0000,  0.0000,  0.0000)
   2 Ir     5.618550    1.621936   10.000000    ( 0.0000,  0.0000,  0.0000)
   3 Ir     1.404638    4.054840   10.000000    ( 0.0000,  0.0000,  0.0000)
   4 Ir     4.213913    4.054840   10.000000    ( 0.0000,  0.0000,  0.0000)
   5 Ir     7.023188    4.054840   10.000000    ( 0.0000,  0.0000,  0.0000)
   6 Ir     2.809275    6.487743   10.000000    ( 0.0000,  0.0000,  0.0000)
   7 Ag     5.618550    6.487743   10.000000    ( 0.0000,  0.0000,  0.0000)
   8 Pt     8.427826    6.487743   10.000000    ( 0.0000,  0.0000,  0.0000)
   9 Ag     0.000000    0.000000   12.293764    ( 0.0000,  0.0000,  0.0000)
  10 Ir     2.809275    0.000000   12.293764    ( 0.0000,  0.0000,  0.0000)
  11 Ir     5.618550    0.000000   12.293764    ( 0.0000,  0.0000,  0.0000)
  12 Ir     1.404638    2.432904   12.293764    ( 0.0000,  0.0000,  0.0000)
  13 Ag     4.213913    2.432904   12.293764    ( 0.0000,  0.0000,  0.0000)
  14 Ag     7.023188    2.432904   12.293764    ( 0.0000,  0.0000,  0.0000)
  15 Pt     2.809275    4.865807   12.293764    ( 0.0000,  0.0000,  0.0000)
  16 Ru     5.618550    4.865807   12.293764    ( 0.0000,  0.0000,  0.0000)
  17 Ir     8.427826    4.865807   12.293764    ( 0.0000,  0.0000,  0.0000)
  18 Ir     1.442340    0.800891   14.599797    ( 0.0000,  0.0000,  0.0000)
  19 Pt     4.188140    0.720622   14.603148    ( 0.0000,  0.0000,  0.0000)
  20 Pt     7.030843    0.807140   14.647181    ( 0.0000,  0.0000,  0.0000)
  21 Ag     2.794027    3.267031   14.617114    ( 0.0000,  0.0000,  0.0000)
  22 Ag     5.616192    3.226351   14.637474    ( 0.0000,  0.0000,  0.0000)
  23 Ag     8.466209    3.242069   14.604809    ( 0.0000,  0.0000,  0.0000)
  24 Pt     4.240310    5.675877   14.607911    ( 0.0000,  0.0000,  0.0000)
  25 Ag     7.018722    5.620112   14.590029    ( 0.0000,  0.0000,  0.0000)
  26 Ir     9.811933    5.744101   14.532265    ( 0.0000,  0.0000,  0.0000)
  27 Ru     0.070961    1.651899   16.907788    ( 0.0000,  0.0000,  0.0000)
  28 Ir     2.756816    1.633798   16.904766    ( 0.0000,  0.0000,  0.0000)
  29 Ir     5.600364    1.619291   16.962423    ( 0.0000,  0.0000,  0.0000)
  30 Ir     1.350112    4.005520   17.001591    ( 0.0000,  0.0000,  0.0000)
  31 Ir     4.206168    3.976420   16.958345    ( 0.0000,  0.0000,  0.0000)
  32 Pt     7.128944    4.048820   16.988197    ( 0.0000,  0.0000,  0.0000)
  33 Ag     2.755825    6.471000   16.790804    ( 0.0000,  0.0000,  0.0000)
  34 Ir     5.665013    6.555058   16.863097    ( 0.0000,  0.0000,  0.0000)
  35 Ru     8.411599    6.472955   16.896579    ( 0.0000,  0.0000,  0.0000)
  36 Ir     0.022330   -0.091869   18.977638    ( 0.0000,  0.0000,  0.0000)
  37 Ir     2.769770   -0.021252   18.980200    ( 0.0000,  0.0000,  0.0000)
  38 Pt     5.619306   -0.045094   19.117270    ( 0.0000,  0.0000,  0.0000)
  39 Ag     1.551535    2.343354   19.560197    ( 0.0000,  0.0000,  0.0000)
  40 Ir     4.226512    2.404521   19.019137    ( 0.0000,  0.0000,  0.0000)
  41 Pt     7.004714    2.345240   19.306626    ( 0.0000,  0.0000,  0.0000)
  42 Ir     2.927781    4.887671   19.025422    ( 0.0000,  0.0000,  0.0000)
  43 Ir     5.515045    4.954305   19.011726    ( 0.0000,  0.0000,  0.0000)
  44 Ag     8.403464    5.008589   19.553032    ( 0.0000,  0.0000,  0.0000)
  45 O      8.188726    3.090378   20.681552    ( 0.0000,  0.0000,  0.0000)

Unit cell:
           periodic     x           y           z      points  spacing
  1. axis:    yes    8.445283    0.000000    0.000000    35     0.2090
  2. axis:    yes    4.222641    7.313829    0.000000    35     0.2090
  3. axis:    no     0.000000    0.000000   29.175054   135     0.2161

  Lengths:   8.445283   8.445283  29.175054
  Angles:   90.000000  90.000000  60.000000

Effective grid spacing dv^(1/3) = 0.2217

                     log10-error:    total        iterations:
           time      wfs    density  energy       fermi  poisson
iter:   1  22:25:13  -1.96   +inf  -267.207180    3             
iter:   2  22:26:11  -2.25  -2.15  -281.616757    3             
iter:   3  22:27:10  -2.14  -1.56  -272.898307    3             
iter:   4  22:28:08  -2.69  -1.66  -265.165097    3             
iter:   5  22:29:07  -3.00  -2.16  -264.176551    4             
iter:   6  22:30:05  -4.19  -2.71  -264.099536    3             
iter:   7  22:31:02  -4.69  -2.91  -264.075109    3             
iter:   8  22:32:00  -4.29  -2.98  -264.072526    2             
iter:   9  22:32:59  -4.24  -2.86  -264.135036    3             
iter:  10  22:33:58  -4.26  -2.58  -264.052772    3             
iter:  11  22:34:56  -4.79  -2.93  -264.034537    3             
iter:  12  22:35:53  -5.36  -3.18  -264.031094    2             
iter:  13  22:36:51  -5.47  -3.24  -264.025642    2             
iter:  14  22:37:49  -5.71  -3.54  -264.024503    2             
iter:  15  22:38:47  -6.18  -3.70  -264.025285    2             
iter:  16  22:39:46  -5.86  -3.65  -264.023816    2             
iter:  17  22:40:52  -5.98  -3.66  -264.025622    2             
iter:  18  22:41:58  -6.24  -3.71  -264.024495    2             
iter:  19  22:43:04  -6.60  -3.96  -264.024402    2             
iter:  20  22:44:09  -6.82  -4.05  -264.024892    2             
iter:  21  22:45:15  -6.99  -4.03  -264.024659    2             
iter:  22  22:46:21  -7.00  -4.24  -264.024134    2             
iter:  23  22:47:27  -7.29  -4.06  -264.024510    2             
iter:  24  22:48:33  -7.68  -4.42  -264.024394    2             

Converged after 24 iterations.

Dipole moment: (14.902540, 19.750735, -0.187669) |e|*Ang

Energy contributions relative to reference atoms: (reference = -16429278.754816)

Kinetic:       -142.838228
Potential:      +87.513352
External:        +0.000000
XC:            -201.259853
Entropy (-ST):   -2.133243
Local:           -6.373044
--------------------------
Free energy:   -265.091016
Extrapolated:  -264.024394

Fermi level: 1.26579

Showing only first 2 kpts
 Kpt  Band  Eigenvalues  Occupancy
  0   357      1.24831    0.13590
  0   358      1.28458    0.11329
  0   359      1.32554    0.08873
  0   360      1.35397    0.07320

  1   357      1.16121    0.18499
  1   358      1.18910    0.17071
  1   359      1.23589    0.14355
  1   360      1.25947    0.12895



Forces in eV/Ang:
  0 Ag   -0.41645    0.15638   -1.04905
  1 Ag    0.24935    0.22506   -0.85345
  2 Ir    0.50028   -0.18423    0.03568
  3 Ir   -0.10094    1.22966    1.39112
  4 Ir    0.42016    0.41907    0.88005
  5 Ir   -0.32675   -0.02800    1.21212
  6 Ir   -1.72234   -0.50034    0.73308
  7 Ag   -0.11850   -0.34005   -0.92955
  8 Pt    1.05875   -0.38949    0.45292
  9 Ag    0.11864    0.02256    0.21540
 10 Ir   -0.04490   -0.44637    0.95874
 11 Ir   -0.66035   -0.77292   -0.47720
 12 Ir    0.38791    0.17274    0.17175
 13 Ag   -0.00965   -0.01566    0.17553
 14 Ag    0.04905    0.07630    0.15639
 15 Pt   -0.12472   -0.04036   -0.58197
 16 Ru    0.61856    0.45497   -1.38095
 17 Ir    0.11865    0.28050   -1.27778
 18 Ir   -0.01923    0.02704    0.09218
 19 Pt    0.04309   -0.00025    0.13535
 20 Pt   -0.04874    0.01186   -0.05018
 21 Ag    0.02823   -0.03033   -0.02108
 22 Ag   -0.02444   -0.08189    0.02886
 23 Ag   -0.00267   -0.00377   -0.07076
 24 Pt    0.02233   -0.01035   -0.05155
 25 Ag    0.01986    0.02104    0.02710
 26 Ir    0.00529    0.03510   -0.04271
 27 Ru   -0.10024    0.06436    0.10780
 28 Ir    0.06949   -0.00307   -0.16000
 29 Ir    0.20834    0.07630   -0.14344
 30 Ir    0.01099   -0.07832    0.11557
 31 Ir    0.06405   -0.08065   -0.11446
 32 Pt    0.02313   -0.15902    0.21030
 33 Ag   -0.00966   -0.02881   -0.02298
 34 Ir    0.09187    0.06768   -0.11865
 35 Ru    0.03234    0.04483   -0.16743
 36 Ir   -0.06855    0.10921    0.02968
 37 Ir   -0.01008   -0.11477    0.03368
 38 Pt    0.31372    0.28190   -0.01284
 39 Ag   -0.33359    0.39915    0.26617
 40 Ir    0.37134    0.06859    0.10618
 41 Pt   -0.56957   -0.36680   -0.15941
 42 Ir   -0.22875   -0.06525    0.04860
 43 Ir    0.07335   -0.02775    0.03708
 44 Ag    0.12392   -0.34592    0.16041
 45 O    -0.13698   -0.13791    0.08561

System changes: positions 

Initializing position-dependent things.

Density initialized from wave functions
                                             
                                             
                                             
                                             
                                             
                                             
                             O Ag            
                  Ir    Ir                   
             Ag           Pt    Ru           
                  AIr                        
       Ir    IIr    IPt     Pt               
                                             
         Ru    Ir    PIr    Ag     Ir        
                Ag     Ag     Ag             
                                             
           Ir    PPt    RPt    Ir            
                                             
            Ir    IAg    AAg    Pt           
       Ag     Ir     Ir                      
             Ir     Ir     Ir                
        Ag     Ag     Ir                     
                                             
                                             
                                             
                                             
                                             

Positions:
   0 Ag     0.000000    1.621936   10.000000    ( 0.0000,  0.0000,  0.0000)
   1 Ag     2.809275    1.621936   10.000000    ( 0.0000,  0.0000,  0.0000)
   2 Ir     5.618550    1.621936   10.000000    ( 0.0000,  0.0000,  0.0000)
   3 Ir     1.404638    4.054840   10.000000    ( 0.0000,  0.0000,  0.0000)
   4 Ir     4.213913    4.054840   10.000000    ( 0.0000,  0.0000,  0.0000)
   5 Ir     7.023188    4.054840   10.000000    ( 0.0000,  0.0000,  0.0000)
   6 Ir     2.809275    6.487743   10.000000    ( 0.0000,  0.0000,  0.0000)
   7 Ag     5.618550    6.487743   10.000000    ( 0.0000,  0.0000,  0.0000)
   8 Pt     8.427826    6.487743   10.000000    ( 0.0000,  0.0000,  0.0000)
   9 Ag     0.000000    0.000000   12.293764    ( 0.0000,  0.0000,  0.0000)
  10 Ir     2.809275    0.000000   12.293764    ( 0.0000,  0.0000,  0.0000)
  11 Ir     5.618550    0.000000   12.293764    ( 0.0000,  0.0000,  0.0000)
  12 Ir     1.404638    2.432904   12.293764    ( 0.0000,  0.0000,  0.0000)
  13 Ag     4.213913    2.432904   12.293764    ( 0.0000,  0.0000,  0.0000)
  14 Ag     7.023188    2.432904   12.293764    ( 0.0000,  0.0000,  0.0000)
  15 Pt     2.809275    4.865807   12.293764    ( 0.0000,  0.0000,  0.0000)
  16 Ru     5.618550    4.865807   12.293764    ( 0.0000,  0.0000,  0.0000)
  17 Ir     8.427826    4.865807   12.293764    ( 0.0000,  0.0000,  0.0000)
  18 Ir     1.440379    0.805005   14.609572    ( 0.0000,  0.0000,  0.0000)
  19 Pt     4.191717    0.719457   14.615359    ( 0.0000,  0.0000,  0.0000)
  20 Pt     7.025627    0.808809   14.643505    ( 0.0000,  0.0000,  0.0000)
  21 Ag     2.797218    3.264138   14.615813    ( 0.0000,  0.0000,  0.0000)
  22 Ag     5.614267    3.217811   14.640998    ( 0.0000,  0.0000,  0.0000)
  23 Ag     8.466103    3.242156   14.597382    ( 0.0000,  0.0000,  0.0000)
  24 Pt     4.242945    5.674827   14.603738    ( 0.0000,  0.0000,  0.0000)
  25 Ag     7.020566    5.621242   14.592748    ( 0.0000,  0.0000,  0.0000)
  26 Ir     9.812616    5.746794   14.527657    ( 0.0000,  0.0000,  0.0000)
  27 Ru     0.059014    1.657853   16.916266    ( 0.0000,  0.0000,  0.0000)
  28 Ir     2.765691    1.634147   16.893848    ( 0.0000,  0.0000,  0.0000)
  29 Ir     5.626993    1.629892   16.957691    ( 0.0000,  0.0000,  0.0000)
  30 Ir     1.350374    3.997404   17.011897    ( 0.0000,  0.0000,  0.0000)
  31 Ir     4.213297    3.968503   16.949303    ( 0.0000,  0.0000,  0.0000)
  32 Pt     7.131910    4.032310   17.007781    ( 0.0000,  0.0000,  0.0000)
  33 Ag     2.754805    6.467056   16.787386    ( 0.0000,  0.0000,  0.0000)
  34 Ir     5.674316    6.560744   16.852588    ( 0.0000,  0.0000,  0.0000)
  35 Ru     8.416124    6.476134   16.884014    ( 0.0000,  0.0000,  0.0000)
  36 Ir     0.017121   -0.087293   18.977403    ( 0.0000,  0.0000,  0.0000)
  37 Ir     2.767670   -0.032060   18.982373    ( 0.0000,  0.0000,  0.0000)
  38 Pt     5.649602   -0.016281   19.114134    ( 0.0000,  0.0000,  0.0000)
  39 Ag     1.538334    2.372098   19.587246    ( 0.0000,  0.0000,  0.0000)
  40 Ir     4.263059    2.411781   19.028437    ( 0.0000,  0.0000,  0.0000)
  41 Pt     6.947521    2.309346   19.309129    ( 0.0000,  0.0000,  0.0000)
  42 Ir     2.907675    4.881291   19.026765    ( 0.0000,  0.0000,  0.0000)
  43 Ir     5.518842    4.953336   19.012790    ( 0.0000,  0.0000,  0.0000)
  44 Ag     8.415857    4.992876   19.570678    ( 0.0000,  0.0000,  0.0000)
  45 O      8.148539    3.063723   20.676621    ( 0.0000,  0.0000,  0.0000)

Unit cell:
           periodic     x           y           z      points  spacing
  1. axis:    yes    8.445283    0.000000    0.000000    35     0.2090
  2. axis:    yes    4.222641    7.313829    0.000000    35     0.2090
  3. axis:    no     0.000000    0.000000   29.175054   135     0.2161

  Lengths:   8.445283   8.445283  29.175054
  Angles:   90.000000  90.000000  60.000000

Effective grid spacing dv^(1/3) = 0.2217

                     log10-error:    total        iterations:
           time      wfs    density  energy       fermi  poisson
iter:   1  22:50:09  -2.19   +inf  -265.286921    3             
iter:   2  22:51:14  -2.71  -2.23  -266.880532    3             
iter:   3  22:52:20  -2.64  -1.93  -269.807488    3             
iter:   4  22:53:25  -3.27  -1.74  -264.167204    3             
iter:   5  22:54:31  -4.35  -2.80  -264.148669    3             
iter:   6  22:55:37  -4.57  -2.85  -264.136415    3             
iter:   7  22:56:43  -4.58  -2.97  -264.132266    3             
iter:   8  22:57:48  -4.87  -3.05  -264.125619    3             
iter:   9  22:58:54  -4.71  -3.13  -264.158385    2             
iter:  10  22:59:59  -4.63  -2.74  -264.122471    2             
iter:  11  23:01:05  -5.39  -3.24  -264.116779    2             
iter:  12  23:02:10  -5.82  -3.50  -264.116028    2             
iter:  13  23:03:16  -6.04  -3.55  -264.115184    2             
iter:  14  23:04:21  -5.71  -3.55  -264.115033    2             
iter:  15  23:05:27  -5.75  -3.64  -264.114795    2             
iter:  16  23:06:32  -5.52  -3.63  -264.120633    2             
iter:  17  23:07:38  -6.11  -3.37  -264.115100    2             
iter:  18  23:08:43  -6.83  -4.12  -264.115513    2             
iter:  19  23:09:49  -6.92  -4.06  -264.114982    2             
iter:  20  23:10:54  -7.07  -4.18  -264.115225    2             
iter:  21  23:12:00  -7.23  -4.22  -264.114986    2             
iter:  22  23:13:02  -7.71  -4.45  -264.115078    2             

Converged after 22 iterations.

Dipole moment: (16.399609, 18.997275, -0.182589) |e|*Ang

Energy contributions relative to reference atoms: (reference = -16429278.754816)

Kinetic:       -145.643142
Potential:      +89.801902
External:        +0.000000
XC:            -200.853716
Entropy (-ST):   -2.127323
Local:           -6.356460
--------------------------
Free energy:   -265.178740
Extrapolated:  -264.115078

Fermi level: 1.26829

Showing only first 2 kpts
 Kpt  Band  Eigenvalues  Occupancy
  0   357      1.25273    0.13471
  0   358      1.29243    0.10998
  0   359      1.32538    0.09026
  0   360      1.35782    0.07250

  1   357      1.17049    0.18168
  1   358      1.18719    0.17308
  1   359      1.23271    0.14701
  1   360      1.26231    0.12874



Forces in eV/Ang:
  0 Ag   -0.41800    0.15815   -1.04860
  1 Ag    0.25081    0.22524   -0.85246
  2 Ir    0.49875   -0.18564    0.03193
  3 Ir   -0.10320    1.23056    1.38929
  4 Ir    0.42221    0.42212    0.87550
  5 Ir   -0.32427   -0.02680    1.20621
  6 Ir   -1.72365   -0.50367    0.73090
  7 Ag   -0.11872   -0.34297   -0.92757
  8 Pt    1.05964   -0.38783    0.45926
  9 Ag    0.12935    0.02916    0.22471
 10 Ir   -0.04657   -0.42459    0.99438
 11 Ir   -0.66746   -0.76571   -0.48805
 12 Ir    0.40343    0.16399    0.15285
 13 Ag   -0.01016   -0.03162    0.18116
 14 Ag    0.03932    0.08064    0.13756
 15 Pt   -0.12373   -0.04373   -0.58805
 16 Ru    0.62662    0.44627   -1.36435
 17 Ir    0.11013    0.29534   -1.29113
 18 Ir   -0.01496    0.01211    0.00420
 19 Pt   -0.00471    0.01246    0.02821
 20 Pt    0.03899   -0.01635   -0.02490
 21 Ag   -0.01589    0.01684   -0.02622
 22 Ag    0.02715    0.03747   -0.04047
 23 Ag   -0.00334    0.01781    0.03634
 24 Pt    0.02427   -0.01196   -0.00703
 25 Ag    0.00114   -0.05364    0.00669
 26 Ir    0.00008   -0.00688   -0.01509
 27 Ru    0.05212    0.02045    0.03417
 28 Ir    0.07576   -0.04340    0.07729
 29 Ir    0.01529   -0.01391   -0.18317
 30 Ir    0.02668   -0.08101    0.08876
 31 Ir   -0.02544    0.02056    0.08426
 32 Pt    0.10203    0.02893    0.09912
 33 Ag    0.06836   -0.08322   -0.03082
 34 Ir    0.03773    0.03724    0.09188
 35 Ru   -0.04393   -0.01014   -0.02063
 36 Ir    0.05124   -0.02352   -0.02131
 37 Ir   -0.03581    0.00361   -0.03813
 38 Pt   -0.10802   -0.25739    0.02640
 39 Ag   -0.09689    0.14869    0.11081
 40 Ir   -0.14981    0.04916   -0.01637
 41 Pt    0.02089    0.09052    0.14945
 42 Ir    0.08178   -0.01566   -0.09389
 43 Ir   -0.08304    0.06695    0.01890
 44 Ag    0.10838   -0.14443    0.08160
 45 O    -0.29250   -0.18372    0.02442

System changes: positions 

Initializing position-dependent things.

Density initialized from wave functions
                                             
                                             
                                             
                                             
                                             
                                             
                             O Ag            
                  Ir    Ir                   
             Ag           Pt    Ru           
                  AIr                        
       Ir    IIr    IPt     Pt               
                                             
         Ru    Ir    PIr    Ag     Ir        
                Ag     Ag     Ag             
                                             
           Ir    PPt    RPt    Ir            
                                             
            Ir    IAg    AAg    Pt           
       Ag     Ir     Ir                      
             Ir     Ir     Ir                
        Ag     Ag     Ir                     
                                             
                                             
                                             
                                             
                                             

Positions:
   0 Ag     0.000000    1.621936   10.000000    ( 0.0000,  0.0000,  0.0000)
   1 Ag     2.809275    1.621936   10.000000    ( 0.0000,  0.0000,  0.0000)
   2 Ir     5.618550    1.621936   10.000000    ( 0.0000,  0.0000,  0.0000)
   3 Ir     1.404638    4.054840   10.000000    ( 0.0000,  0.0000,  0.0000)
   4 Ir     4.213913    4.054840   10.000000    ( 0.0000,  0.0000,  0.0000)
   5 Ir     7.023188    4.054840   10.000000    ( 0.0000,  0.0000,  0.0000)
   6 Ir     2.809275    6.487743   10.000000    ( 0.0000,  0.0000,  0.0000)
   7 Ag     5.618550    6.487743   10.000000    ( 0.0000,  0.0000,  0.0000)
   8 Pt     8.427826    6.487743   10.000000    ( 0.0000,  0.0000,  0.0000)
   9 Ag     0.000000    0.000000   12.293764    ( 0.0000,  0.0000,  0.0000)
  10 Ir     2.809275    0.000000   12.293764    ( 0.0000,  0.0000,  0.0000)
  11 Ir     5.618550    0.000000   12.293764    ( 0.0000,  0.0000,  0.0000)
  12 Ir     1.404638    2.432904   12.293764    ( 0.0000,  0.0000,  0.0000)
  13 Ag     4.213913    2.432904   12.293764    ( 0.0000,  0.0000,  0.0000)
  14 Ag     7.023188    2.432904   12.293764    ( 0.0000,  0.0000,  0.0000)
  15 Pt     2.809275    4.865807   12.293764    ( 0.0000,  0.0000,  0.0000)
  16 Ru     5.618550    4.865807   12.293764    ( 0.0000,  0.0000,  0.0000)
  17 Ir     8.427826    4.865807   12.293764    ( 0.0000,  0.0000,  0.0000)
  18 Ir     1.437894    0.808352   14.614213    ( 0.0000,  0.0000,  0.0000)
  19 Pt     4.192609    0.720109   14.623284    ( 0.0000,  0.0000,  0.0000)
  20 Pt     7.027548    0.807871   14.639419    ( 0.0000,  0.0000,  0.0000)
  21 Ag     2.796888    3.264763   14.612480    ( 0.0000,  0.0000,  0.0000)
  22 Ag     5.616510    3.218153   14.638181    ( 0.0000,  0.0000,  0.0000)
  23 Ag     8.465720    3.244211   14.598032    ( 0.0000,  0.0000,  0.0000)
  24 Pt     4.246736    5.673068   14.601342    ( 0.0000,  0.0000,  0.0000)
  25 Ag     7.021472    5.615709   14.594585    ( 0.0000,  0.0000,  0.0000)
  26 Ir     9.812924    5.747015   14.523993    ( 0.0000,  0.0000,  0.0000)
  27 Ru     0.059244    1.662512   16.923153    ( 0.0000,  0.0000,  0.0000)
  28 Ir     2.778070    1.629739   16.898695    ( 0.0000,  0.0000,  0.0000)
  29 Ir     5.640883    1.633528   16.937819    ( 0.0000,  0.0000,  0.0000)
  30 Ir     1.353280    3.985214   17.025654    ( 0.0000,  0.0000,  0.0000)
  31 Ir     4.213671    3.967439   16.955584    ( 0.0000,  0.0000,  0.0000)
  32 Pt     7.144244    4.028329   17.026464    ( 0.0000,  0.0000,  0.0000)
  33 Ag     2.761798    6.456119   16.782564    ( 0.0000,  0.0000,  0.0000)
  34 Ir     5.682332    6.566963   16.858599    ( 0.0000,  0.0000,  0.0000)
  35 Ru     8.413514    6.476192   16.877245    ( 0.0000,  0.0000,  0.0000)
  36 Ir     0.020902   -0.089480   18.974299    ( 0.0000,  0.0000,  0.0000)
  37 Ir     2.762695   -0.036138   18.978822    ( 0.0000,  0.0000,  0.0000)
  38 Pt     5.650725   -0.031385   19.115319    ( 0.0000,  0.0000,  0.0000)
  39 Ag     1.526459    2.398144   19.610465    ( 0.0000,  0.0000,  0.0000)
  40 Ir     4.262529    2.420283   19.029999    ( 0.0000,  0.0000,  0.0000)
  41 Pt     6.923433    2.302689   19.327841    ( 0.0000,  0.0000,  0.0000)
  42 Ir     2.908852    4.876854   19.016346    ( 0.0000,  0.0000,  0.0000)
  43 Ir     5.510269    4.960773   19.014583    ( 0.0000,  0.0000,  0.0000)
  44 Ag     8.432886    4.974563   19.587027    ( 0.0000,  0.0000,  0.0000)
  45 O      8.096199    3.031109   20.677484    ( 0.0000,  0.0000,  0.0000)

Unit cell:
           periodic     x           y           z      points  spacing
  1. axis:    yes    8.445283    0.000000    0.000000    35     0.2090
  2. axis:    yes    4.222641    7.313829    0.000000    35     0.2090
  3. axis:    no     0.000000    0.000000   29.175054   135     0.2161

  Lengths:   8.445283   8.445283  29.175054
  Angles:   90.000000  90.000000  60.000000

Effective grid spacing dv^(1/3) = 0.2217

                     log10-error:    total        iterations:
           time      wfs    density  energy       fermi  poisson
iter:   1  23:14:40  -2.64   +inf  -264.379518    3             
iter:   2  23:15:48  -3.13  -2.49  -265.510370    3             
iter:   3  23:16:56  -3.24  -2.09  -265.098912    3             
iter:   4  23:18:04  -3.67  -2.12  -264.221655    3             
iter:   5  23:19:11  -4.65  -2.73  -264.158384    3             
iter:   6  23:20:19  -4.95  -3.08  -264.149944    2             
iter:   7  23:21:17  -4.95  -3.14  -264.146864    2             
iter:   8  23:22:14  -4.85  -3.18  -264.143352    2             
iter:   9  23:23:13  -5.21  -3.40  -264.142665    2             
iter:  10  23:24:11  -5.58  -3.40  -264.142882    2             
[...]
  20 Pt     7.036613    0.807351   14.643937    ( 0.0000,  0.0000,  0.0000)
  21 Ag     2.796030    3.267404   14.618418    ( 0.0000,  0.0000,  0.0000)
  22 Ag     5.624178    3.219582   14.638165    ( 0.0000,  0.0000,  0.0000)
  23 Ag     8.469635    3.245967   14.613716    ( 0.0000,  0.0000,  0.0000)
  24 Pt     4.252817    5.673266   14.600023    ( 0.0000,  0.0000,  0.0000)
  25 Ag     7.023011    5.615292   14.595336    ( 0.0000,  0.0000,  0.0000)
  26 Ir     9.812316    5.751346   14.522114    ( 0.0000,  0.0000,  0.0000)
  27 Ru     0.071224    1.658014   16.935312    ( 0.0000,  0.0000,  0.0000)
  28 Ir     2.782287    1.618434   16.899605    ( 0.0000,  0.0000,  0.0000)
  29 Ir     5.638150    1.625315   16.944331    ( 0.0000,  0.0000,  0.0000)
  30 Ir     1.368463    3.967837   17.039646    ( 0.0000,  0.0000,  0.0000)
  31 Ir     4.227247    3.966109   16.948781    ( 0.0000,  0.0000,  0.0000)
  32 Pt     7.158183    4.033926   17.043270    ( 0.0000,  0.0000,  0.0000)
  33 Ag     2.766331    6.450124   16.775196    ( 0.0000,  0.0000,  0.0000)
  34 Ir     5.687072    6.563225   16.861652    ( 0.0000,  0.0000,  0.0000)
  35 Ru     8.413571    6.467232   16.871713    ( 0.0000,  0.0000,  0.0000)
  36 Ir     0.012492   -0.079914   18.971734    ( 0.0000,  0.0000,  0.0000)
  37 Ir     2.763614   -0.032982   18.991790    ( 0.0000,  0.0000,  0.0000)
  38 Pt     5.624032   -0.062403   19.093184    ( 0.0000,  0.0000,  0.0000)
  39 Ag     1.523242    2.401232   19.646334    ( 0.0000,  0.0000,  0.0000)
  40 Ir     4.232780    2.398553   19.020039    ( 0.0000,  0.0000,  0.0000)
  41 Pt     6.901527    2.292089   19.337117    ( 0.0000,  0.0000,  0.0000)
  42 Ir     2.916598    4.874716   19.020872    ( 0.0000,  0.0000,  0.0000)
  43 Ir     5.517432    4.966526   19.017321    ( 0.0000,  0.0000,  0.0000)
  44 Ag     8.437306    4.950838   19.615138    ( 0.0000,  0.0000,  0.0000)
  45 O      8.079969    3.017717   20.718653    ( 0.0000,  0.0000,  0.0000)

Unit cell:
           periodic     x           y           z      points  spacing
  1. axis:    yes    8.445283    0.000000    0.000000    35     0.2090
  2. axis:    yes    4.222641    7.313829    0.000000    35     0.2090
  3. axis:    no     0.000000    0.000000   29.175054   135     0.2161

  Lengths:   8.445283   8.445283  29.175054
  Angles:   90.000000  90.000000  60.000000

Effective grid spacing dv^(1/3) = 0.2217

                     log10-error:    total        iterations:
           time      wfs    density  energy       fermi  poisson
iter:   1  00:13:39  -3.51   +inf  -264.211668    3             
iter:   2  00:14:37  -3.40  -2.82  -266.079905    3             
iter:   3  00:15:35  -3.64  -2.00  -264.173473    2             
iter:   4  00:16:34  -4.93  -3.26  -264.171097    3             
iter:   5  00:17:32  -5.63  -3.36  -264.169708    3             
iter:   6  00:18:26  -5.89  -3.58  -264.169300    2             
iter:   7  00:19:20  -5.66  -3.67  -264.168925    2             
iter:   8  00:20:23  -5.90  -3.86  -264.169866    2             
iter:   9  00:21:28  -6.63  -3.82  -264.168568    2             
iter:  10  00:22:33  -6.61  -3.82  -264.168778    2             
iter:  11  00:23:39  -7.02  -4.08  -264.168953    2             
iter:  12  00:24:45  -6.89  -4.09  -264.168760    2             
iter:  13  00:25:50  -7.25  -4.24  -264.168612    2             
iter:  14  00:26:56  -7.37  -4.28  -264.168792    2             
iter:  15  00:28:02  -7.55  -4.35  -264.168424    2             

Converged after 15 iterations.

Dipole moment: (19.350356, 20.361114, -0.175868) |e|*Ang

Energy contributions relative to reference atoms: (reference = -16429278.754816)

Kinetic:       -146.651662
Potential:      +90.537201
External:        +0.000000
XC:            -200.626514
Entropy (-ST):   -2.116932
Local:           -6.368982
--------------------------
Free energy:   -265.226890
Extrapolated:  -264.168424

Fermi level: 1.26985

Showing only first 2 kpts
 Kpt  Band  Eigenvalues  Occupancy
  0   357      1.25706    0.13298
  0   358      1.29882    0.10702
  0   359      1.32814    0.08957
  0   360      1.36109    0.07163

  1   357      1.17152    0.18194
  1   358      1.18443    0.17536
  1   359      1.23369    0.14736
  1   360      1.27061    0.12452



Forces in eV/Ang:
  0 Ag   -0.41706    0.15823   -1.04976
  1 Ag    0.24992    0.22473   -0.85068
  2 Ir    0.49739   -0.19007    0.02928
  3 Ir   -0.10573    1.22266    1.38176
  4 Ir    0.42238    0.42105    0.86540
  5 Ir   -0.32268   -0.02235    1.19505
  6 Ir   -1.71836   -0.50192    0.71655
  7 Ag   -0.11843   -0.34447   -0.92705
  8 Pt    1.05533   -0.38558    0.45625
  9 Ag    0.13105    0.03309    0.20793
 10 Ir   -0.05008   -0.42228    1.00723
 11 Ir   -0.65399   -0.74497   -0.49779
 12 Ir    0.39186    0.17990    0.19771
 13 Ag   -0.01665   -0.02568    0.19289
 14 Ag    0.06605    0.09058    0.15912
 15 Pt   -0.12105   -0.05399   -0.58603
 16 Ru    0.63815    0.44748   -1.36693
 17 Ir    0.09937    0.26070   -1.27161
 18 Ir    0.00263    0.01733   -0.01500
 19 Pt   -0.00407    0.00652    0.00208
 20 Pt    0.02424    0.00739   -0.02857
 21 Ag    0.01086    0.00339   -0.01182
 22 Ag   -0.00213    0.02033   -0.00971
 23 Ag    0.02024    0.00316   -0.02881
 24 Pt    0.00852   -0.02607   -0.01473
 25 Ag    0.00227   -0.02550   -0.01364
 26 Ir   -0.00348   -0.02750   -0.01465
 27 Ru    0.00627   -0.00559    0.01417
 28 Ir    0.05006    0.02588    0.01331
 29 Ir   -0.04598    0.02237    0.05878
 30 Ir    0.00825   -0.00297    0.02950
 31 Ir    0.00306   -0.06915    0.07718
 32 Pt   -0.01408   -0.01414    0.02093
 33 Ag    0.00744   -0.02422    0.03405
 34 Ir   -0.02008   -0.03685   -0.01736
 35 Ru    0.00269    0.00006   -0.00017
 36 Ir   -0.00928   -0.01699   -0.00051
 37 Ir    0.01560    0.00241   -0.03094
 38 Pt    0.00903   -0.00330    0.01450
 39 Ag   -0.02400   -0.01999    0.06059
 40 Ir    0.02636   -0.00111   -0.08329
 41 Pt    0.01047    0.00435    0.00862
 42 Ir   -0.01231   -0.03077   -0.00419
 43 Ir    0.01132   -0.03226    0.00455
 44 Ag   -0.02785   -0.00065    0.03481
 45 O    -0.02458   -0.01628   -0.04994

System changes: positions 

Initializing position-dependent things.

Density initialized from wave functions
                                             
                                             
                                             
                                             
                                             
                                             
                             O Ag            
                  Ir    Ir                   
             Ag           Pt                 
                  AIr           Ru           
       Ir    IIr    IPt     Pt               
                                             
         Ru    Ir    PIr    Ag     Ir        
                Ag     Ag     Ag             
                                             
           Ir    PPt    RPt    Ir            
                                             
            Ir    IAg    AAg    Pt           
       Ag     Ir     Ir                      
             Ir     Ir     Ir                
        Ag     Ag     Ir                     
                                             
                                             
                                             
                                             
                                             

Positions:
   0 Ag     0.000000    1.621936   10.000000    ( 0.0000,  0.0000,  0.0000)
   1 Ag     2.809275    1.621936   10.000000    ( 0.0000,  0.0000,  0.0000)
   2 Ir     5.618550    1.621936   10.000000    ( 0.0000,  0.0000,  0.0000)
   3 Ir     1.404638    4.054840   10.000000    ( 0.0000,  0.0000,  0.0000)
   4 Ir     4.213913    4.054840   10.000000    ( 0.0000,  0.0000,  0.0000)
   5 Ir     7.023188    4.054840   10.000000    ( 0.0000,  0.0000,  0.0000)
   6 Ir     2.809275    6.487743   10.000000    ( 0.0000,  0.0000,  0.0000)
   7 Ag     5.618550    6.487743   10.000000    ( 0.0000,  0.0000,  0.0000)
   8 Pt     8.427826    6.487743   10.000000    ( 0.0000,  0.0000,  0.0000)
   9 Ag     0.000000    0.000000   12.293764    ( 0.0000,  0.0000,  0.0000)
  10 Ir     2.809275    0.000000   12.293764    ( 0.0000,  0.0000,  0.0000)
  11 Ir     5.618550    0.000000   12.293764    ( 0.0000,  0.0000,  0.0000)
  12 Ir     1.404638    2.432904   12.293764    ( 0.0000,  0.0000,  0.0000)
  13 Ag     4.213913    2.432904   12.293764    ( 0.0000,  0.0000,  0.0000)
  14 Ag     7.023188    2.432904   12.293764    ( 0.0000,  0.0000,  0.0000)
  15 Pt     2.809275    4.865807   12.293764    ( 0.0000,  0.0000,  0.0000)
  16 Ru     5.618550    4.865807   12.293764    ( 0.0000,  0.0000,  0.0000)
  17 Ir     8.427826    4.865807   12.293764    ( 0.0000,  0.0000,  0.0000)
  18 Ir     1.441387    0.804066   14.610084    ( 0.0000,  0.0000,  0.0000)
  19 Pt     4.193635    0.722330   14.615201    ( 0.0000,  0.0000,  0.0000)
  20 Pt     7.039593    0.807562   14.643965    ( 0.0000,  0.0000,  0.0000)
  21 Ag     2.798603    3.268736   14.619074    ( 0.0000,  0.0000,  0.0000)
  22 Ag     5.625600    3.219664   14.640325    ( 0.0000,  0.0000,  0.0000)
  23 Ag     8.472585    3.247002   14.614311    ( 0.0000,  0.0000,  0.0000)
  24 Pt     4.254464    5.671071   14.598864    ( 0.0000,  0.0000,  0.0000)
  25 Ag     7.023175    5.612417   14.594549    ( 0.0000,  0.0000,  0.0000)
  26 Ir     9.813520    5.749924   14.520942    ( 0.0000,  0.0000,  0.0000)
  27 Ru     0.073042    1.657587   16.939560    ( 0.0000,  0.0000,  0.0000)
  28 Ir     2.786109    1.617524   16.897780    ( 0.0000,  0.0000,  0.0000)
  29 Ir     5.639455    1.627515   16.946351    ( 0.0000,  0.0000,  0.0000)
  30 Ir     1.370881    3.964108   17.046663    ( 0.0000,  0.0000,  0.0000)
  31 Ir     4.230723    3.959795   16.953072    ( 0.0000,  0.0000,  0.0000)
  32 Pt     7.162141    4.030091   17.048187    ( 0.0000,  0.0000,  0.0000)
  33 Ag     2.767832    6.445242   16.774151    ( 0.0000,  0.0000,  0.0000)
  34 Ir     5.686884    6.558642   16.858840    ( 0.0000,  0.0000,  0.0000)
  35 Ru     8.414044    6.464111   16.869214    ( 0.0000,  0.0000,  0.0000)
  36 Ir     0.010485   -0.080869   18.972175    ( 0.0000,  0.0000,  0.0000)
  37 Ir     2.763350   -0.034160   18.989660    ( 0.0000,  0.0000,  0.0000)
  38 Pt     5.622228   -0.069074   19.092407    ( 0.0000,  0.0000,  0.0000)
  39 Ag     1.523475    2.397230   19.663175    ( 0.0000,  0.0000,  0.0000)
  40 Ir     4.230154    2.395342   19.017285    ( 0.0000,  0.0000,  0.0000)
  41 Pt     6.893997    2.287499   19.343312    ( 0.0000,  0.0000,  0.0000)
  42 Ir     2.915517    4.869683   19.021161    ( 0.0000,  0.0000,  0.0000)
  43 Ir     5.520785    4.965126   19.020390    ( 0.0000,  0.0000,  0.0000)
  44 Ag     8.434362    4.949563   19.626205    ( 0.0000,  0.0000,  0.0000)
  45 O      8.068716    3.009964   20.721784    ( 0.0000,  0.0000,  0.0000)

Unit cell:
           periodic     x           y           z      points  spacing
  1. axis:    yes    8.445283    0.000000    0.000000    35     0.2090
  2. axis:    yes    4.222641    7.313829    0.000000    35     0.2090
  3. axis:    no     0.000000    0.000000   29.175054   135     0.2161

  Lengths:   8.445283   8.445283  29.175054
  Angles:   90.000000  90.000000  60.000000

Effective grid spacing dv^(1/3) = 0.2217

                     log10-error:    total        iterations:
           time      wfs    density  energy       fermi  poisson
iter:   1  00:29:36  -3.30   +inf  -265.317144    3             
iter:   2  00:30:42  -1.94  -2.11  -310.293114    36            
iter:   3  00:31:47  -2.28  -1.36  -264.592603    4             
iter:   4  00:32:53  -3.42  -2.38  -264.192410    3             
iter:   5  00:33:58  -4.57  -2.98  -264.176726    2             
iter:   6  00:35:04  -5.27  -3.35  -264.174801    2             
iter:   7  00:36:09  -5.67  -3.60  -264.174023    2             
iter:   8  00:37:15  -5.73  -3.72  -264.173020    2             
iter:   9  00:38:20  -6.08  -3.73  -264.174033    2             
iter:  10  00:39:26  -6.17  -3.82  -264.172832    2             
iter:  11  00:40:31  -6.61  -3.99  -264.172743    2             
iter:  12  00:41:36  -6.79  -3.96  -264.172955    2             
iter:  13  00:42:42  -7.08  -4.18  -264.172742    2             
iter:  14  00:43:47  -7.18  -4.15  -264.172682    2             
iter:  15  00:44:53  -7.19  -4.15  -264.173174    2             
iter:  16  00:45:58  -7.39  -4.17  -264.172775    2             
iter:  17  00:47:04  -7.66  -4.38  -264.172797    2             

Converged after 17 iterations.

Dipole moment: (19.645561, 20.571095, -0.172561) |e|*Ang

Energy contributions relative to reference atoms: (reference = -16429278.754816)

Kinetic:       -147.124933
Potential:      +90.922733
External:        +0.000000
XC:            -200.544411
Entropy (-ST):   -2.114190
Local:           -6.369091
--------------------------
Free energy:   -265.229892
Extrapolated:  -264.172797

Fermi level: 1.27223

Showing only first 2 kpts
 Kpt  Band  Eigenvalues  Occupancy
  0   357      1.25988    0.13271
  0   358      1.30185    0.10662
  0   359      1.33016    0.08977
  0   360      1.36411    0.07130

  1   357      1.17359    0.18209
  1   358      1.18616    0.17570
  1   359      1.23535    0.14779
  1   360      1.27411    0.12382



Forces in eV/Ang:
  0 Ag   -0.41971    0.15863   -1.04657
  1 Ag    0.25139    0.22560   -0.84784
  2 Ir    0.49970   -0.19256    0.03353
  3 Ir   -0.10550    1.22904    1.39299
  4 Ir    0.42173    0.42253    0.87180
  5 Ir   -0.32186   -0.02352    1.19835
  6 Ir   -1.72204   -0.50518    0.72167
  7 Ag   -0.11958   -0.34587   -0.92453
  8 Pt    1.05868   -0.38793    0.46187
  9 Ag    0.12960    0.02848    0.20739
 10 Ir   -0.04735   -0.42484    1.01744
 11 Ir   -0.65275   -0.74558   -0.48864
 12 Ir    0.39655    0.18174    0.19465
 13 Ag   -0.01414   -0.02748    0.19377
 14 Ag    0.06481    0.09068    0.16436
 15 Pt   -0.12118   -0.05129   -0.59611
 16 Ru    0.64068    0.44898   -1.37231
 17 Ir    0.09981    0.26444   -1.28261
 18 Ir    0.01753    0.00682    0.01729
 19 Pt    0.01185   -0.03841    0.00554
 20 Pt   -0.00663   -0.00170    0.01301
 21 Ag   -0.00535   -0.00572    0.00136
 22 Ag    0.01257    0.00164   -0.01027
 23 Ag    0.01362   -0.01409    0.00313
 24 Pt   -0.00379    0.00014   -0.00199
 25 Ag    0.02156    0.00828   -0.00070
 26 Ir   -0.00903    0.02291    0.00304
 27 Ru    0.01987   -0.02454    0.00101
 28 Ir   -0.04156   -0.04319   -0.00105
 29 Ir    0.03066   -0.07360   -0.00312
 30 Ir   -0.01774   -0.01840   -0.00302
 31 Ir    0.00186    0.06084   -0.00764
 32 Pt    0.00250    0.00529   -0.00189
 33 Ag    0.00172    0.00305    0.02712
 34 Ir   -0.01137   -0.00131    0.03057
 35 Ru   -0.00324   -0.00539   -0.00547
 36 Ir    0.03224   -0.05772   -0.03150
 37 Ir   -0.01474   -0.00992   -0.02831
 38 Pt    0.01496    0.00151    0.00254
 39 Ag   -0.01284   -0.02663    0.04799
 40 Ir   -0.00840   -0.04449    0.05789
 41 Pt   -0.00122   -0.02251   -0.01401
 42 Ir    0.02115   -0.00211    0.02436
 43 Ir   -0.03520    0.03057   -0.00618
 44 Ag   -0.02844   -0.00724    0.03442
 45 O    -0.00137   -0.01220   -0.00798

Timing:                                      incl.     excl.
-------------------------------------------------------------------
Density initialized from wave functions:    31.652    31.651   0.2% |
 Symmetrize density:                         0.001     0.001   0.0% |
Forces:                                    180.268   180.268   1.1% |
Hamiltonian:                                26.882     0.101   0.0% |
 Atomic:                                     5.947     2.783   0.0% |
  XC Correction:                             3.165     3.165   0.0% |
 Calculate atomic Hamiltonians:              9.684     9.684   0.1% |
 Communicate:                                1.625     1.625   0.0% |
 Initialize Hamiltonian:                     0.000     0.000   0.0% |
 Poisson:                                    0.068     0.068   0.0% |
 XC 3D grid:                                 9.456     9.456   0.1% |
LCAO initialization:                        43.610     2.457   0.0% |
 LCAO eigensolver:                           4.984     0.002   0.0% |
  Calculate projections:                     0.047     0.047   0.0% |
  DenseAtomicCorrection:                     0.068     0.068   0.0% |
  Distribute overlap matrix:                 0.174     0.174   0.0% |
  Orbital Layouts:                           0.337     0.337   0.0% |
  Potential matrix:                          4.312     4.312   0.0% |
  Sum over cells:                            0.044     0.044   0.0% |
 LCAO to grid:                              34.551    34.551   0.2% |
 Set positions (LCAO WFS):                   1.618     0.617   0.0% |
  Basic WFS set positions:                   0.002     0.002   0.0% |
  Basis functions set positions:             0.000     0.000   0.0% |
  P tci:                                     0.417     0.417   0.0% |
  ST tci:                                    0.431     0.431   0.0% |
  mktci:                                     0.151     0.151   0.0% |
PWDescriptor:                                0.036     0.036   0.0% |
Redistribute:                                0.069     0.069   0.0% |
SCF-cycle:                               16674.671  1187.616   7.0% |--|
 Davidson:                               14148.580  3454.935  20.3% |-------|
  Apply H:                                2207.095  2113.862  12.4% |----|
   HMM T:                                   93.234    93.234   0.5% |
  Subspace diag:                          2070.430     0.082   0.0% |
   calc_h_matrix:                         1119.498   374.038   2.2% ||
    Apply H:                               745.460   713.903   4.2% |-|
     HMM T:                                 31.557    31.557   0.2% |
   diagonalize:                             35.117    35.117   0.2% |
   rotate_psi:                             915.733   915.733   5.4% |-|
  calc. matrices:                         4001.509  2525.945  14.8% |-----|
   Apply H:                               1475.564  1413.178   8.3% |--|
    HMM T:                                  62.386    62.386   0.4% |
  diagonalize:                             557.451   557.451   3.3% ||
  rotate_psi:                             1857.160  1857.160  10.9% |---|
 Density:                                  694.675     0.016   0.0% |
  Atomic density matrices:                   4.378     4.378   0.0% |
  Mix:                                     258.858   258.858   1.5% ||
  Multipole moments:                         0.272     0.272   0.0% |
  Pseudo density:                          431.151   431.136   2.5% ||
   Symmetrize density:                       0.015     0.015   0.0% |
 Hamiltonian:                              582.278     2.316   0.0% |
  Atomic:                                  124.763    56.269   0.3% |
   XC Correction:                           68.493    68.493   0.4% |
  Calculate atomic Hamiltonians:           209.539   209.539   1.2% |
  Communicate:                              38.911    38.911   0.2% |
  Poisson:                                   1.558     1.558   0.0% |
  XC 3D grid:                              205.191   205.191   1.2% |
 Orthonormalize:                            61.521     0.006   0.0% |
  calc_s_matrix:                             8.376     8.376   0.0% |
  inverse-cholesky:                          0.840     0.840   0.0% |
  projections:                              32.104    32.104   0.2% |
  rotate_psi_s:                             20.195    20.195   0.1% |
Set symmetry:                                0.001     0.001   0.0% |
Other:                                      83.961    83.961   0.5% |
-------------------------------------------------------------------
Total:                                             17041.152 100.0%

Date: Fri Mar  4 00:47:23 2022
