
  ___ ___ ___ _ _ _  
 |   |   |_  | | | | 
 | | | | | . | | | | 
 |__ |  _|___|_____|  1.5.1
 |___|_|             

User:   clausen@node498.cluster
Date:   Fri Mar  4 00:34:30 2022
Arch:   x86_64
Pid:    2286
Python: 3.6.12
gpaw:   /software/kemi/gpaw/1.5.1/gpaw
_gpaw:  /software/kemi/gpaw/1.5.1/bin/gpaw-python
ase:    /software/kemi/ase/3.17.0/ase (version 3.17.0)
numpy:  /opt/rh/rh-python36/root/usr/lib64/python3.6/site-packages/numpy (version 1.13.1)
scipy:  /opt/rh/rh-python36/root/usr/lib64/python3.6/site-packages/scipy (version 0.19.1)
units:  Angstrom and eV
cores:  16

Input parameters:
  kpts: [4 4 1]
  mode: {ecut: 400.0,
         gammacentered: False,
         name: pw}
  xc: RPBE

System changes: positions, numbers, cell, pbc, initial_charges, initial_magmoms 

Initialize ...

Pd-setup:
  name: Palladium
  id: 6da19bfba079f22767af9506641940b9
  Z: 46
  valence: 16
  core: 30
  charge: 0.0
  file: /software/kemi/gpaw-setups/0.9.20000/Pd.RPBE.gz
  cutoffs: 1.19(comp), 2.38(filt), 2.28(core), lmax=2
  valence states:
                energy  radius
    5s(0.00)    -3.225   1.228
    4p(6.00)   -51.131   1.360
    5p(0.00)    -0.373   1.360
    4d(10.00)    -3.964   1.228
    *s          23.987   1.228
    *d          23.247   1.228

  Using partial waves for Pd as LCAO basis

Ag-setup:
  name: Silver
  id: c05e55bab2c3858b3f9398f6d75cb77c
  Z: 47
  valence: 17
  core: 30
  charge: 0.0
  file: /software/kemi/gpaw-setups/0.9.20000/Ag.RPBE.gz
  cutoffs: 1.25(comp), 2.35(filt), 2.19(core), lmax=2
  valence states:
                energy  radius
    5s(1.00)    -4.277   1.286
    4p(6.00)   -58.523   1.328
    5p(0.00)    -0.755   1.328
    4d(10.00)    -7.386   1.180
    *s          22.934   1.286
    *d          19.826   1.180

  Using partial waves for Ag as LCAO basis

Pt-setup:
  name: Platinum
  id: f04f522592575c47ad794f6b4a415b4b
  Z: 78
  valence: 16
  core: 62
  charge: 0.0
  file: /software/kemi/gpaw-setups/0.9.20000/Pt.RPBE.gz
  cutoffs: 1.29(comp), 2.26(filt), 2.26(core), lmax=2
  valence states:
                energy  radius
    6s(1.00)    -5.516   1.307
    5p(6.00)   -55.971   1.371
    6p(0.00)    -0.856   1.371
    5d(9.00)    -6.087   1.307
    *s          21.695   1.307
    *d          21.125   1.307

  Using partial waves for Pt as LCAO basis

Ru-setup:
  name: Ruthenium
  id: 76477906e28f51dc1b29884d53556fe9
  Z: 44
  valence: 16
  core: 28
  charge: 0.0
  file: /software/kemi/gpaw-setups/0.9.20000/Ru.RPBE.gz
  cutoffs: 1.23(comp), 2.16(filt), 1.30(core), lmax=2
  valence states:
                energy  radius
    4s(2.00)   -76.255   1.281
    5s(1.00)    -4.126   1.281
    4p(6.00)   -46.371   1.286
    5p(0.00)    -0.913   1.286
    4d(7.00)    -5.146   1.254
    *d          22.066   1.254

  Using partial waves for Ru as LCAO basis

O-setup:
  name: Oxygen
  id: 08071ca1eed670e7821b24b7eb4d558c
  Z: 8
  valence: 6
  core: 2
  charge: 0.0
  file: /software/kemi/gpaw-setups/0.9.20000/O.RPBE.gz
  cutoffs: 0.67(comp), 1.17(filt), 0.83(core), lmax=2
  valence states:
                energy  radius
    2s(2.00)   -24.041   0.688
    2p(4.00)    -8.984   0.598
    *s           3.170   0.688
    *p          18.228   0.598
    *d           0.000   0.619

  Using partial waves for O as LCAO basis

H-setup:
  name: Hydrogen
  id: ea3f9156a1dc40d47a60fdce8f8bd75d
  Z: 1
  valence: 1
  core: 0
  charge: 0.0
  file: /software/kemi/gpaw-setups/0.9.20000/H.RPBE.gz
  cutoffs: 0.48(comp), 0.85(filt), 0.53(core), lmax=2
  valence states:
                energy  radius
    1s(1.00)    -6.572   0.476
    *s          20.639   0.476
    *p           0.000   0.476

  Using partial waves for H as LCAO basis

Reference energy: -9073466.092496

Spin-paired calculation

Occupation numbers:
  Fermi-Dirac: width=0.1000 eV

Convergence criteria:
  Maximum total energy change: 0.0005 eV / electron
  Maximum integral of absolute density change: 0.0001 electrons
  Maximum integral of absolute eigenstate change: 4e-08 eV^2
  Maximum number of iterations: 333

Symmetries present (total): 1

  ( 1  0  0)
  ( 0  1  0)
  ( 0  0  1)

16 k-points: 4 x 4 x 1 Monkhorst-Pack grid
8 k-points in the irreducible part of the Brillouin zone
       k-points in crystal coordinates                weights
   0:     0.12500000   -0.37500000    0.00000000          2/16
   1:     0.12500000   -0.12500000    0.00000000          2/16
   2:     0.12500000    0.12500000    0.00000000          2/16
   3:     0.12500000    0.37500000    0.00000000          2/16
   4:     0.37500000   -0.37500000    0.00000000          2/16
   5:     0.37500000   -0.12500000    0.00000000          2/16
   6:     0.37500000    0.12500000    0.00000000          2/16
   7:     0.37500000    0.37500000    0.00000000          2/16

Wave functions: Plane wave expansion
  Cutoff energy: 400.000 eV
  Number of coefficients (min, max): 32266, 32339
  Pulay-stress correction: 0.000000 eV/Ang^3 (de/decut=0.000000)
  Using FFTW library
  ScaLapack parameters: grid=1x1, blocksize=None
  Wavefunction extrapolation:
    Improved wavefunction reuse through dual PAW basis 

Eigensolver
   Davidson(niter=2, smin=None, normalize=True) 

Densities:
  Coarse grid: 35*35*135 grid
  Fine grid: 70*70*270 grid
  Total Charge: 0.000000 

Density mixing:
  Method: separate
  Backend: pulay
  Linear mixing parameter: 0.05
  Mixing with 5 old densities
  Damping of long wave oscillations: 50 

Hamiltonian:
  XC and Coulomb potentials evaluated on a 70*70*270 grid
  Using the RPBE Exchange-Correlation functional
 

XC parameters: RPBE with 2 nearest neighbor stencil

Memory estimate:
  Process memory now: 152.27 MiB
  Calculator: 552.99 MiB
    Density: 51.61 MiB
      Arrays: 16.41 MiB
      Localized functions: 28.84 MiB
      Mixer: 6.36 MiB
    Hamiltonian: 11.64 MiB
      Arrays: 10.73 MiB
      XC: 0.00 MiB
      Poisson: 0.00 MiB
      vbar: 0.91 MiB
    Wavefunctions: 489.75 MiB
      Arrays psit_nG: 221.07 MiB
      Eigensolver: 254.17 MiB
      Projections: 2.83 MiB
      Projectors: 5.06 MiB
      PW-descriptor: 6.62 MiB

Total number of cores used: 16
Parallelization over k-points: 8
Domain decomposition: 1 x 1 x 2

Number of atoms: 47
Number of atomic orbitals: 552
Number of bands in calculation: 448
Bands to converge: occupied states only
Number of valence electrons: 739

... initialized

Initializing position-dependent things.

Density initialized from atomic densities
Creating initial wave functions:
  448 bands from LCAO basis set

                                             
                                             
                                             
                                             
                                             
                                             
                                             
                                             
          H      Pt      Pd    Ru            
        O                                    
            Pt    APd    PPd    Ru           
        Pd           Pd                      
              Ru           Pt                
        Pt     Pd    PPd    Pd     Ag        
                                             
                Ag     Ag     Ag             
                                             
           Ag    PAg    APt    Pd            
                                             
            Pd     Ru     Ag     Pd          
       Ag    PRu    PRu    Pt                
                                             
        Pd     Ag     Pt                     
                                             
                                             
                                             
                                             
                                             

Positions:
   0 Pd     0.000000    1.633958   10.000000    ( 0.0000,  0.0000,  0.0000)
   1 Ag     2.830098    1.633958   10.000000    ( 0.0000,  0.0000,  0.0000)
   2 Pt     5.660196    1.633958   10.000000    ( 0.0000,  0.0000,  0.0000)
   3 Pd     1.415049    4.084895   10.000000    ( 0.0000,  0.0000,  0.0000)
   4 Pd     4.245147    4.084895   10.000000    ( 0.0000,  0.0000,  0.0000)
   5 Pt     7.075245    4.084895   10.000000    ( 0.0000,  0.0000,  0.0000)
   6 Pd     2.830098    6.535832   10.000000    ( 0.0000,  0.0000,  0.0000)
   7 Ag     5.660196    6.535832   10.000000    ( 0.0000,  0.0000,  0.0000)
   8 Pd     8.490294    6.535832   10.000000    ( 0.0000,  0.0000,  0.0000)
   9 Ag     0.000000    0.000000   12.310765    ( 0.0000,  0.0000,  0.0000)
  10 Ru     2.830098    0.000000   12.310765    ( 0.0000,  0.0000,  0.0000)
  11 Ru     5.660196    0.000000   12.310765    ( 0.0000,  0.0000,  0.0000)
  12 Pd     1.415049    2.450937   12.310765    ( 0.0000,  0.0000,  0.0000)
  13 Ru     4.245147    2.450937   12.310765    ( 0.0000,  0.0000,  0.0000)
  14 Ag     7.075245    2.450937   12.310765    ( 0.0000,  0.0000,  0.0000)
  15 Pd     2.830098    4.901874   12.310765    ( 0.0000,  0.0000,  0.0000)
  16 Ag     5.660196    4.901874   12.310765    ( 0.0000,  0.0000,  0.0000)
  17 Pd     8.490294    4.901874   12.310765    ( 0.0000,  0.0000,  0.0000)
  18 Ag     1.422839    0.836358   14.687202    ( 0.0000,  0.0000,  0.0000)
  19 Ag     4.228290    0.834029   14.668537    ( 0.0000,  0.0000,  0.0000)
  20 Pt     7.000876    0.833422   14.677349    ( 0.0000,  0.0000,  0.0000)
  21 Ag     2.849410    3.275055   14.697646    ( 0.0000,  0.0000,  0.0000)
  22 Ag     5.607020    3.276035   14.715763    ( 0.0000,  0.0000,  0.0000)
  23 Ag     8.407636    3.278571   14.701685    ( 0.0000,  0.0000,  0.0000)
  24 Pd     4.226650    5.664441   14.783889    ( 0.0000,  0.0000,  0.0000)
  25 Pd     7.021524    5.717496   14.695770    ( 0.0000,  0.0000,  0.0000)
  26 Ag     9.810161    5.688371   14.690489    ( 0.0000,  0.0000,  0.0000)
  27 Pt     0.030364    1.654579   17.054310    ( 0.0000,  0.0000,  0.0000)
  28 Pd     2.863636    1.668211   17.080253    ( 0.0000,  0.0000,  0.0000)
  29 Pd     5.584811    1.668389   17.077768    ( 0.0000,  0.0000,  0.0000)
  30 Pd     1.451673    4.084780   17.054426    ( 0.0000,  0.0000,  0.0000)
  31 Ru     4.287216    4.070209   17.299465    ( 0.0000,  0.0000,  0.0000)
  32 Pt     6.976254    4.091014   17.095978    ( 0.0000,  0.0000,  0.0000)
  33 Ag     2.791829    6.501265   17.070936    ( 0.0000,  0.0000,  0.0000)
  34 Pt     5.617052    6.449501   17.092744    ( 0.0000,  0.0000,  0.0000)
  35 Ru     8.289070    6.444709   17.186717    ( 0.0000,  0.0000,  0.0000)
  36 Pd     0.109969    0.038419   19.432145    ( 0.0000,  0.0000,  0.0000)
  37 Ru     2.913932   -0.060119   19.211827    ( 0.0000,  0.0000,  0.0000)
  38 Pd     5.607656    0.003198   19.432032    ( 0.0000,  0.0000,  0.0000)
  39 Pt     1.441354    2.458850   19.369405    ( 0.0000,  0.0000,  0.0000)
  40 Pd     4.211433    2.427374   19.463642    ( 0.0000,  0.0000,  0.0000)
  41 Pd     7.082631    2.483306   19.414916    ( 0.0000,  0.0000,  0.0000)
  42 Pt     2.814800    4.836018   19.384744    ( 0.0000,  0.0000,  0.0000)
  43 Pd     5.686541    4.887569   19.522731    ( 0.0000,  0.0000,  0.0000)
  44 Ru     8.428363    4.985817   19.203811    ( 0.0000,  0.0000,  0.0000)
  45 O      0.109969    0.038419   21.522731    ( 0.0000,  0.0000,  0.0000)
  46 H      0.759969    0.688419   21.922731    ( 0.0000,  0.0000,  0.0000)

Unit cell:
           periodic     x           y           z      points  spacing
  1. axis:    yes    8.379498    0.000000    0.000000    35     0.2073
  2. axis:    yes    4.189749    7.256858    0.000000    35     0.2073
  3. axis:    no     0.000000    0.000000   29.243062   135     0.2166

  Lengths:   8.379498   8.379498  29.243062
  Angles:   90.000000  90.000000  60.000000

Effective grid spacing dv^(1/3) = 0.2207

                     log10-error:    total        iterations:
           time      wfs    density  energy       fermi  poisson
iter:   1  00:36:50  +0.50   +inf  -243.045534    2             
iter:   2  00:37:57  -1.06  -1.20  -213.677097    2             
iter:   3  00:39:03  -1.43  -1.32  -217.214064    35            
iter:   4  00:40:10  -1.34  -1.32  -273.316989    35            
iter:   5  00:41:19  -1.55  -1.20  -196.427830    35            
iter:   6  00:42:52  -1.73  -1.50  -189.320081    36            
iter:   7  00:44:25  -2.03  -1.67  -188.574490    37            
iter:   8  00:45:57  -3.11  -1.74  -187.855138    3             
iter:   9  00:47:29  -2.39  -1.75  -194.437852    4             
iter:  10  00:49:02  -2.35  -1.63  -189.369573    3             
iter:  11  00:50:34  -2.53  -1.78  -186.140761    3             
iter:  12  00:52:07  -3.00  -2.03  -186.578415    3             
iter:  13  00:53:39  -2.80  -2.00  -186.343315    3             
iter:  14  00:55:11  -3.35  -2.12  -186.081161    3             
iter:  15  00:56:44  -3.77  -2.18  -185.708586    2             
iter:  16  00:58:16  -3.54  -2.35  -185.573740    3             
iter:  17  00:59:43  -3.59  -2.44  -185.466992    2             
iter:  18  01:00:54  -3.49  -2.62  -185.491472    3             
iter:  19  01:02:08  -4.23  -2.64  -185.410748    3             
iter:  20  01:03:23  -4.36  -2.94  -185.406072    2             
iter:  21  01:04:36  -4.39  -3.01  -185.405996    3             
iter:  22  01:05:51  -5.11  -3.06  -185.401364    3             
iter:  23  01:07:05  -5.12  -3.21  -185.400758    2             
iter:  24  01:08:20  -5.18  -3.24  -185.399731    2             
iter:  25  01:09:34  -5.49  -3.35  -185.404658    2             
iter:  26  01:10:47  -5.56  -3.28  -185.400315    2             
iter:  27  01:11:55  -6.02  -3.42  -185.400567    2             
iter:  28  01:13:00  -6.02  -3.56  -185.400016    2             
iter:  29  01:14:07  -6.03  -3.60  -185.400080    2             
iter:  30  01:15:15  -5.99  -3.61  -185.399931    2             
iter:  31  01:16:21  -6.30  -3.77  -185.400544    2             
iter:  32  01:17:27  -6.54  -3.71  -185.399764    2             
iter:  33  01:18:37  -6.64  -3.83  -185.400048    2             
iter:  34  01:19:44  -6.99  -3.92  -185.399656    2             
iter:  35  01:20:51  -6.99  -4.03  -185.399724    2             
iter:  36  01:22:00  -7.02  -4.06  -185.399801    2             
iter:  37  01:23:08  -6.74  -4.06  -185.399389    2             
iter:  38  01:24:13  -7.17  -4.30  -185.399861    2             
iter:  39  01:25:16  -7.44  -4.37  -185.399582    2             

Converged after 39 iterations.

Dipole moment: (14.725305, 17.990992, -0.300494) |e|*Ang

Energy contributions relative to reference atoms: (reference = -9073466.092496)

Kinetic:       -174.651492
Potential:      +28.226335
External:        +0.000000
XC:             -33.553271
Entropy (-ST):   -2.020967
Local:           -4.410670
--------------------------
Free energy:   -186.410065
Extrapolated:  -185.399582

Fermi level: 0.79481

Showing only first 2 kpts
 Kpt  Band  Eigenvalues  Occupancy
  0   367      0.76895    0.14107
  0   368      0.79517    0.12477
  0   369      0.82154    0.10839
  0   370      0.86231    0.08434

  1   367      0.67480    0.19213
  1   368      0.70434    0.17797
  1   369      0.72824    0.16514
  1   370      0.75929    0.14697



Forces in eV/Ang:
  0 Pd    0.09091    0.50922   -0.42624
  1 Ag    0.11251    0.49095   -0.52213
  2 Pt   -0.22979    0.51258    0.82172
  3 Pd    0.09537    0.03549   -0.08225
  4 Pd    0.11494   -0.37835    0.19557
  5 Pt   -0.13331   -0.29655   -0.08460
  6 Pd   -0.17378   -0.38531   -0.05851
  7 Ag   -0.12371   -0.45460   -0.71242
  8 Pd   -0.25307   -0.30175    0.26510
  9 Ag    0.51831    0.21232    0.43831
 10 Ru    2.19843    1.29249    0.40340
 11 Ru   -1.84315    0.89140   -0.33314
 12 Pd    1.12211   -0.25031    0.00781
 13 Ru   -0.53311   -1.48873   -0.86637
 14 Ag   -0.44252    0.12837    0.28472
 15 Pd    0.19436   -0.57604    0.09311
 16 Ag   -0.18843   -0.38167    0.33558
 17 Pd   -0.37039    0.54092   -0.03803
 18 Ag   -0.01426   -0.00459    0.01696
 19 Ag   -0.02082   -0.01318    0.02170
 20 Pt    0.00549   -0.04584   -0.02353
 21 Ag   -0.00226    0.01279    0.00998
 22 Ag    0.02054   -0.00137   -0.00460
 23 Ag   -0.00800    0.02744    0.01489
 24 Pd    0.02084    0.01994    0.02983
 25 Pd    0.07223    0.00429    0.01562
 26 Ag   -0.01453   -0.01873    0.02420
 27 Pt   -0.02375   -0.07324    0.03642
 28 Pd   -0.01611   -0.01241    0.00277
 29 Pd    0.00487   -0.04047   -0.02793
 30 Pd   -0.00004   -0.02243    0.01659
 31 Ru    0.01805    0.01871   -0.01233
 32 Pt    0.00912   -0.04757    0.01645
 33 Ag   -0.00670    0.05095   -0.01707
 34 Pt   -0.08881    0.10368   -0.01180
 35 Ru    0.05735    0.00166    0.04958
 36 Pd    0.37203    0.26872    0.83240
 37 Ru   -0.01469   -0.01205   -0.00287
 38 Pd   -0.12542    0.00244    0.00232
 39 Pt    0.08931    0.13002    0.03221
 40 Pd   -0.05012   -0.00886   -0.01175
 41 Pd   -0.05609    0.08764    0.02118
 42 Pt   -0.15705   -0.23351   -0.10752
 43 Pd   -0.01396   -0.09810    0.01046
 44 Ru   -0.02125   -0.02569    0.05811
 45 O     0.19385    0.13214   -0.29187
 46 H    -0.38182   -0.29947   -0.52084

System changes: positions 

Initializing position-dependent things.

Density initialized from wave functions
                                             
                                             
                                             
                                             
                                             
                                             
                                             
                                             
        OH       Pt      Pd    Ru            
            Pt    APd    PPd    Ru           
                                             
        Pd    Ru     Pd    Pt                
                                             
        Pt     Pd    PPd    Pd     Ag        
                Ag     Ag     Ag             
                                             
           Ag    PAg    APt    Pd            
                                             
            Pd     Ru     Ag     Pd          
       Ag     Ru     Ru                      
             Pd     Pd     Pt                
        Pd     Ag     Pt                     
                                             
                                             
                                             
                                             
                                             

Positions:
   0 Pd     0.000000    1.633958   10.000000    ( 0.0000,  0.0000,  0.0000)
   1 Ag     2.830098    1.633958   10.000000    ( 0.0000,  0.0000,  0.0000)
   2 Pt     5.660196    1.633958   10.000000    ( 0.0000,  0.0000,  0.0000)
   3 Pd     1.415049    4.084895   10.000000    ( 0.0000,  0.0000,  0.0000)
   4 Pd     4.245147    4.084895   10.000000    ( 0.0000,  0.0000,  0.0000)
   5 Pt     7.075245    4.084895   10.000000    ( 0.0000,  0.0000,  0.0000)
   6 Pd     2.830098    6.535832   10.000000    ( 0.0000,  0.0000,  0.0000)
   7 Ag     5.660196    6.535832   10.000000    ( 0.0000,  0.0000,  0.0000)
   8 Pd     8.490294    6.535832   10.000000    ( 0.0000,  0.0000,  0.0000)
   9 Ag     0.000000    0.000000   12.310765    ( 0.0000,  0.0000,  0.0000)
  10 Ru     2.830098    0.000000   12.310765    ( 0.0000,  0.0000,  0.0000)
  11 Ru     5.660196    0.000000   12.310765    ( 0.0000,  0.0000,  0.0000)
  12 Pd     1.415049    2.450937   12.310765    ( 0.0000,  0.0000,  0.0000)
  13 Ru     4.245147    2.450937   12.310765    ( 0.0000,  0.0000,  0.0000)
  14 Ag     7.075245    2.450937   12.310765    ( 0.0000,  0.0000,  0.0000)
  15 Pd     2.830098    4.901874   12.310765    ( 0.0000,  0.0000,  0.0000)
  16 Ag     5.660196    4.901874   12.310765    ( 0.0000,  0.0000,  0.0000)
  17 Pd     8.490294    4.901874   12.310765    ( 0.0000,  0.0000,  0.0000)
  18 Ag     1.421412    0.835899   14.688898    ( 0.0000,  0.0000,  0.0000)
  19 Ag     4.226208    0.832711   14.670707    ( 0.0000,  0.0000,  0.0000)
  20 Pt     7.001425    0.828837   14.674996    ( 0.0000,  0.0000,  0.0000)
  21 Ag     2.849184    3.276333   14.698644    ( 0.0000,  0.0000,  0.0000)
  22 Ag     5.609073    3.275898   14.715303    ( 0.0000,  0.0000,  0.0000)
  23 Ag     8.406836    3.281315   14.703174    ( 0.0000,  0.0000,  0.0000)
  24 Pd     4.228734    5.666435   14.786873    ( 0.0000,  0.0000,  0.0000)
  25 Pd     7.028747    5.717925   14.697332    ( 0.0000,  0.0000,  0.0000)
  26 Ag     9.808709    5.686498   14.692909    ( 0.0000,  0.0000,  0.0000)
  27 Pt     0.027988    1.647255   17.057952    ( 0.0000,  0.0000,  0.0000)
  28 Pd     2.862025    1.666970   17.080529    ( 0.0000,  0.0000,  0.0000)
  29 Pd     5.585298    1.664342   17.074975    ( 0.0000,  0.0000,  0.0000)
  30 Pd     1.451669    4.082537   17.056085    ( 0.0000,  0.0000,  0.0000)
  31 Ru     4.289021    4.072079   17.298231    ( 0.0000,  0.0000,  0.0000)
  32 Pt     6.977166    4.086257   17.097624    ( 0.0000,  0.0000,  0.0000)
  33 Ag     2.791159    6.506360   17.069229    ( 0.0000,  0.0000,  0.0000)
  34 Pt     5.608171    6.459868   17.091564    ( 0.0000,  0.0000,  0.0000)
  35 Ru     8.294805    6.444874   17.191675    ( 0.0000,  0.0000,  0.0000)
  36 Pd     0.147172    0.065291   19.515385    ( 0.0000,  0.0000,  0.0000)
  37 Ru     2.912463   -0.061324   19.211539    ( 0.0000,  0.0000,  0.0000)
  38 Pd     5.595114    0.003443   19.432264    ( 0.0000,  0.0000,  0.0000)
  39 Pt     1.450285    2.471851   19.372626    ( 0.0000,  0.0000,  0.0000)
  40 Pd     4.206421    2.426488   19.462467    ( 0.0000,  0.0000,  0.0000)
  41 Pd     7.077022    2.492070   19.417033    ( 0.0000,  0.0000,  0.0000)
  42 Pt     2.799095    4.812667   19.373992    ( 0.0000,  0.0000,  0.0000)
  43 Pd     5.685145    4.877759   19.523778    ( 0.0000,  0.0000,  0.0000)
  44 Ru     8.426238    4.983248   19.209622    ( 0.0000,  0.0000,  0.0000)
  45 O      0.129354    0.051633   21.493544    ( 0.0000,  0.0000,  0.0000)
  46 H      0.721786    0.658471   21.870647    ( 0.0000,  0.0000,  0.0000)

Unit cell:
           periodic     x           y           z      points  spacing
  1. axis:    yes    8.379498    0.000000    0.000000    35     0.2073
  2. axis:    yes    4.189749    7.256858    0.000000    35     0.2073
  3. axis:    no     0.000000    0.000000   29.243062   135     0.2166

  Lengths:   8.379498   8.379498  29.243062
  Angles:   90.000000  90.000000  60.000000

Effective grid spacing dv^(1/3) = 0.2207

                     log10-error:    total        iterations:
           time      wfs    density  energy       fermi  poisson
iter:   1  01:26:54  -2.28   +inf  -187.110730    4             
iter:   2  01:28:02  -2.06  -2.14  -203.219292    36            
iter:   3  01:29:10  -1.74  -1.63  -220.732837    36            
iter:   4  01:30:17  -2.46  -1.51  -187.470585    37            
iter:   5  01:31:35  -3.10  -2.13  -185.942784    4             
iter:   6  01:33:08  -3.62  -2.40  -185.469959    2             
iter:   7  01:34:41  -4.21  -2.80  -185.418442    3             
iter:   8  01:36:14  -4.56  -2.94  -185.428326    3             
iter:   9  01:37:47  -4.54  -2.87  -185.393042    2             
iter:  10  01:39:19  -4.52  -3.01  -185.400740    2             
iter:  11  01:40:52  -4.47  -2.89  -185.384359    3             
iter:  12  01:42:25  -4.86  -3.15  -185.372441    2             
iter:  13  01:43:58  -5.55  -3.42  -185.371522    2             
iter:  14  01:45:31  -5.68  -3.41  -185.372208    2             
iter:  15  01:47:04  -5.69  -3.44  -185.373552    2             
iter:  16  01:48:36  -6.03  -3.46  -185.370580    2             
iter:  17  01:50:07  -5.67  -3.73  -185.370523    3             
iter:  18  01:51:17  -6.08  -3.77  -185.373864    2             
iter:  19  01:52:31  -6.19  -3.50  -185.370809    2             
iter:  20  01:53:45  -6.77  -3.96  -185.370661    2             
iter:  21  01:55:00  -6.76  -3.99  -185.371029    2             
iter:  22  01:56:14  -6.54  -3.94  -185.370855    2             
iter:  23  01:57:28  -6.89  -4.12  -185.370305    2             
iter:  24  01:58:38  -6.96  -4.18  -185.371062    2             
iter:  25  01:59:44  -7.22  -3.96  -185.370656    2             
iter:  26  02:00:53  -7.05  -4.36  -185.370425    2             
iter:  27  02:02:00  -7.31  -4.26  -185.370646    2             
iter:  28  02:03:08  -7.43  -4.38  -185.370645    2             

Converged after 28 iterations.

Dipole moment: (12.130306, 16.146461, -0.252880) |e|*Ang

Energy contributions relative to reference atoms: (reference = -9073466.092496)

Kinetic:       -172.027348
Potential:      +26.815162
External:        +0.000000
XC:             -34.705076
Entropy (-ST):   -2.014784
Local:           -4.445990
--------------------------
Free energy:   -186.378037
Extrapolated:  -185.370645

Fermi level: 0.81875

Showing only first 2 kpts
 Kpt  Band  Eigenvalues  Occupancy
  0   367      0.79154    0.14190
  0   368      0.81991    0.12427
  0   369      0.84767    0.10705
  0   370      0.88656    0.08417

  1   367      0.70007    0.19154
  1   368      0.72885    0.17769
  1   369      0.75446    0.16385
  1   370      0.78424    0.14636



Forces in eV/Ang:
  0 Pd    0.09861    0.50948   -0.41446
  1 Ag    0.10692    0.49245   -0.51549
  2 Pt   -0.23248    0.51002    0.83415
  3 Pd    0.09963    0.03535   -0.06999
  4 Pd    0.10593   -0.37448    0.20624
  5 Pt   -0.12968   -0.29312   -0.06719
  6 Pd   -0.17147   -0.39350   -0.05058
  7 Ag   -0.12559   -0.45253   -0.70491
  8 Pd   -0.25312   -0.30337    0.27546
  9 Ag    0.52595    0.21066    0.43654
 10 Ru    2.19617    1.29601    0.41075
 11 Ru   -1.84663    0.88626   -0.32607
 12 Pd    1.11886   -0.24792    0.01619
 13 Ru   -0.53756   -1.48381   -0.85735
 14 Ag   -0.43495    0.13354    0.28880
 15 Pd    0.19445   -0.57898    0.09703
 16 Ag   -0.18608   -0.37853    0.35099
 17 Pd   -0.36819    0.53423   -0.03879
 18 Ag    0.00066    0.01263   -0.00564
 19 Ag   -0.00311    0.01246    0.01463
 20 Pt   -0.01098   -0.00670   -0.03281
 21 Ag    0.01033    0.00394    0.00607
 22 Ag    0.00780   -0.00266   -0.00612
 23 Ag   -0.00228   -0.01740    0.00710
 24 Pd    0.02503   -0.01458    0.00773
 25 Pd    0.01053   -0.00537    0.01526
 26 Ag    0.01457   -0.01147    0.01326
 27 Pt    0.00400   -0.04396    0.12830
 28 Pd   -0.00425   -0.00237   -0.02000
 29 Pd   -0.01219   -0.00669   -0.01377
 30 Pd   -0.03244   -0.01209   -0.05796
 31 Ru    0.01286    0.02380   -0.03252
 32 Pt   -0.01729    0.03018   -0.00560
 33 Ag    0.03008    0.00389    0.12884
 34 Pt   -0.03472    0.03323    0.10680
 35 Ru   -0.02274   -0.02376    0.00783
 36 Pd    0.25345    0.15877   -0.41149
 37 Ru   -0.02541   -0.02100    0.01889
 38 Pd   -0.01249    0.00919   -0.02001
 39 Pt   -0.05042    0.02090    0.06820
 40 Pd    0.01394   -0.03238   -0.02404
 41 Pd   -0.00750    0.00113    0.00889
 42 Pt   -0.03089    0.01252   -0.06834
 43 Pd   -0.05443   -0.03356   -0.03653
 44 Ru   -0.03052   -0.03124   -0.00175
 45 O    -2.21676   -2.36967   -0.79457
 46 H     2.03665    2.17575    1.12008

System changes: positions 

Initializing position-dependent things.

Density initialized from wave functions
                                             
                                             
                                             
                                             
                                             
                                             
                                             
                                             
          H      Pt      Pd    Ru            
        O                                    
            Pt    APd    PPd    Ru           
        Pd           Pd    Pt                
              Ru                             
        Pt     Pd    PPd    Pd     Ag        
                                             
                Ag     Ag     Ag             
                                             
           Ag    PAg    APt    Pd            
                                             
            Pd     Ru     Ag     Pd          
       Ag    PRu    PRu    Pt                
                                             
        Pd     Ag     Pt                     
                                             
                                             
                                             
                                             
                                             

Positions:
   0 Pd     0.000000    1.633958   10.000000    ( 0.0000,  0.0000,  0.0000)
   1 Ag     2.830098    1.633958   10.000000    ( 0.0000,  0.0000,  0.0000)
   2 Pt     5.660196    1.633958   10.000000    ( 0.0000,  0.0000,  0.0000)
   3 Pd     1.415049    4.084895   10.000000    ( 0.0000,  0.0000,  0.0000)
   4 Pd     4.245147    4.084895   10.000000    ( 0.0000,  0.0000,  0.0000)
   5 Pt     7.075245    4.084895   10.000000    ( 0.0000,  0.0000,  0.0000)
   6 Pd     2.830098    6.535832   10.000000    ( 0.0000,  0.0000,  0.0000)
   7 Ag     5.660196    6.535832   10.000000    ( 0.0000,  0.0000,  0.0000)
   8 Pd     8.490294    6.535832   10.000000    ( 0.0000,  0.0000,  0.0000)
   9 Ag     0.000000    0.000000   12.310765    ( 0.0000,  0.0000,  0.0000)
  10 Ru     2.830098    0.000000   12.310765    ( 0.0000,  0.0000,  0.0000)
  11 Ru     5.660196    0.000000   12.310765    ( 0.0000,  0.0000,  0.0000)
  12 Pd     1.415049    2.450937   12.310765    ( 0.0000,  0.0000,  0.0000)
  13 Ru     4.245147    2.450937   12.310765    ( 0.0000,  0.0000,  0.0000)
  14 Ag     7.075245    2.450937   12.310765    ( 0.0000,  0.0000,  0.0000)
  15 Pd     2.830098    4.901874   12.310765    ( 0.0000,  0.0000,  0.0000)
  16 Ag     5.660196    4.901874   12.310765    ( 0.0000,  0.0000,  0.0000)
  17 Pd     8.490294    4.901874   12.310765    ( 0.0000,  0.0000,  0.0000)
  18 Ag     1.422220    0.836159   14.687938    ( 0.0000,  0.0000,  0.0000)
  19 Ag     4.227387    0.833457   14.669478    ( 0.0000,  0.0000,  0.0000)
  20 Pt     7.001114    0.831434   14.676328    ( 0.0000,  0.0000,  0.0000)
  21 Ag     2.849312    3.275609   14.698079    ( 0.0000,  0.0000,  0.0000)
  22 Ag     5.607910    3.275975   14.715563    ( 0.0000,  0.0000,  0.0000)
  23 Ag     8.407289    3.279761   14.702331    ( 0.0000,  0.0000,  0.0000)
  24 Pd     4.227554    5.665305   14.785183    ( 0.0000,  0.0000,  0.0000)
  25 Pd     7.024657    5.717682   14.696447    ( 0.0000,  0.0000,  0.0000)
  26 Ag     9.809531    5.687559   14.691539    ( 0.0000,  0.0000,  0.0000)
  27 Pt     0.029334    1.651403   17.055889    ( 0.0000,  0.0000,  0.0000)
  28 Pd     2.862937    1.667673   17.080373    ( 0.0000,  0.0000,  0.0000)
  29 Pd     5.585022    1.666634   17.076557    ( 0.0000,  0.0000,  0.0000)
  30 Pd     1.451672    4.083807   17.055146    ( 0.0000,  0.0000,  0.0000)
  31 Ru     4.287999    4.071020   17.298930    ( 0.0000,  0.0000,  0.0000)
  32 Pt     6.976649    4.088951   17.096692    ( 0.0000,  0.0000,  0.0000)
  33 Ag     2.791539    6.503474   17.070196    ( 0.0000,  0.0000,  0.0000)
  34 Pt     5.613201    6.453997   17.092232    ( 0.0000,  0.0000,  0.0000)
  35 Ru     8.291557    6.444780   17.188867    ( 0.0000,  0.0000,  0.0000)
  36 Pd     0.126102    0.050072   19.468242    ( 0.0000,  0.0000,  0.0000)
  37 Ru     2.913295   -0.060641   19.211702    ( 0.0000,  0.0000,  0.0000)
  38 Pd     5.602217    0.003304   19.432133    ( 0.0000,  0.0000,  0.0000)
  39 Pt     1.445227    2.464488   19.370802    ( 0.0000,  0.0000,  0.0000)
  40 Pd     4.209259    2.426990   19.463132    ( 0.0000,  0.0000,  0.0000)
  41 Pd     7.080199    2.487106   19.415834    ( 0.0000,  0.0000,  0.0000)
  42 Pt     2.807989    4.825892   19.380081    ( 0.0000,  0.0000,  0.0000)
  43 Pd     5.685935    4.883315   19.523185    ( 0.0000,  0.0000,  0.0000)
  44 Ru     8.427442    4.984703   19.206331    ( 0.0000,  0.0000,  0.0000)
  45 O      0.118375    0.044149   21.510074    ( 0.0000,  0.0000,  0.0000)
  46 H      0.743411    0.675432   21.900145    ( 0.0000,  0.0000,  0.0000)

Unit cell:
           periodic     x           y           z      points  spacing
  1. axis:    yes    8.379498    0.000000    0.000000    35     0.2073
  2. axis:    yes    4.189749    7.256858    0.000000    35     0.2073
  3. axis:    no     0.000000    0.000000   29.243062   135     0.2166

  Lengths:   8.379498   8.379498  29.243062
  Angles:   90.000000  90.000000  60.000000

Effective grid spacing dv^(1/3) = 0.2207

                     log10-error:    total        iterations:
           time      wfs    density  energy       fermi  poisson
iter:   1  02:04:44  -2.74   +inf  -185.932463    3             
iter:   2  02:05:49  -2.61  -2.43  -196.086049    3             
iter:   3  02:06:57  -2.78  -1.76  -185.827744    3             
iter:   4  02:08:04  -3.79  -2.40  -185.570990    3             
iter:   5  02:09:12  -3.80  -2.77  -185.545669    3             
iter:   6  02:10:20  -4.48  -2.65  -185.469527    3             
iter:   7  02:11:27  -5.31  -3.05  -185.451711    2             
iter:   8  02:12:34  -5.43  -3.27  -185.448865    2             
iter:   9  02:14:05  -4.74  -3.40  -185.444010    2             
iter:  10  02:15:39  -5.17  -3.33  -185.443366    2             
iter:  11  02:17:12  -5.87  -3.54  -185.441647    2             
iter:  12  02:18:46  -5.78  -3.72  -185.441387    2             
iter:  13  02:20:19  -6.35  -3.86  -185.442319    2             
iter:  14  02:21:52  -6.67  -3.76  -185.441931    2             
iter:  15  02:23:25  -6.61  -3.99  -185.441263    2             
iter:  16  02:24:59  -6.79  -3.78  -185.441890    2             
iter:  17  02:26:32  -6.75  -4.04  -185.442005    2             
iter:  18  02:28:05  -6.64  -4.23  -185.441417    2             
iter:  19  02:29:38  -7.02  -4.05  -185.441329    2             
iter:  20  02:31:11  -7.23  -4.27  -185.441700    2             
iter:  21  02:32:36  -7.51  -4.45  -185.441552    2             

Converged after 21 iterations.

Dipole moment: (13.588453, 17.185778, -0.278318) |e|*Ang

Energy contributions relative to reference atoms: (reference = -9073466.092496)

Kinetic:       -175.475424
Potential:      +29.383215
External:        +0.000000
XC:             -33.929790
Entropy (-ST):   -2.018244
Local:           -4.410431
--------------------------
Free energy:   -186.450674
Extrapolated:  -185.441552

Fermi level: 0.80379

Showing only first 2 kpts
 Kpt  Band  Eigenvalues  Occupancy
  0   367      0.77763    0.14126
  0   368      0.80468    0.12444
  0   369      0.83147    0.10780
  0   370      0.87103    0.08449

  1   367      0.68426    0.19192
  1   368      0.71415    0.17755
  1   369      0.73862    0.16435
  1   370      0.76881    0.14664



Forces in eV/Ang:
  0 Pd    0.09928    0.50766   -0.43012
  1 Ag    0.10719    0.49205   -0.52674
  2 Pt   -0.23318    0.50822    0.81489
  3 Pd    0.10159    0.03551   -0.08648
  4 Pd    0.10527   -0.37211    0.19198
  5 Pt   -0.12942   -0.29111   -0.08785
  6 Pd   -0.16972   -0.39334   -0.06516
  7 Ag   -0.12688   -0.45229   -0.71594
  8 Pd   -0.25183   -0.30339    0.26127
  9 Ag    0.52285    0.21165    0.43506
 10 Ru    2.19463    1.29468    0.40440
 11 Ru   -1.84566    0.88721   -0.33321
 12 Pd    1.11984   -0.24832    0.00934
 13 Ru   -0.53726   -1.48344   -0.86097
 14 Ag   -0.43728    0.13158    0.28647
 15 Pd    0.19483   -0.57920    0.08883
 16 Ag   -0.18869   -0.37968    0.34306
 17 Pd   -0.36810    0.53702   -0.04189
 18 Ag   -0.00428    0.00378    0.00363
 19 Ag   -0.01545   -0.00067    0.01823
 20 Pt   -0.00165   -0.02424   -0.03053
 21 Ag    0.00292    0.00711    0.00456
 22 Ag    0.01410    0.00042   -0.01076
 23 Ag   -0.00428    0.00941    0.00632
 24 Pd    0.02603    0.00023    0.01625
 25 Pd    0.04126   -0.00139    0.01142
 26 Ag   -0.00369   -0.01808    0.01725
 27 Pt   -0.01377   -0.06230    0.08223
 28 Pd   -0.01234   -0.01310   -0.01305
 29 Pd   -0.00043   -0.02729   -0.01998
 30 Pd   -0.01528   -0.01685   -0.02463
 31 Ru    0.02434    0.02814   -0.02337
 32 Pt   -0.00511   -0.01347    0.00284
 33 Ag    0.01423    0.03445    0.05399
 34 Pt   -0.06711    0.06981    0.04301
 35 Ru    0.02215   -0.00492    0.02649
 36 Pd    0.27147    0.18066    0.36019
 37 Ru   -0.00641   -0.02310   -0.00926
 38 Pd   -0.06035    0.00785   -0.00352
 39 Pt    0.03265    0.09672    0.00645
 40 Pd   -0.00126   -0.01912   -0.01596
 41 Pd   -0.05211    0.04933    0.00242
 42 Pt   -0.08808   -0.10118   -0.07786
 43 Pd   -0.03606   -0.07450   -0.00908
 44 Ru   -0.02667   -0.02066    0.03484
 45 O    -0.59259   -0.68698   -0.58128
 46 H     0.54100    0.63220    0.07964

System changes: positions 

Initializing position-dependent things.

Density initialized from wave functions
                                             
                                             
                                             
                                             
                                             
                                             
                                             
                                             
          H      Pt     Pd     Ru            
       O     Pt   APd    PPd    Ru           
                                             
        Pd    Ru     Pd    Pt                
                                             
        Pt     Pd    PPd    Pd     Ag        
                Ag     Ag     Ag             
                                             
           Ag    PAg    APt    Pd            
                                             
            Pd     Ru     Ag     Pd          
       Ag     Ru     Ru                      
             Pd     Pd     Pt                
        Pd     Ag     Pt                     
                                             
                                             
                                             
                                             
                                             

Positions:
   0 Pd     0.000000    1.633958   10.000000    ( 0.0000,  0.0000,  0.0000)
   1 Ag     2.830098    1.633958   10.000000    ( 0.0000,  0.0000,  0.0000)
   2 Pt     5.660196    1.633958   10.000000    ( 0.0000,  0.0000,  0.0000)
   3 Pd     1.415049    4.084895   10.000000    ( 0.0000,  0.0000,  0.0000)
   4 Pd     4.245147    4.084895   10.000000    ( 0.0000,  0.0000,  0.0000)
   5 Pt     7.075245    4.084895   10.000000    ( 0.0000,  0.0000,  0.0000)
   6 Pd     2.830098    6.535832   10.000000    ( 0.0000,  0.0000,  0.0000)
   7 Ag     5.660196    6.535832   10.000000    ( 0.0000,  0.0000,  0.0000)
   8 Pd     8.490294    6.535832   10.000000    ( 0.0000,  0.0000,  0.0000)
   9 Ag     0.000000    0.000000   12.310765    ( 0.0000,  0.0000,  0.0000)
  10 Ru     2.830098    0.000000   12.310765    ( 0.0000,  0.0000,  0.0000)
  11 Ru     5.660196    0.000000   12.310765    ( 0.0000,  0.0000,  0.0000)
  12 Pd     1.415049    2.450937   12.310765    ( 0.0000,  0.0000,  0.0000)
  13 Ru     4.245147    2.450937   12.310765    ( 0.0000,  0.0000,  0.0000)
  14 Ag     7.075245    2.450937   12.310765    ( 0.0000,  0.0000,  0.0000)
  15 Pd     2.830098    4.901874   12.310765    ( 0.0000,  0.0000,  0.0000)
  16 Ag     5.660196    4.901874   12.310765    ( 0.0000,  0.0000,  0.0000)
  17 Pd     8.490294    4.901874   12.310765    ( 0.0000,  0.0000,  0.0000)
  18 Ag     1.419835    0.835938   14.690618    ( 0.0000,  0.0000,  0.0000)
  19 Ag     4.222931    0.831602   14.674348    ( 0.0000,  0.0000,  0.0000)
  20 Pt     7.001681    0.822659   14.669907    ( 0.0000,  0.0000,  0.0000)
  21 Ag     2.849316    3.278093   14.699914    ( 0.0000,  0.0000,  0.0000)
  22 Ag     5.612184    3.275836   14.713800    ( 0.0000,  0.0000,  0.0000)
  23 Ag     8.405752    3.284473   14.705016    ( 0.0000,  0.0000,  0.0000)
  24 Pd     4.233134    5.668028   14.790944    ( 0.0000,  0.0000,  0.0000)
  25 Pd     7.038807    5.718115   14.699771    ( 0.0000,  0.0000,  0.0000)
  26 Ag     9.807174    5.683107   14.696643    ( 0.0000,  0.0000,  0.0000)
  27 Pt     0.024658    1.634884   17.069537    ( 0.0000,  0.0000,  0.0000)
  28 Pd     2.859449    1.664604   17.079364    ( 0.0000,  0.0000,  0.0000)
  29 Pd     5.585636    1.658264   17.070658    ( 0.0000,  0.0000,  0.0000)
  30 Pd     1.450047    4.078986   17.054780    ( 0.0000,  0.0000,  0.0000)
  31 Ru     4.293023    4.076535   17.294783    ( 0.0000,  0.0000,  0.0000)
  32 Pt     6.977341    4.081085   17.099220    ( 0.0000,  0.0000,  0.0000)
  33 Ag     2.792141    6.514022   17.073609    ( 0.0000,  0.0000,  0.0000)
  34 Pt     5.594065    6.475430   17.095195    ( 0.0000,  0.0000,  0.0000)
  35 Ru     8.301668    6.444483   17.198386    ( 0.0000,  0.0000,  0.0000)
  36 Pd     0.205237    0.105597   19.619096    ( 0.0000,  0.0000,  0.0000)
  37 Ru     2.910628   -0.064721   19.210332    ( 0.0000,  0.0000,  0.0000)
  38 Pd     5.578842    0.004467   19.432074    ( 0.0000,  0.0000,  0.0000)
  39 Pt     1.460778    2.492341   19.375846    ( 0.0000,  0.0000,  0.0000)
  40 Pd     4.202342    2.423764   19.459850    ( 0.0000,  0.0000,  0.0000)
  41 Pd     7.067081    2.504199   19.418957    ( 0.0000,  0.0000,  0.0000)
  42 Pt     2.777395    4.783559   19.357274    ( 0.0000,  0.0000,  0.0000)
  43 Pd     5.680224    4.862138   19.523639    ( 0.0000,  0.0000,  0.0000)
  44 Ru     8.421739    4.979034   19.217891    ( 0.0000,  0.0000,  0.0000)
  45 O      0.081790   -0.010795   21.408944    ( 0.0000,  0.0000,  0.0000)
  46 H      0.749084    0.701919   21.838091    ( 0.0000,  0.0000,  0.0000)

Unit cell:
           periodic     x           y           z      points  spacing
  1. axis:    yes    8.379498    0.000000    0.000000    35     0.2073
  2. axis:    yes    4.189749    7.256858    0.000000    35     0.2073
  3. axis:    no     0.000000    0.000000   29.243062   135     0.2166

  Lengths:   8.379498   8.379498  29.243062
  Angles:   90.000000  90.000000  60.000000

Effective grid spacing dv^(1/3) = 0.2207

                     log10-error:    total        iterations:
           time      wfs    density  energy       fermi  poisson
iter:   1  02:34:21  -1.73   +inf  -185.401672    3             
iter:   2  02:35:36  -2.71  -2.44  -187.932408    3             
iter:   3  02:36:50  -3.18  -1.97  -185.239785    2             
iter:   4  02:38:05  -3.62  -2.49  -185.096170    3             
iter:   5  02:39:19  -3.70  -2.72  -185.034493    3             
iter:   6  02:40:34  -3.78  -2.90  -185.029394    3             
iter:   7  02:41:48  -3.81  -2.80  -185.003135    3             
iter:   8  02:43:02  -4.07  -2.92  -185.195751    2             
iter:   9  02:44:13  -4.42  -2.51  -184.979754    2             
iter:  10  02:45:21  -4.83  -3.20  -184.973455    2             
iter:  11  02:46:31  -5.26  -3.25  -184.974269    3             
iter:  12  02:47:38  -4.94  -3.31  -184.971684    3             
iter:  13  02:48:46  -5.24  -3.51  -184.970260    2             
iter:  14  02:49:53  -5.44  -3.59  -184.976203    2             
iter:  15  02:51:04  -5.71  -3.33  -184.971827    2             
iter:  16  02:52:14  -5.95  -3.54  -184.971415    2             
iter:  17  02:53:22  -6.03  -3.50  -184.971589    2             
iter:  18  02:54:30  -6.01  -3.74  -184.971491    2             
iter:  19  02:55:39  -6.29  -3.88  -184.970730    2             
iter:  20  02:56:47  -6.26  -3.80  -184.971363    2             
iter:  21  02:57:56  -6.83  -3.83  -184.971167    2             
iter:  22  02:59:06  -6.32  -4.09  -184.970554    2             
iter:  23  03:00:15  -6.77  -3.99  -184.970917    2             
iter:  24  03:01:25  -6.71  -4.11  -184.971054    2             
iter:  25  03:02:34  -7.04  -4.09  -184.970509    2             
iter:  26  03:03:43  -7.17  -4.20  -184.970630    2             
iter:  27  03:04:51  -6.80  -4.37  -184.971152    2             
iter:  28  03:05:59  -7.47  -4.38  -184.970675    2             

Converged after 28 iterations.

Dipole moment: (13.237963, 19.030167, -0.107092) |e|*Ang

Energy contributions relative to reference atoms: (reference = -9073466.092496)

Kinetic:       -168.327049
Potential:      +22.950044
External:        +0.000000
XC:             -34.171119
Entropy (-ST):   -2.008460
Local:           -4.418321
--------------------------
Free energy:   -185.974905
Extrapolated:  -184.970675

Fermi level: 0.88910

Showing only first 2 kpts
 Kpt  Band  Eigenvalues  Occupancy
  0   367      0.85791    0.14434
  0   368      0.89182    0.12330
  0   369      0.92317    0.10391
  0   370      0.95870    0.08317

  1   367      0.77499    0.18947
  1   368      0.79891    0.17784
  1   369      0.82612    0.16311
  1   370      0.85607    0.14546



Forces in eV/Ang:
  0 Pd    0.09721    0.50920   -0.42050
  1 Ag    0.10773    0.49193   -0.52061
  2 Pt   -0.23029    0.50726    0.82529
  3 Pd    0.09873    0.03713   -0.07818
  4 Pd    0.10627   -0.37416    0.20161
  5 Pt   -0.12932   -0.29202   -0.07987
  6 Pd   -0.17003   -0.39253   -0.05675
  7 Ag   -0.12674   -0.45341   -0.70947
  8 Pd   -0.25127   -0.30453    0.27201
  9 Ag    0.53332    0.20680    0.42559
 10 Ru    2.19731    1.30280    0.40968
 11 Ru   -1.84995    0.88474   -0.31954
 12 Pd    1.11896   -0.24927    0.02277
 13 Ru   -0.54076   -1.48769   -0.85503
 14 Ag   -0.43271    0.13297    0.28567
 15 Pd    0.19566   -0.57633    0.09760
 16 Ag   -0.18419   -0.37322    0.35798
 17 Pd   -0.36500    0.53304   -0.04480
 18 Ag    0.00518    0.02751   -0.01840
 19 Ag    0.02620    0.03763   -0.01499
 20 Pt   -0.02057    0.04149   -0.02345
 21 Ag    0.02582   -0.01005   -0.00822
 22 Ag   -0.00464   -0.01053   -0.00442
 23 Ag    0.00182   -0.09189    0.01219
 24 Pd    0.02047   -0.04343   -0.00616
 25 Pd   -0.08740   -0.01047    0.02965
 26 Ag    0.05981    0.01504   -0.00517
 27 Pt    0.04029    0.06052    0.18719
 28 Pd    0.00262   -0.00573   -0.02291
 29 Pd   -0.01844    0.04428    0.00453
 30 Pd   -0.08798    0.02107   -0.15636
 31 Ru    0.00410    0.03461   -0.06649
 32 Pt   -0.03538    0.14978   -0.03577
 33 Ag    0.01278   -0.09709    0.19324
 34 Pt    0.11046   -0.11182    0.15190
 35 Ru   -0.13167   -0.07863   -0.05840
 36 Pd    0.10990    0.05079   -4.35400
 37 Ru    0.03855   -0.02272    0.07439
 38 Pd    0.10826    0.00572    0.02553
 39 Pt   -0.23704   -0.16099    0.13188
 40 Pd    0.07929   -0.06520    0.00082
 41 Pd    0.06273   -0.13596   -0.00348
 42 Pt    0.17700    0.37043    0.06908
 43 Pd   -0.09671    0.09734   -0.06828
 44 Ru   -0.05300   -0.00815   -0.03020
 45 O     1.29571    1.49589    5.28447
 46 H    -1.67889   -1.69663   -0.90924

System changes: positions 

Initializing position-dependent things.

Density initialized from wave functions
                                             
                                             
                                             
                                             
                                             
                                             
                                             
                                             
          H      Pt      Pd    Ru            
        O                                    
            Pt    APd    PPd    Ru           
        Pd           Pd    Pt                
              Ru                             
        Pt     Pd    PPd    Pd     Ag        
                                             
                Ag     Ag     Ag             
                                             
           Ag    PAg    APt    Pd            
                                             
            Pd     Ru     Ag     Pd          
       Ag    PRu    PRu    Pt                
                                             
        Pd     Ag     Pt                     
                                             
                                             
                                             
                                             
                                             

Positions:
   0 Pd     0.000000    1.633958   10.000000    ( 0.0000,  0.0000,  0.0000)
   1 Ag     2.830098    1.633958   10.000000    ( 0.0000,  0.0000,  0.0000)
   2 Pt     5.660196    1.633958   10.000000    ( 0.0000,  0.0000,  0.0000)
   3 Pd     1.415049    4.084895   10.000000    ( 0.0000,  0.0000,  0.0000)
   4 Pd     4.245147    4.084895   10.000000    ( 0.0000,  0.0000,  0.0000)
   5 Pt     7.075245    4.084895   10.000000    ( 0.0000,  0.0000,  0.0000)
   6 Pd     2.830098    6.535832   10.000000    ( 0.0000,  0.0000,  0.0000)
   7 Ag     5.660196    6.535832   10.000000    ( 0.0000,  0.0000,  0.0000)
   8 Pd     8.490294    6.535832   10.000000    ( 0.0000,  0.0000,  0.0000)
   9 Ag     0.000000    0.000000   12.310765    ( 0.0000,  0.0000,  0.0000)
  10 Ru     2.830098    0.000000   12.310765    ( 0.0000,  0.0000,  0.0000)
  11 Ru     5.660196    0.000000   12.310765    ( 0.0000,  0.0000,  0.0000)
  12 Pd     1.415049    2.450937   12.310765    ( 0.0000,  0.0000,  0.0000)
  13 Ru     4.245147    2.450937   12.310765    ( 0.0000,  0.0000,  0.0000)
  14 Ag     7.075245    2.450937   12.310765    ( 0.0000,  0.0000,  0.0000)
  15 Pd     2.830098    4.901874   12.310765    ( 0.0000,  0.0000,  0.0000)
  16 Ag     5.660196    4.901874   12.310765    ( 0.0000,  0.0000,  0.0000)
  17 Pd     8.490294    4.901874   12.310765    ( 0.0000,  0.0000,  0.0000)
  18 Ag     1.421778    0.836118   14.688435    ( 0.0000,  0.0000,  0.0000)
  19 Ag     4.226561    0.833113   14.670381    ( 0.0000,  0.0000,  0.0000)
  20 Pt     7.001219    0.829807   14.675138    ( 0.0000,  0.0000,  0.0000)
  21 Ag     2.849313    3.276070   14.698419    ( 0.0000,  0.0000,  0.0000)
  22 Ag     5.608703    3.275950   14.715236    ( 0.0000,  0.0000,  0.0000)
  23 Ag     8.407004    3.280635   14.702829    ( 0.0000,  0.0000,  0.0000)
  24 Pd     4.228588    5.665810   14.786252    ( 0.0000,  0.0000,  0.0000)
  25 Pd     7.027281    5.717762   14.697064    ( 0.0000,  0.0000,  0.0000)
  26 Ag     9.809094    5.686733   14.692485    ( 0.0000,  0.0000,  0.0000)
  27 Pt     0.028467    1.648339   17.058420    ( 0.0000,  0.0000,  0.0000)
  28 Pd     2.862290    1.667104   17.080186    ( 0.0000,  0.0000,  0.0000)
  29 Pd     5.585136    1.665082   17.075463    ( 0.0000,  0.0000,  0.0000)
  30 Pd     1.451370    4.082913   17.055078    ( 0.0000,  0.0000,  0.0000)
  31 Ru     4.288930    4.072043   17.298161    ( 0.0000,  0.0000,  0.0000)
  32 Pt     6.976778    4.087493   17.097161    ( 0.0000,  0.0000,  0.0000)
  33 Ag     2.791650    6.505430   17.070829    ( 0.0000,  0.0000,  0.0000)
  34 Pt     5.609652    6.457971   17.092782    ( 0.0000,  0.0000,  0.0000)
  35 Ru     8.293432    6.444725   17.190632    ( 0.0000,  0.0000,  0.0000)
  36 Pd     0.140776    0.060368   19.496216    ( 0.0000,  0.0000,  0.0000)
  37 Ru     2.912801   -0.061398   19.211448    ( 0.0000,  0.0000,  0.0000)
  38 Pd     5.597883    0.003520   19.432122    ( 0.0000,  0.0000,  0.0000)
  39 Pt     1.448111    2.469653   19.371737    ( 0.0000,  0.0000,  0.0000)
  40 Pd     4.207977    2.426392   19.462523    ( 0.0000,  0.0000,  0.0000)
  41 Pd     7.077766    2.490276   19.416413    ( 0.0000,  0.0000,  0.0000)
  42 Pt     2.802316    4.818042   19.375852    ( 0.0000,  0.0000,  0.0000)
  43 Pd     5.684876    4.879388   19.523269    ( 0.0000,  0.0000,  0.0000)
  44 Ru     8.426384    4.983652   19.208475    ( 0.0000,  0.0000,  0.0000)
  45 O      0.111591    0.033960   21.491321    ( 0.0000,  0.0000,  0.0000)
  46 H      0.744463    0.680344   21.888638    ( 0.0000,  0.0000,  0.0000)

Unit cell:
           periodic     x           y           z      points  spacing
  1. axis:    yes    8.379498    0.000000    0.000000    35     0.2073
  2. axis:    yes    4.189749    7.256858    0.000000    35     0.2073
  3. axis:    no     0.000000    0.000000   29.243062   135     0.2166

  Lengths:   8.379498   8.379498  29.243062
  Angles:   90.000000  90.000000  60.000000

Effective grid spacing dv^(1/3) = 0.2207

                     log10-error:    total        iterations:
           time      wfs    density  energy       fermi  poisson
iter:   1  03:07:39  -1.86   +inf  -188.675504    4             
iter:   2  03:09:05  -1.55  -1.94  -278.428118    34            
iter:   3  03:10:37  -1.93  -1.32  -188.093138    38            
iter:   4  03:12:10  -2.88  -2.05  -186.301985    3             
iter:   5  03:13:42  -3.30  -2.25  -185.588893    2             
iter:   6  03:15:14  -3.85  -2.71  -185.644243    3             
iter:   7  03:16:47  -3.85  -2.55  -185.779639    3             
iter:   8  03:18:19  -3.73  -2.45  -185.494479    2             
iter:   9  03:19:52  -3.96  -2.97  -185.509000    3             
iter:  10  03:21:24  -4.78  -2.88  -185.473330    2             
iter:  11  03:22:57  -5.01  -3.15  -185.481840    2             
iter:  12  03:24:29  -5.04  -3.12  -185.468489    3             
iter:  13  03:26:02  -4.72  -3.35  -185.469172    2             
iter:  14  03:27:34  -5.45  -3.54  -185.468276    2             
iter:  15  03:28:47  -5.74  -3.59  -185.467646    2             
iter:  16  03:30:00  -6.03  -3.66  -185.468473    2             
iter:  17  03:31:14  -5.76  -3.63  -185.473204    2             
iter:  18  03:32:28  -6.05  -3.36  -185.467562    2             
iter:  19  03:33:42  -6.21  -3.68  -185.468372    2             
iter:  20  03:34:56  -6.37  -3.86  -185.467727    2             
iter:  21  03:36:05  -6.38  -4.01  -185.467358    2             
iter:  22  03:37:14  -6.33  -4.14  -185.468467    2             
iter:  23  03:38:21  -6.60  -4.03  -185.467605    2             
iter:  24  03:39:29  -6.82  -4.15  -185.467685    2             
iter:  25  03:40:37  -7.10  -3.98  -185.467698    2             
iter:  26  03:41:44  -7.55  -4.42  -185.467650    2             

Converged after 26 iterations.

Dipole moment: (13.488554, 17.490543, -0.248724) |e|*Ang

Energy contributions relative to reference atoms: (reference = -9073466.092496)

Kinetic:       -175.110024
Potential:      +28.936236
External:        +0.000000
XC:             -33.892868
Entropy (-ST):   -2.015891
Local:           -4.393049
--------------------------
Free energy:   -186.475596
Extrapolated:  -185.467650

Fermi level: 0.82030

Showing only first 2 kpts
 Kpt  Band  Eigenvalues  Occupancy
  0   367      0.79324    0.14181
  0   368      0.82134    0.12435
  0   369      0.84885    0.10728
  0   370      0.88781    0.08434

  1   367      0.70154    0.19158
  1   368      0.73025    0.17777
  1   369      0.75551    0.16413
  1   370      0.78543    0.14658



Forces in eV/Ang:
  0 Pd    0.09860    0.50883   -0.41512
  1 Ag    0.10742    0.49197   -0.51682
  2 Pt   -0.23310    0.50958    0.83258
  3 Pd    0.10036    0.03500   -0.07165
  4 Pd    0.10689   -0.37462    0.20761
  5 Pt   -0.13038   -0.29196   -0.07009
  6 Pd   -0.17085   -0.39246   -0.04864
  7 Ag   -0.12525   -0.45226   -0.70421
  8 Pd   -0.25338   -0.30310    0.27511
  9 Ag    0.52492    0.21065    0.43471
 10 Ru    2.19630    1.29654    0.40711
 11 Ru   -1.84721    0.88667   -0.32890
 12 Pd    1.11997   -0.24932    0.01148
 13 Ru   -0.53788   -1.48651   -0.86102
 14 Ag   -0.43563    0.13187    0.28531
 15 Pd    0.19450   -0.57797    0.09199
 16 Ag   -0.18798   -0.37814    0.34479
 17 Pd   -0.36699    0.53699   -0.04149
 18 Ag   -0.00232    0.00922    0.00140
 19 Ag   -0.00829    0.00583    0.01330
 20 Pt   -0.00415   -0.01030   -0.02758
 21 Ag    0.00610    0.00201    0.00464
 22 Ag    0.01006   -0.00331   -0.00857
 23 Ag   -0.00225   -0.01420    0.01163
 24 Pd    0.02387   -0.00694    0.00975
 25 Pd    0.01305    0.00131    0.02061
 26 Ag    0.00850   -0.00997    0.01067
 27 Pt   -0.00299   -0.02983    0.10655
 28 Pd   -0.00914   -0.00896   -0.01490
 29 Pd   -0.00378   -0.01292   -0.01203
 30 Pd   -0.02864   -0.01100   -0.04729
 31 Ru    0.01709    0.02941   -0.02185
 32 Pt   -0.00745    0.02643   -0.00253
 33 Ag    0.01691    0.01044    0.09492
 34 Pt   -0.02325    0.02561    0.07271
 35 Ru   -0.01372   -0.02152    0.01422
 36 Pd    0.20188    0.12606   -0.25060
 37 Ru   -0.01649   -0.01604    0.00372
 38 Pd   -0.02955    0.00493   -0.02455
 39 Pt   -0.02781    0.02411    0.03993
 40 Pd    0.01240   -0.02746   -0.01476
 41 Pd   -0.01263    0.01441   -0.00946
 42 Pt   -0.03847   -0.01603   -0.08386
 43 Pd   -0.04027   -0.04075   -0.04215
 44 Ru   -0.03057   -0.01558    0.01167
 45 O    -0.17772   -0.23599    0.14862
 46 H     0.00330    0.09327   -0.21692

System changes: positions 

Initializing position-dependent things.

Density initialized from wave functions
                                             
                                             
                                             
                                             
                                             
                                             
                                             
                                             
        O H      Pt     Pd     Ru            
            Pt    APd    PPd    Ru           
                                             
        Pd    Ru     Pd    Pt                
                                             
        Pt     Pd    PPd    Pd     Ag        
                Ag     Ag     Ag             
                                             
           Ag    PAg    APt    Pd            
                                             
            Pd     Ru     Ag     Pd          
       Ag     Ru     Ru                      
             Pd     Pd     Pt                
        Pd     Ag     Pt                     
                                             
                                             
                                             
                                             
                                             

Positions:
   0 Pd     0.000000    1.633958   10.000000    ( 0.0000,  0.0000,  0.0000)
   1 Ag     2.830098    1.633958   10.000000    ( 0.0000,  0.0000,  0.0000)
   2 Pt     5.660196    1.633958   10.000000    ( 0.0000,  0.0000,  0.0000)
   3 Pd     1.415049    4.084895   10.000000    ( 0.0000,  0.0000,  0.0000)
   4 Pd     4.245147    4.084895   10.000000    ( 0.0000,  0.0000,  0.0000)
   5 Pt     7.075245    4.084895   10.000000    ( 0.0000,  0.0000,  0.0000)
   6 Pd     2.830098    6.535832   10.000000    ( 0.0000,  0.0000,  0.0000)
   7 Ag     5.660196    6.535832   10.000000    ( 0.0000,  0.0000,  0.0000)
   8 Pd     8.490294    6.535832   10.000000    ( 0.0000,  0.0000,  0.0000)
   9 Ag     0.000000    0.000000   12.310765    ( 0.0000,  0.0000,  0.0000)
  10 Ru     2.830098    0.000000   12.310765    ( 0.0000,  0.0000,  0.0000)
  11 Ru     5.660196    0.000000   12.310765    ( 0.0000,  0.0000,  0.0000)
  12 Pd     1.415049    2.450937   12.310765    ( 0.0000,  0.0000,  0.0000)
  13 Ru     4.245147    2.450937   12.310765    ( 0.0000,  0.0000,  0.0000)
  14 Ag     7.075245    2.450937   12.310765    ( 0.0000,  0.0000,  0.0000)
  15 Pd     2.830098    4.901874   12.310765    ( 0.0000,  0.0000,  0.0000)
  16 Ag     5.660196    4.901874   12.310765    ( 0.0000,  0.0000,  0.0000)
  17 Pd     8.490294    4.901874   12.310765    ( 0.0000,  0.0000,  0.0000)
  18 Ag     1.421155    0.837010   14.689023    ( 0.0000,  0.0000,  0.0000)
  19 Ag     4.225090    0.833409   14.672424    ( 0.0000,  0.0000,  0.0000)
  20 Pt     7.000904    0.827460   14.671466    ( 0.0000,  0.0000,  0.0000)
  21 Ag     2.849924    3.276632   14.699186    ( 0.0000,  0.0000,  0.0000)
  22 Ag     5.610352    3.275561   14.714158    ( 0.0000,  0.0000,  0.0000)
  23 Ag     8.406545    3.279828   14.704477    ( 0.0000,  0.0000,  0.0000)
  24 Pd     4.231776    5.665562   14.788108    ( 0.0000,  0.0000,  0.0000)
  25 Pd     7.030647    5.718006   14.699716    ( 0.0000,  0.0000,  0.0000)
  26 Ag     9.809633    5.685124   14.694305    ( 0.0000,  0.0000,  0.0000)
  27 Pt     0.027499    1.643063   17.071110    ( 0.0000,  0.0000,  0.0000)
  28 Pd     2.860857    1.665779   17.078603    ( 0.0000,  0.0000,  0.0000)
  29 Pd     5.584849    1.662577   17.073394    ( 0.0000,  0.0000,  0.0000)
  30 Pd     1.448229    4.081105   17.050310    ( 0.0000,  0.0000,  0.0000)
  31 Ru     4.291312    4.075782   17.295412    ( 0.0000,  0.0000,  0.0000)
  32 Pt     6.976185    4.089097   17.097311    ( 0.0000,  0.0000,  0.0000)
  33 Ag     2.793356    6.507957   17.080822    ( 0.0000,  0.0000,  0.0000)
  34 Pt     5.604676    6.463583   17.100475    ( 0.0000,  0.0000,  0.0000)
  35 Ru     8.293473    6.442432   17.193503    ( 0.0000,  0.0000,  0.0000)
  36 Pd     0.172833    0.081339   19.491407    ( 0.0000,  0.0000,  0.0000)
  37 Ru     2.910634   -0.063512   19.211742    ( 0.0000,  0.0000,  0.0000)
  38 Pd     5.591337    0.004141   19.429523    ( 0.0000,  0.0000,  0.0000)
  39 Pt     1.447473    2.475863   19.376867    ( 0.0000,  0.0000,  0.0000)
  40 Pd     4.208053    2.423142   19.460580    ( 0.0000,  0.0000,  0.0000)
  41 Pd     7.074809    2.494205   19.415933    ( 0.0000,  0.0000,  0.0000)
  42 Pt     2.793916    4.810096   19.363842    ( 0.0000,  0.0000,  0.0000)
  43 Pd     5.680057    4.872268   19.518959    ( 0.0000,  0.0000,  0.0000)
  44 Ru     8.422462    4.981254   19.211315    ( 0.0000,  0.0000,  0.0000)
  45 O      0.095101    0.009301   21.497854    ( 0.0000,  0.0000,  0.0000)
  46 H      0.737277    0.685245   21.852545    ( 0.0000,  0.0000,  0.0000)

Unit cell:
           periodic     x           y           z      points  spacing
  1. axis:    yes    8.379498    0.000000    0.000000    35     0.2073
  2. axis:    yes    4.189749    7.256858    0.000000    35     0.2073
  3. axis:    no     0.000000    0.000000   29.243062   135     0.2166

  Lengths:   8.379498   8.379498  29.243062
  Angles:   90.000000  90.000000  60.000000

Effective grid spacing dv^(1/3) = 0.2207

                     log10-error:    total        iterations:
           time      wfs    density  energy       fermi  poisson
iter:   1  03:43:21  -2.86   +inf  -185.590596    3             
iter:   2  03:44:29  -3.28  -2.73  -187.858988    3             
iter:   3  03:45:37  -3.49  -2.00  -185.562909    3             
iter:   4  03:46:47  -4.44  -2.77  -185.520373    2             
iter:   5  03:47:55  -4.85  -2.95  -185.501339    3             
iter:   6  03:49:03  -5.18  -3.05  -185.492590    2             
iter:   7  03:50:11  -5.69  -3.33  -185.491264    2             
iter:   8  03:51:28  -5.80  -3.52  -185.488425    2             
iter:   9  03:53:00  -5.38  -3.57  -185.490976    2             
iter:  10  03:54:33  -5.62  -3.42  -185.492799    2             
iter:  11  03:56:05  -5.73  -3.47  -185.487414    2             
iter:  12  03:57:37  -6.38  -3.74  -185.487925    2             
iter:  13  03:59:10  -6.41  -3.88  -185.488342    2             
iter:  14  04:00:42  -6.85  -4.03  -185.487629    2             
iter:  15  04:02:14  -7.24  -3.98  -185.487946    2             
iter:  16  04:03:47  -6.77  -4.17  -185.488239    2             
iter:  17  04:05:19  -6.94  -4.17  -185.487942    2             
iter:  18  04:06:52  -7.15  -3.92  -185.487706    2             
iter:  19  04:08:24  -7.53  -4.25  -185.487904    2             

Converged after 19 iterations.

Dipole moment: (13.721164, 18.435545, -0.272726) |e|*Ang

Energy contributions relative to reference atoms: (reference = -9073466.092496)

Kinetic:       -174.033668
Potential:      +27.869812
External:        +0.000000
XC:             -33.928596
Entropy (-ST):   -2.012932
Local:           -4.388986
--------------------------
Free energy:   -186.494370
Extrapolated:  -185.487904

Fermi level: 0.81016

Showing only first 2 kpts
 Kpt  Band  Eigenvalues  Occupancy
  0   367      0.78169    0.14267
  0   368      0.81157    0.12412
  0   369      0.83919    0.10698
  0   370      0.87855    0.08384

  1   367      0.69131    0.19162
  1   368      0.71945    0.17810
  1   369      0.74716    0.16312
  1   370      0.77479    0.14688



Forces in eV/Ang:
  0 Pd    0.09851    0.50822   -0.41888
  1 Ag    0.10760    0.49133   -0.51955
  2 Pt   -0.23287    0.50809    0.82743
  3 Pd    0.10006    0.03532   -0.07523
  4 Pd    0.10614   -0.37404    0.20208
  5 Pt   -0.12939   -0.29146   -0.07474
  6 Pd   -0.16989   -0.39178   -0.05372
  7 Ag   -0.12543   -0.45183   -0.70835
  8 Pd   -0.25191   -0.30259    0.27325
  9 Ag    0.52953    0.20664    0.43027
 10 Ru    2.19912    1.29712    0.40936
 11 Ru   -1.85029    0.88460   -0.32187
 12 Pd    1.11958   -0.24689    0.01384
 13 Ru   -0.53878   -1.48677   -0.85675
 14 Ag   -0.43496    0.13502    0.28287
 15 Pd    0.19539   -0.57838    0.09698
 16 Ag   -0.18583   -0.37573    0.35196
 17 Pd   -0.36702    0.53707   -0.03689
 18 Ag   -0.01244   -0.00058    0.01364
 19 Ag    0.00787    0.00276   -0.00114
 20 Pt   -0.00274   -0.01335    0.01265
 21 Ag    0.01404    0.00446   -0.00330
 22 Ag    0.00674   -0.00755   -0.00618
 23 Ag   -0.00769   -0.03508    0.01351
 24 Pd    0.00676    0.00089    0.02795
 25 Pd   -0.01093    0.00068    0.01777
 26 Ag    0.02686    0.01039    0.01180
 27 Pt   -0.00309    0.04252    0.01970
 28 Pd    0.00503    0.01681    0.00500
 29 Pd   -0.00586    0.00958   -0.01492
 30 Pd   -0.03327   -0.01287   -0.04222
 31 Ru   -0.01379   -0.01420   -0.04212
 32 Pt   -0.01616    0.00765   -0.01883
 33 Ag   -0.01894   -0.01617    0.02512
 34 Pt    0.04349   -0.02407   -0.02047
 35 Ru   -0.00825   -0.00409   -0.01145
 36 Pd   -0.02004   -0.06072    0.01284
 37 Ru    0.03419   -0.02724    0.02046
 38 Pd    0.03431   -0.01130    0.00888
 39 Pt   -0.00880    0.08117    0.02880
 40 Pd    0.00092   -0.01262   -0.03823
 41 Pd   -0.02283   -0.02398    0.01038
 42 Pt    0.02599    0.06841   -0.01365
 43 Pd   -0.07447   -0.00214   -0.01023
 44 Ru   -0.00428   -0.01272   -0.00896
 45 O     0.12885    0.12946    0.08444
 46 H    -0.28462   -0.21450   -0.18046

System changes: positions 

Initializing position-dependent things.

Density initialized from wave functions
                                             
                                             
                                             
                                             
                                             
                                             
                                             
                                             
        O H      Pt     Pd     Ru            
            Pt    APd    PPd    Ru           
                                             
        Pd    Ru     Pd    Pt                
                                             
        Pt     Pd    PPd    Pd     Ag        
                Ag     Ag     Ag             
                                             
           Ag    PAg    APt    Pd            
                                             
            Pd     Ru     Ag     Pd          
       Ag     Ru     Ru                      
             Pd     Pd     Pt                
        Pd     Ag     Pt                     
                                             
                                             
                                             
                                             
                                             

Positions:
   0 Pd     0.000000    1.633958   10.000000    ( 0.0000,  0.0000,  0.0000)
   1 Ag     2.830098    1.633958   10.000000    ( 0.0000,  0.0000,  0.0000)
   2 Pt     5.660196    1.633958   10.000000    ( 0.0000,  0.0000,  0.0000)
   3 Pd     1.415049    4.084895   10.000000    ( 0.0000,  0.0000,  0.0000)
   4 Pd     4.245147    4.084895   10.000000    ( 0.0000,  0.0000,  0.0000)
   5 Pt     7.075245    4.084895   10.000000    ( 0.0000,  0.0000,  0.0000)
   6 Pd     2.830098    6.535832   10.000000    ( 0.0000,  0.0000,  0.0000)
   7 Ag     5.660196    6.535832   10.000000    ( 0.0000,  0.0000,  0.0000)
   8 Pd     8.490294    6.535832   10.000000    ( 0.0000,  0.0000,  0.0000)
   9 Ag     0.000000    0.000000   12.310765    ( 0.0000,  0.0000,  0.0000)
  10 Ru     2.830098    0.000000   12.310765    ( 0.0000,  0.0000,  0.0000)
  11 Ru     5.660196    0.000000   12.310765    ( 0.0000,  0.0000,  0.0000)
  12 Pd     1.415049    2.450937   12.310765    ( 0.0000,  0.0000,  0.0000)
  13 Ru     4.245147    2.450937   12.310765    ( 0.0000,  0.0000,  0.0000)
  14 Ag     7.075245    2.450937   12.310765    ( 0.0000,  0.0000,  0.0000)
  15 Pd     2.830098    4.901874   12.310765    ( 0.0000,  0.0000,  0.0000)
  16 Ag     5.660196    4.901874   12.310765    ( 0.0000,  0.0000,  0.0000)
  17 Pd     8.490294    4.901874   12.310765    ( 0.0000,  0.0000,  0.0000)
  18 Ag     1.419775    0.837245   14.690480    ( 0.0000,  0.0000,  0.0000)
  19 Ag     4.225438    0.833847   14.672937    ( 0.0000,  0.0000,  0.0000)
  20 Pt     7.000473    0.825454   14.671562    ( 0.0000,  0.0000,  0.0000)
  21 Ag     2.851581    3.277261   14.699004    ( 0.0000,  0.0000,  0.0000)
  22 Ag     5.611517    3.274734   14.713093    ( 0.0000,  0.0000,  0.0000)
  23 Ag     8.405629    3.276048   14.706192    ( 0.0000,  0.0000,  0.0000)
  24 Pd     4.233517    5.665438   14.791480    ( 0.0000,  0.0000,  0.0000)
  25 Pd     7.030516    5.718043   14.702173    ( 0.0000,  0.0000,  0.0000)
  26 Ag     9.812546    5.685622   14.696072    ( 0.0000,  0.0000,  0.0000)
  27 Pt     0.026868    1.645601   17.077155    ( 0.0000,  0.0000,  0.0000)
  28 Pd     2.860955    1.667064   17.078483    ( 0.0000,  0.0000,  0.0000)
  29 Pd     5.584137    1.662793   17.071223    ( 0.0000,  0.0000,  0.0000)
  30 Pd     1.443839    4.079223   17.044318    ( 0.0000,  0.0000,  0.0000)
  31 Ru     4.290764    4.075519   17.290074    ( 0.0000,  0.0000,  0.0000)
  32 Pt     6.974191    4.090248   17.095310    ( 0.0000,  0.0000,  0.0000)
  33 Ag     2.792118    6.507153   17.086713    ( 0.0000,  0.0000,  0.0000)
  34 Pt     5.607383    6.462935   17.100908    ( 0.0000,  0.0000,  0.0000)
  35 Ru     8.292682    6.441468   17.193052    ( 0.0000,  0.0000,  0.0000)
  36 Pd     0.179992    0.080937   19.493744    ( 0.0000,  0.0000,  0.0000)
  37 Ru     2.913770   -0.067193   19.213699    ( 0.0000,  0.0000,  0.0000)
  38 Pd     5.593327    0.003259   19.429882    ( 0.0000,  0.0000,  0.0000)
  39 Pt     1.446492    2.486690   19.380616    ( 0.0000,  0.0000,  0.0000)
  40 Pd     4.208583    2.420854   19.455973    ( 0.0000,  0.0000,  0.0000)
  41 Pd     7.071083    2.492888   19.416798    ( 0.0000,  0.0000,  0.0000)
  42 Pt     2.794288    4.815295   19.359299    ( 0.0000,  0.0000,  0.0000)
  43 Pd     5.670692    4.869765   19.516823    ( 0.0000,  0.0000,  0.0000)
  44 Ru     8.420839    4.979216   19.211258    ( 0.0000,  0.0000,  0.0000)
  45 O      0.088443   -0.000602   21.495261    ( 0.0000,  0.0000,  0.0000)
  46 H      0.724052    0.683006   21.834380    ( 0.0000,  0.0000,  0.0000)

Unit cell:
           periodic     x           y           z      points  spacing
  1. axis:    yes    8.379498    0.000000    0.000000    35     0.2073
  2. axis:    yes    4.189749    7.256858    0.000000    35     0.2073
  3. axis:    no     0.000000    0.000000   29.243062   135     0.2166

  Lengths:   8.379498   8.379498  29.243062
  Angles:   90.000000  90.000000  60.000000

Effective grid spacing dv^(1/3) = 0.2207

                     log10-error:    total        iterations:
           time      wfs    density  energy       fermi  poisson
iter:   1  04:10:38  -3.45   +inf  -185.780196    2             
iter:   2  04:11:57  -2.58  -2.46  -199.931946    4             
iter:   3  04:13:12  -2.79  -1.65  -185.603739    3             
iter:   4  04:14:25  -4.17  -2.85  -185.511635    3             
iter:   5  04:15:40  -4.87  -3.27  -185.499076    2             
iter:   6  04:16:54  -5.52  -3.54  -185.496868    2             
iter:   7  04:18:08  -6.01  -3.61  -185.496902    2             
iter:   8  04:19:23  -5.74  -3.69  -185.494450    2             
iter:   9  04:20:37  -6.03  -3.90  -185.496973    2             
iter:  10  04:21:46  -6.30  -3.57  -185.494360    2             
iter:  11  04:22:54  -6.56  -3.98  -185.494260    2             
iter:  12  04:24:03  -6.73  -4.12  -185.494114    2             
iter:  13  04:25:11  -6.89  -4.06  -185.494536    2             
iter:  14  04:26:21  -7.20  -4.27  -185.493985    2             
iter:  15  04:27:29  -6.97  -4.13  -185.494175    2             
iter:  16  04:28:38  -7.52  -4.34  -185.494249    2             

Converged after 16 iterations.

Dipole moment: (14.306041, 19.274927, -0.275985) |e|*Ang

Energy contributions relative to reference atoms: (reference = -9073466.092496)

Kinetic:       -173.933000
Potential:      +27.820776
External:        +0.000000
XC:             -33.996855
Entropy (-ST):   -2.013216
Local:           -4.378561
--------------------------
Free energy:   -186.500857
Extrapolated:  -185.494249

Fermi level: 0.80860

Showing only first 2 kpts
 Kpt  Band  Eigenvalues  Occupancy
  0   367      0.78019    0.14264
  0   368      0.81035    0.12391
  0   369      0.83787    0.10684
  0   370      0.87660    0.08407

  1   367      0.68999    0.19151
  1   368      0.71780    0.17815
  1   369      0.74624    0.16276
  1   370      0.77332    0.14683



Forces in eV/Ang:
  0 Pd    0.09798    0.50923   -0.41982
  1 Ag    0.10935    0.49118   -0.51815
  2 Pt   -0.23392    0.50719    0.82644
  3 Pd    0.09991    0.03562   -0.07533
  4 Pd    0.10627   -0.37529    0.20337
  5 Pt   -0.12870   -0.29175   -0.07514
  6 Pd   -0.17096   -0.39102   -0.05355
  7 Ag   -0.12486   -0.45203   -0.70680
  8 Pd   -0.25043   -0.30195    0.27546
  9 Ag    0.53256    0.20482    0.43335
 10 Ru    2.19863    1.29589    0.41989
 11 Ru   -1.85505    0.88002   -0.31824
 12 Pd    1.12033   -0.24525    0.02113
 13 Ru   -0.54013   -1.48823   -0.85761
 14 Ag   -0.43368    0.13575    0.28266
 15 Pd    0.19418   -0.57840    0.09929
 16 Ag   -0.18351   -0.37301    0.35686
 17 Pd   -0.36523    0.53862   -0.01898
 18 Ag   -0.00005   -0.00205    0.01487
 19 Ag   -0.00504   -0.00943   -0.01487
 20 Pt    0.00933   -0.00636    0.02750
 21 Ag   -0.00045   -0.00615   -0.02095
 22 Ag    0.00463   -0.00850   -0.02341
 23 Ag    0.00317   -0.00747   -0.01299
 24 Pd   -0.00411    0.00970    0.01565
 25 Pd    0.01203    0.00187   -0.02253
 26 Ag   -0.00661   -0.00492   -0.00965
 27 Pt    0.01103   -0.01578    0.00030
 28 Pd   -0.02320   -0.00506    0.03851
 29 Pd    0.00398   -0.00327   -0.00697
 30 Pd   -0.00751    0.01160   -0.00379
 31 Ru   -0.02679   -0.01984   -0.02585
 32 Pt   -0.00328   -0.01280    0.00787
 33 Ag    0.00892    0.01296   -0.03826
 34 Pt    0.00311    0.03512   -0.01061
 35 Ru    0.01424    0.00723   -0.01558
 36 Pd   -0.05391   -0.04517   -0.09214
 37 Ru    0.00189   -0.00031    0.02932
 38 Pd    0.00503    0.00715    0.03499
 39 Pt   -0.00961    0.01007    0.02504
 40 Pd   -0.03745   -0.01031   -0.01122
 41 Pd   -0.00290   -0.01819    0.01894
 42 Pt    0.03556    0.00882    0.02333
 43 Pd   -0.01645    0.01121    0.00823
 44 Ru   -0.00304   -0.00738   -0.00068
 45 O    -0.01827   -0.01862    0.05514
 46 H    -0.17774   -0.09593   -0.06628

System changes: positions 

Initializing position-dependent things.

Density initialized from wave functions
                                             
                                             
                                             
                                             
                                             
                                             
                                             
                                             
       O H       Pt     Pd     Ru            
            Pt    APd    PPd    Ru           
                                             
        Pd    Ru     Pd    Pt                
                                             
        Pt     Pd    PPd    Pd     Ag        
                Ag     Ag     Ag             
                                             
           Ag    PAg    APt    Pd            
                                             
            Pd     Ru     Ag    Pd           
       Ag     Ru     Ru                      
             Pd     Pd     Pt                
        Pd     Ag     Pt                     
                                             
                                             
                                             
                                             
                                             

Positions:
   0 Pd     0.000000    1.633958   10.000000    ( 0.0000,  0.0000,  0.0000)
   1 Ag     2.830098    1.633958   10.000000    ( 0.0000,  0.0000,  0.0000)
   2 Pt     5.660196    1.633958   10.000000    ( 0.0000,  0.0000,  0.0000)
   3 Pd     1.415049    4.084895   10.000000    ( 0.0000,  0.0000,  0.0000)
   4 Pd     4.245147    4.084895   10.000000    ( 0.0000,  0.0000,  0.0000)
   5 Pt     7.075245    4.084895   10.000000    ( 0.0000,  0.0000,  0.0000)
   6 Pd     2.830098    6.535832   10.000000    ( 0.0000,  0.0000,  0.0000)
   7 Ag     5.660196    6.535832   10.000000    ( 0.0000,  0.0000,  0.0000)
   8 Pd     8.490294    6.535832   10.000000    ( 0.0000,  0.0000,  0.0000)
   9 Ag     0.000000    0.000000   12.310765    ( 0.0000,  0.0000,  0.0000)
  10 Ru     2.830098    0.000000   12.310765    ( 0.0000,  0.0000,  0.0000)
  11 Ru     5.660196    0.000000   12.310765    ( 0.0000,  0.0000,  0.0000)
  12 Pd     1.415049    2.450937   12.310765    ( 0.0000,  0.0000,  0.0000)
  13 Ru     4.245147    2.450937   12.310765    ( 0.0000,  0.0000,  0.0000)
  14 Ag     7.075245    2.450937   12.310765    ( 0.0000,  0.0000,  0.0000)
  15 Pd     2.830098    4.901874   12.310765    ( 0.0000,  0.0000,  0.0000)
  16 Ag     5.660196    4.901874   12.310765    ( 0.0000,  0.0000,  0.0000)
  17 Pd     8.490294    4.901874   12.310765    ( 0.0000,  0.0000,  0.0000)
  18 Ag     1.418036    0.837254   14.694676    ( 0.0000,  0.0000,  0.0000)
  19 Ag     4.224805    0.832852   14.671461    ( 0.0000,  0.0000,  0.0000)
  20 Pt     7.001421    0.821626   14.675604    ( 0.0000,  0.0000,  0.0000)
  21 Ag     2.853554    3.277151   14.695497    ( 0.0000,  0.0000,  0.0000)
  22 Ag     5.613888    3.272387   14.707886    ( 0.0000,  0.0000,  0.0000)
  23 Ag     8.404964    3.270455   14.706271    ( 0.0000,  0.0000,  0.0000)
  24 Pd     4.235368    5.666847   14.798316    ( 0.0000,  0.0000,  0.0000)
  25 Pd     7.032947    5.718360   14.701693    ( 0.0000,  0.0000,  0.0000)
  26 Ag     9.814938    5.685148   14.696936    ( 0.0000,  0.0000,  0.0000)
  27 Pt     0.027649    1.645140   17.085754    ( 0.0000,  0.0000,  0.0000)
  28 Pd     2.857165    1.667599   17.084301    ( 0.0000,  0.0000,  0.0000)
  29 Pd     5.583909    1.662094   17.067166    ( 0.0000,  0.0000,  0.0000)
  30 Pd     1.437110    4.078541   17.036107    ( 0.0000,  0.0000,  0.0000)
  31 Ru     4.286198    4.072457   17.279115    ( 0.0000,  0.0000,  0.0000)
  32 Pt     6.971175    4.089336   17.094198    ( 0.0000,  0.0000,  0.0000)
  33 Ag     2.792274    6.508815   17.088501    ( 0.0000,  0.0000,  0.0000)
  34 Pt     5.610063    6.468904   17.100371    ( 0.0000,  0.0000,  0.0000)
  35 Ru     8.294388    6.441407   17.190428    ( 0.0000,  0.0000,  0.0000)
  36 Pd     0.184249    0.076042   19.488081    ( 0.0000,  0.0000,  0.0000)
  37 Ru     2.917783   -0.072062   19.220596    ( 0.0000,  0.0000,  0.0000)
  38 Pd     5.595590    0.003465   19.435896    ( 0.0000,  0.0000,  0.0000)
  39 Pt     1.444338    2.502973   19.389196    ( 0.0000,  0.0000,  0.0000)
  40 Pd     4.203205    2.416153   19.448358    ( 0.0000,  0.0000,  0.0000)
  41 Pd     7.065256    2.489180   19.420923    ( 0.0000,  0.0000,  0.0000)
  42 Pt     2.799032    4.821361   19.356369    ( 0.0000,  0.0000,  0.0000)
  43 Pd     5.656182    4.867348   19.515462    ( 0.0000,  0.0000,  0.0000)
  44 Ru     8.417984    4.975247   19.211642    ( 0.0000,  0.0000,  0.0000)
[...]
  20 Pt     7.001522    0.822918   14.670268    ( 0.0000,  0.0000,  0.0000)
  21 Ag     2.852060    3.271655   14.699066    ( 0.0000,  0.0000,  0.0000)
  22 Ag     5.612670    3.269344   14.709062    ( 0.0000,  0.0000,  0.0000)
  23 Ag     8.407542    3.274083   14.704286    ( 0.0000,  0.0000,  0.0000)
  24 Pd     4.234139    5.659856   14.791147    ( 0.0000,  0.0000,  0.0000)
  25 Pd     7.032796    5.714183   14.700606    ( 0.0000,  0.0000,  0.0000)
  26 Ag     9.812258    5.682223   14.690944    ( 0.0000,  0.0000,  0.0000)
  27 Pt     0.021983    1.647797   17.074521    ( 0.0000,  0.0000,  0.0000)
  28 Pd     2.849874    1.663460   17.090136    ( 0.0000,  0.0000,  0.0000)
  29 Pd     5.576258    1.660501   17.071996    ( 0.0000,  0.0000,  0.0000)
  30 Pd     1.444010    4.083362   17.041212    ( 0.0000,  0.0000,  0.0000)
  31 Ru     4.284798    4.070628   17.275565    ( 0.0000,  0.0000,  0.0000)
  32 Pt     6.971978    4.087089   17.093146    ( 0.0000,  0.0000,  0.0000)
  33 Ag     2.788802    6.508864   17.073939    ( 0.0000,  0.0000,  0.0000)
  34 Pt     5.608688    6.461777   17.093393    ( 0.0000,  0.0000,  0.0000)
  35 Ru     8.293246    6.440961   17.194271    ( 0.0000,  0.0000,  0.0000)
  36 Pd     0.155404    0.070415   19.458539    ( 0.0000,  0.0000,  0.0000)
  37 Ru     2.908317   -0.084608   19.221544    ( 0.0000,  0.0000,  0.0000)
  38 Pd     5.585848   -0.001133   19.434841    ( 0.0000,  0.0000,  0.0000)
  39 Pt     1.419041    2.496980   19.388760    ( 0.0000,  0.0000,  0.0000)
  40 Pd     4.185640    2.413133   19.454966    ( 0.0000,  0.0000,  0.0000)
  41 Pd     7.049491    2.485812   19.419610    ( 0.0000,  0.0000,  0.0000)
  42 Pt     2.795782    4.812799   19.351505    ( 0.0000,  0.0000,  0.0000)
  43 Pd     5.660275    4.867823   19.507554    ( 0.0000,  0.0000,  0.0000)
  44 Ru     8.417459    4.970685   19.211423    ( 0.0000,  0.0000,  0.0000)
  45 O      0.009659   -0.048021   21.459791    ( 0.0000,  0.0000,  0.0000)
  46 H      0.577288    0.674934   21.828539    ( 0.0000,  0.0000,  0.0000)

Unit cell:
           periodic     x           y           z      points  spacing
  1. axis:    yes    8.379498    0.000000    0.000000    35     0.2073
  2. axis:    yes    4.189749    7.256858    0.000000    35     0.2073
  3. axis:    no     0.000000    0.000000   29.243062   135     0.2166

  Lengths:   8.379498   8.379498  29.243062
  Angles:   90.000000  90.000000  60.000000

Effective grid spacing dv^(1/3) = 0.2207

                     log10-error:    total        iterations:
           time      wfs    density  energy       fermi  poisson
iter:   1  06:43:48  -3.97   +inf  -185.531544    2             
iter:   2  06:45:22  -4.35  -3.16  -185.634503    2             
iter:   3  06:46:55  -4.58  -2.64  -185.540257    2             
iter:   4  06:48:29  -5.23  -3.05  -185.518896    3             
iter:   5  06:49:41  -6.11  -3.70  -185.517552    2             
iter:   6  06:50:54  -6.09  -3.86  -185.517559    2             
iter:   7  06:52:09  -5.91  -3.96  -185.517352    2             
iter:   8  06:53:23  -6.37  -3.68  -185.518510    2             
iter:   9  06:54:37  -6.32  -3.75  -185.517277    2             
iter:  10  06:55:51  -6.93  -4.13  -185.517181    2             
iter:  11  06:57:06  -7.08  -4.23  -185.516955    2             
iter:  12  06:58:20  -7.29  -4.30  -185.517402    2             
iter:  13  06:59:34  -7.67  -4.22  -185.517085    2             

Converged after 13 iterations.

Dipole moment: (21.790013, 23.638171, -0.259969) |e|*Ang

Energy contributions relative to reference atoms: (reference = -9073466.092496)

Kinetic:       -173.770651
Potential:      +27.744314
External:        +0.000000
XC:             -34.097530
Entropy (-ST):   -2.013470
Local:           -4.386484
--------------------------
Free energy:   -186.523821
Extrapolated:  -185.517085

Fermi level: 0.81517

Showing only first 2 kpts
 Kpt  Band  Eigenvalues  Occupancy
  0   367      0.78658    0.14274
  0   368      0.81678    0.12399
  0   369      0.84290    0.10778
  0   370      0.88470    0.08321

  1   367      0.69690    0.19136
  1   368      0.72424    0.17821
  1   369      0.75248    0.16295
  1   370      0.78094    0.14619



Forces in eV/Ang:
  0 Pd    0.09801    0.50870   -0.42045
  1 Ag    0.10866    0.49210   -0.51945
  2 Pt   -0.23361    0.50806    0.82613
  3 Pd    0.09960    0.03617   -0.07578
  4 Pd    0.10624   -0.37530    0.20291
  5 Pt   -0.12907   -0.29194   -0.07555
  6 Pd   -0.17162   -0.39178   -0.05367
  7 Ag   -0.12524   -0.45224   -0.70802
  8 Pd   -0.25170   -0.30277    0.27257
  9 Ag    0.53738    0.20495    0.44134
 10 Ru    2.19439    1.29674    0.41594
 11 Ru   -1.84951    0.88468   -0.33190
 12 Pd    1.11974   -0.25581    0.02040
 13 Ru   -0.54234   -1.49652   -0.87239
 14 Ag   -0.42755    0.13076    0.27159
 15 Pd    0.20147   -0.58203    0.08701
 16 Ag   -0.18443   -0.36986    0.34861
 17 Pd   -0.37042    0.53262   -0.04342
 18 Ag   -0.01537    0.00065    0.00181
 19 Ag   -0.01482   -0.00545    0.00198
 20 Pt    0.02403    0.00181    0.00670
 21 Ag   -0.00666   -0.00173    0.00031
 22 Ag    0.01160    0.01199    0.00283
 23 Ag   -0.00339   -0.02305    0.00594
 24 Pd    0.01121    0.01760   -0.00348
 25 Pd   -0.01734    0.00549    0.00896
 26 Ag    0.00520   -0.00143    0.00424
 27 Pt    0.01867    0.03465   -0.01547
 28 Pd    0.00263   -0.01014    0.01323
 29 Pd   -0.01802    0.00510    0.01320
 30 Pd   -0.02022   -0.03609    0.01024
 31 Ru   -0.00929   -0.02458    0.02118
 32 Pt   -0.01176    0.00862    0.00833
 33 Ag   -0.01727   -0.01075    0.00741
 34 Pt    0.06149   -0.00712   -0.00434
 35 Ru   -0.04753    0.01156    0.04031
 36 Pd    0.00030   -0.01532    0.04387
 37 Ru    0.02664   -0.00800   -0.04832
 38 Pd   -0.02658   -0.00005   -0.00861
 39 Pt    0.01697    0.02277   -0.02125
 40 Pd   -0.00090   -0.00146   -0.02422
 41 Pd   -0.00328    0.00803   -0.02013
 42 Pt   -0.01350   -0.01194   -0.00097
 43 Pd   -0.00767   -0.01465   -0.00110
 44 Ru   -0.01868    0.00635   -0.02469
 45 O     0.07168    0.09462    0.04233
 46 H    -0.11282   -0.01084   -0.02909

System changes: positions 

Initializing position-dependent things.

Density initialized from wave functions
                                             
                                             
                                             
                                             
                                             
                                             
                                             
                                             
         H       Pt     Pd     Ru            
       O    Pt    APd    PPd    Ru           
                                             
        Pd    Ru     Pd    Pt                
                                             
        Pt     Pd    PPd    Pd     Ag        
                Ag     Ag     Ag             
                                             
           Ag    PAg    APt    Pd            
                                             
            Pd     Ru     Ag     Pd          
       Ag     Ru     Ru                      
             Pd     Pd     Pt                
        Pd     Ag     Pt                     
                                             
                                             
                                             
                                             
                                             

Positions:
   0 Pd     0.000000    1.633958   10.000000    ( 0.0000,  0.0000,  0.0000)
   1 Ag     2.830098    1.633958   10.000000    ( 0.0000,  0.0000,  0.0000)
   2 Pt     5.660196    1.633958   10.000000    ( 0.0000,  0.0000,  0.0000)
   3 Pd     1.415049    4.084895   10.000000    ( 0.0000,  0.0000,  0.0000)
   4 Pd     4.245147    4.084895   10.000000    ( 0.0000,  0.0000,  0.0000)
   5 Pt     7.075245    4.084895   10.000000    ( 0.0000,  0.0000,  0.0000)
   6 Pd     2.830098    6.535832   10.000000    ( 0.0000,  0.0000,  0.0000)
   7 Ag     5.660196    6.535832   10.000000    ( 0.0000,  0.0000,  0.0000)
   8 Pd     8.490294    6.535832   10.000000    ( 0.0000,  0.0000,  0.0000)
   9 Ag     0.000000    0.000000   12.310765    ( 0.0000,  0.0000,  0.0000)
  10 Ru     2.830098    0.000000   12.310765    ( 0.0000,  0.0000,  0.0000)
  11 Ru     5.660196    0.000000   12.310765    ( 0.0000,  0.0000,  0.0000)
  12 Pd     1.415049    2.450937   12.310765    ( 0.0000,  0.0000,  0.0000)
  13 Ru     4.245147    2.450937   12.310765    ( 0.0000,  0.0000,  0.0000)
  14 Ag     7.075245    2.450937   12.310765    ( 0.0000,  0.0000,  0.0000)
  15 Pd     2.830098    4.901874   12.310765    ( 0.0000,  0.0000,  0.0000)
  16 Ag     5.660196    4.901874   12.310765    ( 0.0000,  0.0000,  0.0000)
  17 Pd     8.490294    4.901874   12.310765    ( 0.0000,  0.0000,  0.0000)
  18 Ag     1.420887    0.834493   14.692265    ( 0.0000,  0.0000,  0.0000)
  19 Ag     4.223727    0.829983   14.675657    ( 0.0000,  0.0000,  0.0000)
  20 Pt     7.001549    0.823187   14.670376    ( 0.0000,  0.0000,  0.0000)
  21 Ag     2.852781    3.271064   14.699112    ( 0.0000,  0.0000,  0.0000)
  22 Ag     5.613084    3.269633   14.709234    ( 0.0000,  0.0000,  0.0000)
  23 Ag     8.407198    3.272802   14.702443    ( 0.0000,  0.0000,  0.0000)
  24 Pd     4.234682    5.659303   14.789797    ( 0.0000,  0.0000,  0.0000)
  25 Pd     7.032442    5.713862   14.699728    ( 0.0000,  0.0000,  0.0000)
  26 Ag     9.812460    5.681594   14.691529    ( 0.0000,  0.0000,  0.0000)
  27 Pt     0.021386    1.647779   17.074546    ( 0.0000,  0.0000,  0.0000)
  28 Pd     2.848691    1.662312   17.090447    ( 0.0000,  0.0000,  0.0000)
  29 Pd     5.575355    1.660707   17.072341    ( 0.0000,  0.0000,  0.0000)
  30 Pd     1.441753    4.080747   17.040785    ( 0.0000,  0.0000,  0.0000)
  31 Ru     4.283035    4.068680   17.277690    ( 0.0000,  0.0000,  0.0000)
  32 Pt     6.970352    4.086075   17.094107    ( 0.0000,  0.0000,  0.0000)
  33 Ag     2.787829    6.508341   17.075304    ( 0.0000,  0.0000,  0.0000)
  34 Pt     5.609296    6.461745   17.092612    ( 0.0000,  0.0000,  0.0000)
  35 Ru     8.291048    6.440648   17.195409    ( 0.0000,  0.0000,  0.0000)
  36 Pd     0.157019    0.067969   19.460841    ( 0.0000,  0.0000,  0.0000)
  37 Ru     2.906006   -0.084769   19.221220    ( 0.0000,  0.0000,  0.0000)
  38 Pd     5.583369   -0.001319   19.433954    ( 0.0000,  0.0000,  0.0000)
  39 Pt     1.416674    2.498067   19.387702    ( 0.0000,  0.0000,  0.0000)
  40 Pd     4.183930    2.412070   19.454982    ( 0.0000,  0.0000,  0.0000)
  41 Pd     7.048092    2.485148   19.416045    ( 0.0000,  0.0000,  0.0000)
  42 Pt     2.793274    4.812464   19.350643    ( 0.0000,  0.0000,  0.0000)
  43 Pd     5.655562    4.867571   19.508510    ( 0.0000,  0.0000,  0.0000)
  44 Ru     8.413814    4.967671   19.210736    ( 0.0000,  0.0000,  0.0000)
  45 O      0.001489   -0.046154   21.459144    ( 0.0000,  0.0000,  0.0000)
  46 H      0.553369    0.684071   21.830875    ( 0.0000,  0.0000,  0.0000)

Unit cell:
           periodic     x           y           z      points  spacing
  1. axis:    yes    8.379498    0.000000    0.000000    35     0.2073
  2. axis:    yes    4.189749    7.256858    0.000000    35     0.2073
  3. axis:    no     0.000000    0.000000   29.243062   135     0.2166

  Lengths:   8.379498   8.379498  29.243062
  Angles:   90.000000  90.000000  60.000000

Effective grid spacing dv^(1/3) = 0.2207

                     log10-error:    total        iterations:
           time      wfs    density  energy       fermi  poisson
iter:   1  07:01:14  -3.86   +inf  -185.667962    3             
iter:   2  07:02:23  -2.84  -2.61  -193.550481    4             
iter:   3  07:03:32  -3.10  -1.76  -185.563453    3             
iter:   4  07:04:41  -4.42  -3.05  -185.528256    3             
iter:   5  07:05:50  -5.28  -3.37  -185.521699    2             
iter:   6  07:06:59  -5.84  -3.72  -185.521004    2             
iter:   7  07:08:08  -6.34  -3.80  -185.520584    2             
iter:   8  07:09:16  -5.53  -3.84  -185.518828    2             
iter:   9  07:10:25  -6.06  -3.83  -185.521699    2             
iter:  10  07:11:34  -6.43  -3.53  -185.518709    2             
iter:  11  07:12:41  -6.85  -4.18  -185.518956    2             
iter:  12  07:13:51  -7.01  -4.25  -185.518820    2             
iter:  13  07:15:00  -7.05  -4.35  -185.519053    2             
iter:  14  07:16:07  -7.42  -4.43  -185.519000    2             

Converged after 14 iterations.

Dipole moment: (22.639048, 23.624865, -0.257923) |e|*Ang

Energy contributions relative to reference atoms: (reference = -9073466.092496)

Kinetic:       -173.383619
Potential:      +27.422693
External:        +0.000000
XC:             -34.162956
Entropy (-ST):   -2.013044
Local:           -4.388596
--------------------------
Free energy:   -186.525522
Extrapolated:  -185.519000

Fermi level: 0.81587

Showing only first 2 kpts
 Kpt  Band  Eigenvalues  Occupancy
  0   367      0.78745    0.14265
  0   368      0.81733    0.12409
  0   369      0.84344    0.10788
  0   370      0.88543    0.08320

  1   367      0.69716    0.19156
  1   368      0.72497    0.17820
  1   369      0.75337    0.16284
  1   370      0.78183    0.14608



Forces in eV/Ang:
  0 Pd    0.09698    0.50787   -0.41833
  1 Ag    0.10786    0.49157   -0.52070
  2 Pt   -0.23169    0.50839    0.82653
  3 Pd    0.09967    0.03642   -0.07686
  4 Pd    0.10734   -0.37361    0.20374
  5 Pt   -0.13033   -0.29176   -0.07481
  6 Pd   -0.17008   -0.39136   -0.05226
  7 Ag   -0.12604   -0.45268   -0.70713
  8 Pd   -0.25185   -0.30358    0.27230
  9 Ag    0.53293    0.20411    0.43505
 10 Ru    2.19690    1.29561    0.41353
 11 Ru   -1.84894    0.88846   -0.32188
 12 Pd    1.12100   -0.25343    0.01342
 13 Ru   -0.53632   -1.49873   -0.86153
 14 Ag   -0.43358    0.12921    0.26870
 15 Pd    0.20161   -0.58130    0.09062
 16 Ag   -0.18410   -0.37293    0.34566
 17 Pd   -0.37001    0.53315   -0.04278
 18 Ag   -0.00916   -0.00598    0.00426
 19 Ag    0.01004   -0.00295   -0.00407
 20 Pt   -0.00913   -0.01279    0.00895
 21 Ag   -0.00241    0.00713   -0.00121
 22 Ag    0.00123    0.00079    0.00128
 23 Ag   -0.00444   -0.00084    0.01158
 24 Pd   -0.00554    0.01103    0.01529
 25 Pd   -0.00216   -0.00309    0.00779
 26 Ag    0.00308    0.00530    0.01014
 27 Pt    0.00359   -0.00372   -0.01149
 28 Pd    0.00221    0.00417   -0.00390
 29 Pd   -0.00575   -0.00975   -0.01178
 30 Pd   -0.01564    0.00546   -0.01193
 31 Ru   -0.00315    0.00667   -0.01038
 32 Pt   -0.01819    0.01048   -0.02259
 33 Ag   -0.00416   -0.01167   -0.00340
 34 Pt   -0.00932   -0.01640   -0.00561
 35 Ru    0.00047   -0.00865   -0.00046
 36 Pd   -0.00487    0.00101    0.00982
 37 Ru    0.00864   -0.00359    0.00353
 38 Pd   -0.00457   -0.01148    0.00863
 39 Pt    0.01072   -0.00212    0.00872
 40 Pd   -0.00287   -0.00334    0.00455
 41 Pd   -0.00686   -0.00668    0.00645
 42 Pt   -0.00950    0.00999    0.01727
 43 Pd   -0.00556   -0.01680    0.01556
 44 Ru    0.00254    0.01510    0.00279
 45 O     0.06053   -0.02777    0.01906
 46 H    -0.04973    0.06666    0.01010

Timing:                                      incl.     excl.
-------------------------------------------------------------------
Density initialized from wave functions:    51.853    51.853   0.2% |
 Symmetrize density:                         0.001     0.001   0.0% |
Forces:                                    262.567   262.567   1.1% |
Hamiltonian:                                46.494     0.129   0.0% |
 Atomic:                                    13.704     8.803   0.0% |
  XC Correction:                             4.901     4.901   0.0% |
 Calculate atomic Hamiltonians:             16.085    16.085   0.1% |
 Communicate:                                2.254     2.254   0.0% |
 Initialize Hamiltonian:                     0.001     0.001   0.0% |
 Poisson:                                    0.074     0.074   0.0% |
 XC 3D grid:                                14.247    14.247   0.1% |
LCAO initialization:                        53.669     3.326   0.0% |
 LCAO eigensolver:                           6.481     0.002   0.0% |
  Calculate projections:                     0.053     0.053   0.0% |
  DenseAtomicCorrection:                     0.047     0.047   0.0% |
  Distribute overlap matrix:                 0.481     0.481   0.0% |
  Orbital Layouts:                           0.442     0.442   0.0% |
  Potential matrix:                          5.423     5.423   0.0% |
  Sum over cells:                            0.034     0.034   0.0% |
 LCAO to grid:                              41.514    41.514   0.2% |
 Set positions (LCAO WFS):                   2.347     0.993   0.0% |
  Basic WFS set positions:                   0.002     0.002   0.0% |
  Basis functions set positions:             0.000     0.000   0.0% |
  P tci:                                     0.516     0.516   0.0% |
  ST tci:                                    0.622     0.622   0.0% |
  mktci:                                     0.214     0.214   0.0% |
PWDescriptor:                                0.043     0.043   0.0% |
Redistribute:                                0.082     0.082   0.0% |
SCF-cycle:                               23568.506  1491.439   6.2% |-|
 Davidson:                               20092.730  4676.836  19.4% |-------|
  Apply H:                                3064.248  2962.794  12.3% |----|
   HMM T:                                  101.455   101.455   0.4% |
  Subspace diag:                          2852.763     0.092   0.0% |
   calc_h_matrix:                         1636.965   619.784   2.6% ||
    Apply H:                              1017.180   983.516   4.1% |-|
     HMM T:                                 33.665    33.665   0.1% |
   diagonalize:                             47.503    47.503   0.2% |
   rotate_psi:                            1168.203  1168.203   4.8% |-|
  calc. matrices:                         6277.683  4246.312  17.6% |------|
   Apply H:                               2031.370  1964.054   8.1% |--|
    HMM T:                                  67.317    67.317   0.3% |
  diagonalize:                             869.217   869.217   3.6% ||
  rotate_psi:                             2351.983  2351.983   9.8% |---|
 Density:                                 1016.940     0.015   0.0% |
  Atomic density matrices:                   5.864     5.864   0.0% |
  Mix:                                     381.895   381.895   1.6% ||
  Multipole moments:                         0.421     0.421   0.0% |
  Pseudo density:                          628.745   628.732   2.6% ||
   Symmetrize density:                       0.012     0.012   0.0% |
 Hamiltonian:                              872.327     2.560   0.0% |
  Atomic:                                  233.190   131.117   0.5% |
   XC Correction:                          102.073   102.073   0.4% |
  Calculate atomic Hamiltonians:           322.650   322.650   1.3% ||
  Communicate:                              31.439    31.439   0.1% |
  Poisson:                                   1.500     1.500   0.0% |
  XC 3D grid:                              280.988   280.988   1.2% |
 Orthonormalize:                            95.070     0.005   0.0% |
  calc_s_matrix:                            14.326    14.326   0.1% |
  inverse-cholesky:                          1.158     1.158   0.0% |
  projections:                              51.744    51.744   0.2% |
  rotate_psi_s:                             27.837    27.837   0.1% |
Set symmetry:                                0.002     0.002   0.0% |
Other:                                     128.967   128.967   0.5% |
-------------------------------------------------------------------
Total:                                             24112.183 100.0%

Date: Fri Mar  4 07:16:22 2022
