
  ___ ___ ___ _ _ _  
 |   |   |_  | | | | 
 | | | | | . | | | | 
 |__ |  _|___|_____|  1.5.1
 |___|_|             

User:   clausen@node419.cluster
Date:   Fri Mar  4 00:48:25 2022
Arch:   x86_64
Pid:    33501
Python: 3.6.12
gpaw:   /software/kemi/gpaw/1.5.1/gpaw
_gpaw:  /software/kemi/gpaw/1.5.1/bin/gpaw-python
ase:    /software/kemi/ase/3.17.0/ase (version 3.17.0)
numpy:  /opt/rh/rh-python36/root/usr/lib64/python3.6/site-packages/numpy (version 1.13.1)
scipy:  /opt/rh/rh-python36/root/usr/lib64/python3.6/site-packages/scipy (version 0.19.1)
units:  Angstrom and eV
cores:  16

Input parameters:
  kpts: [4 4 1]
  mode: {ecut: 400.0,
         gammacentered: False,
         name: pw}
  xc: RPBE

System changes: positions, numbers, cell, pbc, initial_charges, initial_magmoms 

Initialize ...

Pd-setup:
  name: Palladium
  id: 6da19bfba079f22767af9506641940b9
  Z: 46
  valence: 16
  core: 30
  charge: 0.0
  file: /software/kemi/gpaw-setups/0.9.20000/Pd.RPBE.gz
  cutoffs: 1.19(comp), 2.38(filt), 2.28(core), lmax=2
  valence states:
                energy  radius
    5s(0.00)    -3.225   1.228
    4p(6.00)   -51.131   1.360
    5p(0.00)    -0.373   1.360
    4d(10.00)    -3.964   1.228
    *s          23.987   1.228
    *d          23.247   1.228

  Using partial waves for Pd as LCAO basis

Ag-setup:
  name: Silver
  id: c05e55bab2c3858b3f9398f6d75cb77c
  Z: 47
  valence: 17
  core: 30
  charge: 0.0
  file: /software/kemi/gpaw-setups/0.9.20000/Ag.RPBE.gz
  cutoffs: 1.25(comp), 2.35(filt), 2.19(core), lmax=2
  valence states:
                energy  radius
    5s(1.00)    -4.277   1.286
    4p(6.00)   -58.523   1.328
    5p(0.00)    -0.755   1.328
    4d(10.00)    -7.386   1.180
    *s          22.934   1.286
    *d          19.826   1.180

  Using partial waves for Ag as LCAO basis

Pt-setup:
  name: Platinum
  id: f04f522592575c47ad794f6b4a415b4b
  Z: 78
  valence: 16
  core: 62
  charge: 0.0
  file: /software/kemi/gpaw-setups/0.9.20000/Pt.RPBE.gz
  cutoffs: 1.29(comp), 2.26(filt), 2.26(core), lmax=2
  valence states:
                energy  radius
    6s(1.00)    -5.516   1.307
    5p(6.00)   -55.971   1.371
    6p(0.00)    -0.856   1.371
    5d(9.00)    -6.087   1.307
    *s          21.695   1.307
    *d          21.125   1.307

  Using partial waves for Pt as LCAO basis

Ru-setup:
  name: Ruthenium
  id: 76477906e28f51dc1b29884d53556fe9
  Z: 44
  valence: 16
  core: 28
  charge: 0.0
  file: /software/kemi/gpaw-setups/0.9.20000/Ru.RPBE.gz
  cutoffs: 1.23(comp), 2.16(filt), 1.30(core), lmax=2
  valence states:
                energy  radius
    4s(2.00)   -76.255   1.281
    5s(1.00)    -4.126   1.281
    4p(6.00)   -46.371   1.286
    5p(0.00)    -0.913   1.286
    4d(7.00)    -5.146   1.254
    *d          22.066   1.254

  Using partial waves for Ru as LCAO basis

O-setup:
  name: Oxygen
  id: 08071ca1eed670e7821b24b7eb4d558c
  Z: 8
  valence: 6
  core: 2
  charge: 0.0
  file: /software/kemi/gpaw-setups/0.9.20000/O.RPBE.gz
  cutoffs: 0.67(comp), 1.17(filt), 0.83(core), lmax=2
  valence states:
                energy  radius
    2s(2.00)   -24.041   0.688
    2p(4.00)    -8.984   0.598
    *s           3.170   0.688
    *p          18.228   0.598
    *d           0.000   0.619

  Using partial waves for O as LCAO basis

H-setup:
  name: Hydrogen
  id: ea3f9156a1dc40d47a60fdce8f8bd75d
  Z: 1
  valence: 1
  core: 0
  charge: 0.0
  file: /software/kemi/gpaw-setups/0.9.20000/H.RPBE.gz
  cutoffs: 0.48(comp), 0.85(filt), 0.53(core), lmax=2
  valence states:
                energy  radius
    1s(1.00)    -6.572   0.476
    *s          20.639   0.476
    *p           0.000   0.476

  Using partial waves for H as LCAO basis

Reference energy: -9073466.092496

Spin-paired calculation

Occupation numbers:
  Fermi-Dirac: width=0.1000 eV

Convergence criteria:
  Maximum total energy change: 0.0005 eV / electron
  Maximum integral of absolute density change: 0.0001 electrons
  Maximum integral of absolute eigenstate change: 4e-08 eV^2
  Maximum number of iterations: 333

Symmetries present (total): 1

  ( 1  0  0)
  ( 0  1  0)
  ( 0  0  1)

16 k-points: 4 x 4 x 1 Monkhorst-Pack grid
8 k-points in the irreducible part of the Brillouin zone
       k-points in crystal coordinates                weights
   0:     0.12500000   -0.37500000    0.00000000          2/16
   1:     0.12500000   -0.12500000    0.00000000          2/16
   2:     0.12500000    0.12500000    0.00000000          2/16
   3:     0.12500000    0.37500000    0.00000000          2/16
   4:     0.37500000   -0.37500000    0.00000000          2/16
   5:     0.37500000   -0.12500000    0.00000000          2/16
   6:     0.37500000    0.12500000    0.00000000          2/16
   7:     0.37500000    0.37500000    0.00000000          2/16

Wave functions: Plane wave expansion
  Cutoff energy: 400.000 eV
  Number of coefficients (min, max): 32266, 32339
  Pulay-stress correction: 0.000000 eV/Ang^3 (de/decut=0.000000)
  Using FFTW library
  ScaLapack parameters: grid=1x1, blocksize=None
  Wavefunction extrapolation:
    Improved wavefunction reuse through dual PAW basis 

Eigensolver
   Davidson(niter=2, smin=None, normalize=True) 

Densities:
  Coarse grid: 35*35*135 grid
  Fine grid: 70*70*270 grid
  Total Charge: 0.000000 

Density mixing:
  Method: separate
  Backend: pulay
  Linear mixing parameter: 0.05
  Mixing with 5 old densities
  Damping of long wave oscillations: 50 

Hamiltonian:
  XC and Coulomb potentials evaluated on a 70*70*270 grid
  Using the RPBE Exchange-Correlation functional
 

XC parameters: RPBE with 2 nearest neighbor stencil

Memory estimate:
  Process memory now: 150.02 MiB
  Calculator: 552.99 MiB
    Density: 51.61 MiB
      Arrays: 16.41 MiB
      Localized functions: 28.84 MiB
      Mixer: 6.36 MiB
    Hamiltonian: 11.64 MiB
      Arrays: 10.73 MiB
      XC: 0.00 MiB
      Poisson: 0.00 MiB
      vbar: 0.91 MiB
    Wavefunctions: 489.75 MiB
      Arrays psit_nG: 221.07 MiB
      Eigensolver: 254.17 MiB
      Projections: 2.83 MiB
      Projectors: 5.06 MiB
      PW-descriptor: 6.62 MiB

Total number of cores used: 16
Parallelization over k-points: 8
Domain decomposition: 1 x 1 x 2

Number of atoms: 47
Number of atomic orbitals: 552
Number of bands in calculation: 448
Bands to converge: occupied states only
Number of valence electrons: 739

... initialized

Initializing position-dependent things.

Density initialized from atomic densities
Creating initial wave functions:
  448 bands from LCAO basis set

                                             
                                             
                                             
                                             
                                             
                                             
                            H                
                          O                  
                 Pt      Pd    Ru            
                                             
            Pt    APd    PPd    Ru           
        Pd           Pd                      
              Ru           Pt                
        Pt     Pd    PPd    Pd     Ag        
                                             
                Ag     Ag     Ag             
                                             
           Ag    PAg    APt    Pd            
                                             
            Pd     Ru     Ag     Pd          
       Ag    PRu    PRu    Pt                
                                             
        Pd     Ag     Pt                     
                                             
                                             
                                             
                                             
                                             

Positions:
   0 Pd     0.000000    1.633958   10.000000    ( 0.0000,  0.0000,  0.0000)
   1 Ag     2.830098    1.633958   10.000000    ( 0.0000,  0.0000,  0.0000)
   2 Pt     5.660196    1.633958   10.000000    ( 0.0000,  0.0000,  0.0000)
   3 Pd     1.415049    4.084895   10.000000    ( 0.0000,  0.0000,  0.0000)
   4 Pd     4.245147    4.084895   10.000000    ( 0.0000,  0.0000,  0.0000)
   5 Pt     7.075245    4.084895   10.000000    ( 0.0000,  0.0000,  0.0000)
   6 Pd     2.830098    6.535832   10.000000    ( 0.0000,  0.0000,  0.0000)
   7 Ag     5.660196    6.535832   10.000000    ( 0.0000,  0.0000,  0.0000)
   8 Pd     8.490294    6.535832   10.000000    ( 0.0000,  0.0000,  0.0000)
   9 Ag     0.000000    0.000000   12.310765    ( 0.0000,  0.0000,  0.0000)
  10 Ru     2.830098    0.000000   12.310765    ( 0.0000,  0.0000,  0.0000)
  11 Ru     5.660196    0.000000   12.310765    ( 0.0000,  0.0000,  0.0000)
  12 Pd     1.415049    2.450937   12.310765    ( 0.0000,  0.0000,  0.0000)
  13 Ru     4.245147    2.450937   12.310765    ( 0.0000,  0.0000,  0.0000)
  14 Ag     7.075245    2.450937   12.310765    ( 0.0000,  0.0000,  0.0000)
  15 Pd     2.830098    4.901874   12.310765    ( 0.0000,  0.0000,  0.0000)
  16 Ag     5.660196    4.901874   12.310765    ( 0.0000,  0.0000,  0.0000)
  17 Pd     8.490294    4.901874   12.310765    ( 0.0000,  0.0000,  0.0000)
  18 Ag     1.422839    0.836358   14.687202    ( 0.0000,  0.0000,  0.0000)
  19 Ag     4.228290    0.834029   14.668537    ( 0.0000,  0.0000,  0.0000)
  20 Pt     7.000876    0.833422   14.677349    ( 0.0000,  0.0000,  0.0000)
  21 Ag     2.849410    3.275055   14.697646    ( 0.0000,  0.0000,  0.0000)
  22 Ag     5.607020    3.276035   14.715763    ( 0.0000,  0.0000,  0.0000)
  23 Ag     8.407636    3.278571   14.701685    ( 0.0000,  0.0000,  0.0000)
  24 Pd     4.226650    5.664441   14.783889    ( 0.0000,  0.0000,  0.0000)
  25 Pd     7.021524    5.717496   14.695770    ( 0.0000,  0.0000,  0.0000)
  26 Ag     9.810161    5.688371   14.690489    ( 0.0000,  0.0000,  0.0000)
  27 Pt     0.030364    1.654579   17.054310    ( 0.0000,  0.0000,  0.0000)
  28 Pd     2.863636    1.668211   17.080253    ( 0.0000,  0.0000,  0.0000)
  29 Pd     5.584811    1.668389   17.077768    ( 0.0000,  0.0000,  0.0000)
  30 Pd     1.451673    4.084780   17.054426    ( 0.0000,  0.0000,  0.0000)
  31 Ru     4.287216    4.070209   17.299465    ( 0.0000,  0.0000,  0.0000)
  32 Pt     6.976254    4.091014   17.095978    ( 0.0000,  0.0000,  0.0000)
  33 Ag     2.791829    6.501265   17.070936    ( 0.0000,  0.0000,  0.0000)
  34 Pt     5.617052    6.449501   17.092744    ( 0.0000,  0.0000,  0.0000)
  35 Ru     8.289070    6.444709   17.186717    ( 0.0000,  0.0000,  0.0000)
  36 Pd     0.109969    0.038419   19.432145    ( 0.0000,  0.0000,  0.0000)
  37 Ru     2.913932   -0.060119   19.211827    ( 0.0000,  0.0000,  0.0000)
  38 Pd     5.607656    0.003198   19.432032    ( 0.0000,  0.0000,  0.0000)
  39 Pt     1.441354    2.458850   19.369405    ( 0.0000,  0.0000,  0.0000)
  40 Pd     4.211433    2.427374   19.463642    ( 0.0000,  0.0000,  0.0000)
  41 Pd     7.082631    2.483306   19.414916    ( 0.0000,  0.0000,  0.0000)
  42 Pt     2.814800    4.836018   19.384744    ( 0.0000,  0.0000,  0.0000)
  43 Pd     5.686541    4.887569   19.522731    ( 0.0000,  0.0000,  0.0000)
  44 Ru     8.428363    4.985817   19.203811    ( 0.0000,  0.0000,  0.0000)
  45 O      7.082631    2.483306   21.522731    ( 0.0000,  0.0000,  0.0000)
  46 H      7.732631    3.133306   21.922731    ( 0.0000,  0.0000,  0.0000)

Unit cell:
           periodic     x           y           z      points  spacing
  1. axis:    yes    8.379498    0.000000    0.000000    35     0.2073
  2. axis:    yes    4.189749    7.256858    0.000000    35     0.2073
  3. axis:    no     0.000000    0.000000   29.243062   135     0.2166

  Lengths:   8.379498   8.379498  29.243062
  Angles:   90.000000  90.000000  60.000000

Effective grid spacing dv^(1/3) = 0.2207

                     log10-error:    total        iterations:
           time      wfs    density  energy       fermi  poisson
iter:   1  00:50:47  +0.50   +inf  -243.083673    3             
iter:   2  00:51:59  -1.06  -1.20  -213.461238    3             
iter:   3  00:53:11  -1.44  -1.32  -214.202171    37            
iter:   4  00:54:22  -1.35  -1.33  -275.324738    37            
iter:   5  00:55:34  -1.56  -1.20  -196.315780    35            
iter:   6  00:56:46  -1.75  -1.50  -189.406136    36            
iter:   7  00:57:59  -2.04  -1.66  -188.715355    35            
iter:   8  00:59:12  -3.13  -1.73  -187.933552    3             
iter:   9  01:00:25  -2.42  -1.74  -193.220386    4             
iter:  10  01:01:38  -2.34  -1.65  -189.088413    3             
iter:  11  01:02:51  -2.53  -1.79  -186.259691    3             
iter:  12  01:04:03  -3.04  -2.03  -186.384055    3             
iter:  13  01:05:16  -2.90  -2.04  -186.287858    3             
iter:  14  01:06:28  -3.44  -2.14  -186.011842    3             
iter:  15  01:07:40  -3.63  -2.21  -185.708895    3             
iter:  16  01:08:52  -3.38  -2.36  -185.551556    3             
iter:  17  01:10:05  -3.54  -2.48  -185.467848    2             
iter:  18  01:11:18  -3.67  -2.65  -185.438508    2             
iter:  19  01:12:31  -4.37  -2.76  -185.415490    2             
iter:  20  01:13:44  -4.58  -2.94  -185.424456    2             
iter:  21  01:14:57  -4.49  -2.89  -185.458109    2             
iter:  22  01:16:10  -5.09  -2.78  -185.413243    2             
iter:  23  01:17:23  -5.17  -3.09  -185.412679    2             
iter:  24  01:18:36  -5.29  -3.17  -185.414705    2             
iter:  25  01:19:49  -5.17  -3.21  -185.411883    2             
iter:  26  01:21:02  -5.57  -3.35  -185.410982    2             
iter:  27  01:22:15  -5.66  -3.44  -185.412506    2             
iter:  28  01:23:28  -5.63  -3.40  -185.413487    2             
iter:  29  01:24:41  -5.96  -3.29  -185.410219    2             
iter:  30  01:25:53  -6.02  -3.50  -185.410915    2             
iter:  31  01:27:06  -6.45  -3.59  -185.410206    2             
iter:  32  01:28:18  -6.65  -3.62  -185.410401    2             
iter:  33  01:29:31  -6.43  -3.67  -185.410790    2             
iter:  34  01:30:44  -6.55  -3.68  -185.410397    2             
iter:  35  01:31:57  -6.60  -3.76  -185.410142    2             
iter:  36  01:33:10  -6.64  -3.84  -185.411212    2             
iter:  37  01:34:22  -6.59  -3.71  -185.410093    2             
iter:  38  01:35:34  -6.98  -4.06  -185.410389    2             
iter:  39  01:36:47  -7.12  -4.02  -185.410270    2             
iter:  40  01:37:59  -7.00  -4.13  -185.410238    2             
iter:  41  01:39:11  -7.48  -4.32  -185.410050    2             

Converged after 41 iterations.

Dipole moment: (24.949190, 21.850449, -0.292687) |e|*Ang

Energy contributions relative to reference atoms: (reference = -9073466.092496)

Kinetic:       -174.160916
Potential:      +27.839868
External:        +0.000000
XC:             -33.651577
Entropy (-ST):   -2.026066
Local:           -4.424391
--------------------------
Free energy:   -186.423083
Extrapolated:  -185.410050

Fermi level: 0.79924

Showing only first 2 kpts
 Kpt  Band  Eigenvalues  Occupancy
  0   367      0.76490    0.14626
  0   368      0.80618    0.12066
  0   369      0.83036    0.10571
  0   370      0.84332    0.09789

  1   367      0.66940    0.19639
  1   368      0.70676    0.17901
  1   369      0.74698    0.15694
  1   370      0.76333    0.14721



Forces in eV/Ang:
  0 Pd    0.09102    0.51097   -0.42722
  1 Ag    0.11405    0.48454   -0.51319
  2 Pt   -0.22899    0.51765    0.82975
  3 Pd    0.09430    0.03376   -0.08789
  4 Pd    0.12216   -0.37671    0.19578
  5 Pt   -0.13511   -0.29940   -0.09447
  6 Pd   -0.17341   -0.38493   -0.05907
  7 Ag   -0.12376   -0.45610   -0.71260
  8 Pd   -0.25809   -0.29875    0.27332
  9 Ag    0.51515    0.21526    0.43385
 10 Ru    2.21205    1.27114    0.37393
 11 Ru   -1.84190    0.88300   -0.34263
 12 Pd    1.12185   -0.24969    0.00383
 13 Ru   -0.52729   -1.48712   -0.86890
 14 Ag   -0.44842    0.12750    0.28961
 15 Pd    0.18715   -0.57668    0.08955
 16 Ag   -0.18419   -0.38455    0.33254
 17 Pd   -0.37069    0.54275   -0.02342
 18 Ag    0.00135   -0.00952   -0.00063
 19 Ag   -0.02422   -0.00707    0.01105
 20 Pt   -0.00899   -0.01410   -0.00399
 21 Ag    0.00460    0.00308    0.01061
 22 Ag    0.01731   -0.01313    0.00127
 23 Ag   -0.01357    0.00151    0.04195
 24 Pd    0.02215    0.01317    0.02040
 25 Pd    0.02235    0.07156    0.01495
 26 Ag   -0.01092   -0.00808    0.02647
 27 Pt   -0.06813    0.01203    0.07508
 28 Pd   -0.01954   -0.01058    0.03667
 29 Pd    0.01112   -0.02991   -0.01096
 30 Pd   -0.00440   -0.03200    0.01197
 31 Ru    0.01530   -0.01094   -0.02544
 32 Pt    0.02540   -0.05907   -0.00592
 33 Ag    0.00293    0.05999   -0.00444
 34 Pt   -0.01175    0.02599   -0.03138
 35 Ru    0.01393    0.03527    0.06069
 36 Pd    0.08383   -0.07551    0.00200
 37 Ru   -0.04647    0.02923    0.05957
 38 Pd   -0.07392   -0.12801   -0.02766
 39 Pt    0.17437   -0.01220    0.02672
 40 Pd   -0.17732   -0.00939   -0.02062
 41 Pd    0.21552    0.12928    0.97516
 42 Pt   -0.05797   -0.03519   -0.05163
 43 Pd   -0.08065    0.08461    0.00735
 44 Ru   -0.00752    0.07071   -0.04496
 45 O     0.22358    0.27721   -0.48265
 46 H    -0.33885   -0.38633   -0.48620

System changes: positions 

Initializing position-dependent things.

Density initialized from wave functions
                                             
                                             
                                             
                                             
                                             
                                             
                            H                
                          O                  
                 Pt      Pd    Ru            
            Pt    APd    PPd    Ru           
                                             
        Pd    Ru     Pd    Pt                
                                             
        Pt     Pd    PPd    Pd     Ag        
                Ag     Ag     Ag             
                                             
           Ag    PAg    APt    Pd            
                                             
            Pd     Ru     Ag     Pd          
       Ag     Ru     Ru                      
             Pd     Pd     Pt                
        Pd     Ag     Pt                     
                                             
                                             
                                             
                                             
                                             

Positions:
   0 Pd     0.000000    1.633958   10.000000    ( 0.0000,  0.0000,  0.0000)
   1 Ag     2.830098    1.633958   10.000000    ( 0.0000,  0.0000,  0.0000)
   2 Pt     5.660196    1.633958   10.000000    ( 0.0000,  0.0000,  0.0000)
   3 Pd     1.415049    4.084895   10.000000    ( 0.0000,  0.0000,  0.0000)
   4 Pd     4.245147    4.084895   10.000000    ( 0.0000,  0.0000,  0.0000)
   5 Pt     7.075245    4.084895   10.000000    ( 0.0000,  0.0000,  0.0000)
   6 Pd     2.830098    6.535832   10.000000    ( 0.0000,  0.0000,  0.0000)
   7 Ag     5.660196    6.535832   10.000000    ( 0.0000,  0.0000,  0.0000)
   8 Pd     8.490294    6.535832   10.000000    ( 0.0000,  0.0000,  0.0000)
   9 Ag     0.000000    0.000000   12.310765    ( 0.0000,  0.0000,  0.0000)
  10 Ru     2.830098    0.000000   12.310765    ( 0.0000,  0.0000,  0.0000)
  11 Ru     5.660196    0.000000   12.310765    ( 0.0000,  0.0000,  0.0000)
  12 Pd     1.415049    2.450937   12.310765    ( 0.0000,  0.0000,  0.0000)
  13 Ru     4.245147    2.450937   12.310765    ( 0.0000,  0.0000,  0.0000)
  14 Ag     7.075245    2.450937   12.310765    ( 0.0000,  0.0000,  0.0000)
  15 Pd     2.830098    4.901874   12.310765    ( 0.0000,  0.0000,  0.0000)
  16 Ag     5.660196    4.901874   12.310765    ( 0.0000,  0.0000,  0.0000)
  17 Pd     8.490294    4.901874   12.310765    ( 0.0000,  0.0000,  0.0000)
  18 Ag     1.422973    0.835407   14.687139    ( 0.0000,  0.0000,  0.0000)
  19 Ag     4.225868    0.833322   14.669642    ( 0.0000,  0.0000,  0.0000)
  20 Pt     6.999977    0.832012   14.676950    ( 0.0000,  0.0000,  0.0000)
  21 Ag     2.849870    3.275363   14.698707    ( 0.0000,  0.0000,  0.0000)
  22 Ag     5.608751    3.274722   14.715890    ( 0.0000,  0.0000,  0.0000)
  23 Ag     8.406279    3.278722   14.705880    ( 0.0000,  0.0000,  0.0000)
  24 Pd     4.228865    5.665758   14.785929    ( 0.0000,  0.0000,  0.0000)
  25 Pd     7.023759    5.724652   14.697265    ( 0.0000,  0.0000,  0.0000)
  26 Ag     9.809069    5.687563   14.693136    ( 0.0000,  0.0000,  0.0000)
  27 Pt     0.023550    1.655781   17.061817    ( 0.0000,  0.0000,  0.0000)
  28 Pd     2.861682    1.667152   17.083919    ( 0.0000,  0.0000,  0.0000)
  29 Pd     5.585923    1.665398   17.076672    ( 0.0000,  0.0000,  0.0000)
  30 Pd     1.451234    4.081580   17.055623    ( 0.0000,  0.0000,  0.0000)
  31 Ru     4.288745    4.069115   17.296920    ( 0.0000,  0.0000,  0.0000)
  32 Pt     6.978794    4.085107   17.095386    ( 0.0000,  0.0000,  0.0000)
  33 Ag     2.792122    6.507263   17.070492    ( 0.0000,  0.0000,  0.0000)
  34 Pt     5.615877    6.452100   17.089606    ( 0.0000,  0.0000,  0.0000)
  35 Ru     8.290464    6.448236   17.192786    ( 0.0000,  0.0000,  0.0000)
  36 Pd     0.118352    0.030868   19.432345    ( 0.0000,  0.0000,  0.0000)
  37 Ru     2.909285   -0.057196   19.217783    ( 0.0000,  0.0000,  0.0000)
  38 Pd     5.600264   -0.009603   19.429266    ( 0.0000,  0.0000,  0.0000)
  39 Pt     1.458791    2.457630   19.372077    ( 0.0000,  0.0000,  0.0000)
  40 Pd     4.193701    2.426435   19.461580    ( 0.0000,  0.0000,  0.0000)
  41 Pd     7.104183    2.496233   19.512432    ( 0.0000,  0.0000,  0.0000)
  42 Pt     2.809003    4.832499   19.379580    ( 0.0000,  0.0000,  0.0000)
  43 Pd     5.678476    4.896030   19.523466    ( 0.0000,  0.0000,  0.0000)
  44 Ru     8.427611    4.992888   19.199315    ( 0.0000,  0.0000,  0.0000)
  45 O      7.104989    2.511026   21.474466    ( 0.0000,  0.0000,  0.0000)
  46 H      7.698746    3.094673   21.874112    ( 0.0000,  0.0000,  0.0000)

Unit cell:
           periodic     x           y           z      points  spacing
  1. axis:    yes    8.379498    0.000000    0.000000    35     0.2073
  2. axis:    yes    4.189749    7.256858    0.000000    35     0.2073
  3. axis:    no     0.000000    0.000000   29.243062   135     0.2166

  Lengths:   8.379498   8.379498  29.243062
  Angles:   90.000000  90.000000  60.000000

Effective grid spacing dv^(1/3) = 0.2207

                     log10-error:    total        iterations:
           time      wfs    density  energy       fermi  poisson
iter:   1  01:40:55  -2.25   +inf  -189.268877    4             
iter:   2  01:42:08  -1.52  -1.94  -262.531366    35            
iter:   3  01:43:21  -1.46  -1.36  -208.366635    36            
iter:   4  01:44:33  -2.65  -1.61  -187.902675    36            
iter:   5  01:45:46  -2.95  -2.15  -185.896515    4             
iter:   6  01:46:59  -3.39  -2.48  -185.518782    3             
iter:   7  01:48:12  -3.98  -2.69  -185.454523    3             
iter:   8  01:49:24  -4.01  -2.79  -185.439977    2             
iter:   9  01:50:37  -4.20  -2.71  -185.416620    3             
iter:  10  01:51:50  -4.11  -2.97  -185.443845    3             
iter:  11  01:53:03  -4.64  -2.70  -185.370212    2             
iter:  12  01:54:16  -4.74  -3.15  -185.375707    2             
iter:  13  01:55:29  -4.92  -3.14  -185.369389    2             
iter:  14  01:56:42  -5.30  -3.15  -185.364488    2             
iter:  15  01:57:54  -5.52  -3.26  -185.364171    2             
iter:  16  01:59:06  -5.86  -3.44  -185.361947    2             
iter:  17  02:00:17  -5.50  -3.44  -185.360391    2             
iter:  18  02:01:29  -5.26  -3.66  -185.361750    3             
iter:  19  02:02:40  -5.98  -3.76  -185.362116    2             
iter:  20  02:03:51  -6.32  -3.80  -185.361080    2             
iter:  21  02:05:02  -6.64  -3.87  -185.362199    2             
iter:  22  02:06:12  -6.25  -3.73  -185.361810    2             
iter:  23  02:07:23  -6.33  -4.01  -185.360522    2             
iter:  24  02:08:34  -6.85  -3.91  -185.360987    2             
iter:  25  02:09:45  -6.97  -4.26  -185.360972    2             
iter:  26  02:10:57  -7.17  -4.37  -185.360786    2             
iter:  27  02:12:10  -7.28  -4.30  -185.360751    2             
iter:  28  02:13:23  -7.35  -4.46  -185.360967    2             
iter:  29  02:14:37  -7.66  -4.48  -185.360720    2             

Converged after 29 iterations.

Dipole moment: (24.246600, 22.681442, -0.218372) |e|*Ang

Energy contributions relative to reference atoms: (reference = -9073466.092496)

Kinetic:       -171.034783
Potential:      +26.037065
External:        +0.000000
XC:             -34.940573
Entropy (-ST):   -2.018348
Local:           -4.413256
--------------------------
Free energy:   -186.369894
Extrapolated:  -185.360720

Fermi level: 0.83418

Showing only first 2 kpts
 Kpt  Band  Eigenvalues  Occupancy
  0   367      0.79683    0.14808
  0   368      0.84111    0.12068
  0   369      0.86693    0.10471
  0   370      0.87637    0.09902

  1   367      0.71065    0.19369
  1   368      0.74223    0.17874
  1   369      0.78249    0.15661
  1   370      0.79726    0.14782



Forces in eV/Ang:
  0 Pd    0.10011    0.51335   -0.41612
  1 Ag    0.10384    0.48897   -0.50918
  2 Pt   -0.22969    0.51355    0.83917
  3 Pd    0.10050    0.03507   -0.07548
  4 Pd    0.10682   -0.36879    0.20625
  5 Pt   -0.12558   -0.29642   -0.07632
  6 Pd   -0.17288   -0.39808   -0.05294
  7 Ag   -0.12871   -0.45353   -0.70603
  8 Pd   -0.25389   -0.30481    0.28216
  9 Ag    0.51738    0.21288    0.43341
 10 Ru    2.20732    1.27121    0.38127
 11 Ru   -1.84176    0.87177   -0.34206
 12 Pd    1.11320   -0.24073    0.01117
 13 Ru   -0.53295   -1.47553   -0.86648
 14 Ag   -0.43365    0.13620    0.29831
 15 Pd    0.18579   -0.57940    0.09154
 16 Ag   -0.18242   -0.38157    0.34890
 17 Pd   -0.36688    0.53196   -0.01487
 18 Ag   -0.01857    0.03230    0.00003
 19 Ag   -0.00233    0.02221    0.01832
 20 Pt   -0.00293   -0.00725   -0.01426
 21 Ag    0.00358    0.00312    0.01031
 22 Ag    0.00661    0.01005   -0.01041
 23 Ag   -0.00148   -0.00166    0.00777
 24 Pd    0.00615   -0.01301   -0.00188
 25 Pd    0.00547   -0.00438   -0.00371
 26 Ag    0.00338   -0.01167    0.02051
 27 Pt   -0.06866    0.05830    0.19316
 28 Pd   -0.00424   -0.01102   -0.04015
 29 Pd    0.01699    0.03532    0.11773
 30 Pd    0.00368   -0.00772   -0.01417
 31 Ru    0.02343   -0.01549   -0.02608
 32 Pt   -0.02008   -0.08476    0.11232
 33 Ag   -0.00194   -0.00730    0.00394
 34 Pt    0.02628   -0.00260   -0.02806
 35 Ru   -0.02043    0.02993   -0.02344
 36 Pd    0.00371   -0.00005   -0.02229
 37 Ru   -0.05628    0.03760    0.00922
 38 Pd    0.01233    0.01747   -0.02771
 39 Pt    0.01950   -0.06681    0.02921
 40 Pd    0.00968   -0.02755   -0.03599
 41 Pd    0.18433    0.13364   -0.66074
 42 Pt   -0.00796    0.02470   -0.05394
 43 Pd   -0.03914   -0.01231   -0.03107
 44 Ru   -0.04206   -0.04110    0.03065
 45 O    -2.36452   -2.33498   -0.83003
 46 H     2.30979    2.21852    1.26772

System changes: positions 

Initializing position-dependent things.

Density initialized from wave functions
                                             
                                             
                                             
                                             
                                             
                                             
                            H                
                          O                  
                 Pt      Pd    Ru            
                                             
            Pt    APd    PPd    Ru           
        Pd           Pd    Pt                
              Ru                             
        Pt     Pd    PPd    Pd     Ag        
                                             
                Ag     Ag     Ag             
                                             
           Ag    PAg    APt    Pd            
                                             
            Pd     Ru     Ag     Pd          
       Ag    PRu    PRu    Pt                
                                             
        Pd     Ag     Pt                     
                                             
                                             
                                             
                                             
                                             

Positions:
   0 Pd     0.000000    1.633958   10.000000    ( 0.0000,  0.0000,  0.0000)
   1 Ag     2.830098    1.633958   10.000000    ( 0.0000,  0.0000,  0.0000)
   2 Pt     5.660196    1.633958   10.000000    ( 0.0000,  0.0000,  0.0000)
   3 Pd     1.415049    4.084895   10.000000    ( 0.0000,  0.0000,  0.0000)
   4 Pd     4.245147    4.084895   10.000000    ( 0.0000,  0.0000,  0.0000)
   5 Pt     7.075245    4.084895   10.000000    ( 0.0000,  0.0000,  0.0000)
   6 Pd     2.830098    6.535832   10.000000    ( 0.0000,  0.0000,  0.0000)
   7 Ag     5.660196    6.535832   10.000000    ( 0.0000,  0.0000,  0.0000)
   8 Pd     8.490294    6.535832   10.000000    ( 0.0000,  0.0000,  0.0000)
   9 Ag     0.000000    0.000000   12.310765    ( 0.0000,  0.0000,  0.0000)
  10 Ru     2.830098    0.000000   12.310765    ( 0.0000,  0.0000,  0.0000)
  11 Ru     5.660196    0.000000   12.310765    ( 0.0000,  0.0000,  0.0000)
  12 Pd     1.415049    2.450937   12.310765    ( 0.0000,  0.0000,  0.0000)
  13 Ru     4.245147    2.450937   12.310765    ( 0.0000,  0.0000,  0.0000)
  14 Ag     7.075245    2.450937   12.310765    ( 0.0000,  0.0000,  0.0000)
  15 Pd     2.830098    4.901874   12.310765    ( 0.0000,  0.0000,  0.0000)
  16 Ag     5.660196    4.901874   12.310765    ( 0.0000,  0.0000,  0.0000)
  17 Pd     8.490294    4.901874   12.310765    ( 0.0000,  0.0000,  0.0000)
  18 Ag     1.422894    0.835967   14.687176    ( 0.0000,  0.0000,  0.0000)
  19 Ag     4.227294    0.833738   14.668991    ( 0.0000,  0.0000,  0.0000)
  20 Pt     7.000506    0.832842   14.677185    ( 0.0000,  0.0000,  0.0000)
  21 Ag     2.849599    3.275181   14.698083    ( 0.0000,  0.0000,  0.0000)
  22 Ag     5.607731    3.275495   14.715815    ( 0.0000,  0.0000,  0.0000)
  23 Ag     8.407078    3.278633   14.703410    ( 0.0000,  0.0000,  0.0000)
  24 Pd     4.227561    5.664982   14.784728    ( 0.0000,  0.0000,  0.0000)
  25 Pd     7.022443    5.720439   14.696385    ( 0.0000,  0.0000,  0.0000)
  26 Ag     9.809712    5.688039   14.691577    ( 0.0000,  0.0000,  0.0000)
  27 Pt     0.027562    1.655073   17.057397    ( 0.0000,  0.0000,  0.0000)
  28 Pd     2.862833    1.667776   17.081760    ( 0.0000,  0.0000,  0.0000)
  29 Pd     5.585268    1.667159   17.077318    ( 0.0000,  0.0000,  0.0000)
  30 Pd     1.451492    4.083464   17.054918    ( 0.0000,  0.0000,  0.0000)
  31 Ru     4.287845    4.069759   17.298418    ( 0.0000,  0.0000,  0.0000)
  32 Pt     6.977299    4.088585   17.095735    ( 0.0000,  0.0000,  0.0000)
  33 Ag     2.791950    6.503731   17.070753    ( 0.0000,  0.0000,  0.0000)
  34 Pt     5.616569    6.450569   17.091453    ( 0.0000,  0.0000,  0.0000)
  35 Ru     8.289643    6.446159   17.189213    ( 0.0000,  0.0000,  0.0000)
  36 Pd     0.113416    0.035314   19.432227    ( 0.0000,  0.0000,  0.0000)
  37 Ru     2.912021   -0.058917   19.214276    ( 0.0000,  0.0000,  0.0000)
  38 Pd     5.604617   -0.002065   19.430894    ( 0.0000,  0.0000,  0.0000)
  39 Pt     1.448524    2.458348   19.370504    ( 0.0000,  0.0000,  0.0000)
  40 Pd     4.204141    2.426988   19.462794    ( 0.0000,  0.0000,  0.0000)
  41 Pd     7.091493    2.488622   19.455015    ( 0.0000,  0.0000,  0.0000)
  42 Pt     2.812416    4.834571   19.382621    ( 0.0000,  0.0000,  0.0000)
  43 Pd     5.683224    4.891048   19.523033    ( 0.0000,  0.0000,  0.0000)
  44 Ru     8.428054    4.988724   19.201962    ( 0.0000,  0.0000,  0.0000)
  45 O      7.091825    2.494705   21.502884    ( 0.0000,  0.0000,  0.0000)
  46 H      7.718697    3.117420   21.902739    ( 0.0000,  0.0000,  0.0000)

Unit cell:
           periodic     x           y           z      points  spacing
  1. axis:    yes    8.379498    0.000000    0.000000    35     0.2073
  2. axis:    yes    4.189749    7.256858    0.000000    35     0.2073
  3. axis:    no     0.000000    0.000000   29.243062   135     0.2166

  Lengths:   8.379498   8.379498  29.243062
  Angles:   90.000000  90.000000  60.000000

Effective grid spacing dv^(1/3) = 0.2207

                     log10-error:    total        iterations:
           time      wfs    density  energy       fermi  poisson
iter:   1  02:16:22  -2.61   +inf  -186.021852    3             
iter:   2  02:17:35  -2.81  -2.44  -188.725829    4             
iter:   3  02:18:46  -2.87  -1.96  -188.263139    3             
iter:   4  02:19:58  -3.36  -1.96  -185.630408    3             
iter:   5  02:21:10  -3.85  -2.73  -185.599323    3             
iter:   6  02:22:22  -4.30  -2.61  -185.473023    3             
iter:   7  02:23:35  -5.07  -3.26  -185.471429    2             
iter:   8  02:24:47  -5.51  -3.19  -185.468399    2             
iter:   9  02:25:59  -4.63  -3.35  -185.462731    2             
iter:  10  02:27:12  -5.12  -3.22  -185.459182    2             
iter:  11  02:28:24  -5.59  -3.52  -185.457970    2             
iter:  12  02:29:36  -5.99  -3.69  -185.456948    2             
iter:  13  02:30:49  -6.12  -3.62  -185.456269    2             
iter:  14  02:32:01  -6.30  -3.84  -185.457782    2             
iter:  15  02:33:13  -6.79  -3.81  -185.456678    2             
iter:  16  02:34:24  -6.94  -3.85  -185.456412    2             
iter:  17  02:35:36  -6.76  -3.92  -185.457023    2             
iter:  18  02:36:49  -6.54  -4.14  -185.457084    2             
iter:  19  02:38:02  -6.66  -4.13  -185.456453    2             
iter:  20  02:39:15  -6.94  -3.91  -185.456753    2             
iter:  21  02:40:29  -7.30  -4.37  -185.456854    2             
iter:  22  02:41:42  -7.35  -4.28  -185.456546    2             
iter:  23  02:42:56  -7.27  -4.19  -185.456811    2             
iter:  24  02:44:09  -7.60  -4.36  -185.456862    2             

Converged after 24 iterations.

Dipole moment: (24.658679, 22.194556, -0.262514) |e|*Ang

Energy contributions relative to reference atoms: (reference = -9073466.092496)

Kinetic:       -175.377779
Potential:      +29.333652
External:        +0.000000
XC:             -34.009556
Entropy (-ST):   -2.022281
Local:           -4.392038
--------------------------
Free energy:   -186.468002
Extrapolated:  -185.456862

Fermi level: 0.81242

Showing only first 2 kpts
 Kpt  Band  Eigenvalues  Occupancy
  0   367      0.77669    0.14710
  0   368      0.81936    0.12067
  0   369      0.84419    0.10531
  0   370      0.85590    0.09825

  1   367      0.68527    0.19525
  1   368      0.71990    0.17903
  1   369      0.76005    0.15701
  1   370      0.77623    0.14738



Forces in eV/Ang:
  0 Pd    0.09999    0.50899   -0.42638
  1 Ag    0.10483    0.48854   -0.51889
  2 Pt   -0.23129    0.51200    0.82756
  3 Pd    0.10234    0.03585   -0.08775
  4 Pd    0.10744   -0.36802    0.20006
  5 Pt   -0.12901   -0.29408   -0.08898
  6 Pd   -0.17175   -0.39686   -0.05846
  7 Ag   -0.12921   -0.45346   -0.71207
  8 Pd   -0.25432   -0.30386    0.27031
  9 Ag    0.51722    0.21305    0.43499
 10 Ru    2.21095    1.27068    0.38426
 11 Ru   -1.84378    0.87400   -0.34076
 12 Pd    1.11597   -0.24215    0.01265
 13 Ru   -0.53247   -1.47896   -0.86093
 14 Ag   -0.43704    0.13459    0.29688
 15 Pd    0.18611   -0.58005    0.09336
 16 Ag   -0.18500   -0.38288    0.34472
 17 Pd   -0.36612    0.53572   -0.01499
 18 Ag   -0.00527    0.01052   -0.00095
 19 Ag   -0.01675    0.00588    0.02064
 20 Pt   -0.00606   -0.01085   -0.00364
 21 Ag    0.00199    0.00375    0.01176
 22 Ag    0.01034   -0.00108   -0.00169
 23 Ag   -0.00447    0.00280    0.02397
 24 Pd    0.01583   -0.00233    0.00763
 25 Pd    0.01658    0.03690    0.00497
 26 Ag   -0.00614   -0.01397    0.02505
 27 Pt   -0.08095    0.03688    0.13620
 28 Pd   -0.00700   -0.00493   -0.00802
 29 Pd    0.02130    0.00633    0.05950
 30 Pd   -0.00643   -0.02733   -0.00929
 31 Ru    0.03425   -0.02134   -0.02703
 32 Pt   -0.00254   -0.08643    0.05289
 33 Ag   -0.00063    0.04186   -0.00366
 34 Pt    0.00080    0.01027   -0.03624
 35 Ru    0.00593    0.03573    0.01506
 36 Pd    0.03273   -0.05287   -0.00942
 37 Ru   -0.04219    0.03515    0.05243
 38 Pd   -0.02290   -0.03785   -0.01554
 39 Pt    0.12520   -0.04590   -0.01300
 40 Pd   -0.07064   -0.02568   -0.02378
 41 Pd    0.15232    0.09062    0.39654
 42 Pt   -0.01824    0.00688   -0.03142
 43 Pd   -0.08718    0.04626   -0.02498
 44 Ru   -0.01737    0.04094   -0.04186
 45 O    -0.60444   -0.59579   -0.70302
 46 H     0.60404    0.54967    0.09064

System changes: positions 

Initializing position-dependent things.

Density initialized from wave functions
                                             
                                             
                                             
                                             
                                             
                                             
                            H                
                          O                  
                 Pt     Pd     Ru            
             Pt   APd    PtPd   Ru           
                                             
        Pd    Ru     Pd    Pt                
                                             
        Pt     Pd    PPd    Pd     Ag        
                Ag     Ag     Ag             
                                             
           Ag    PAg    APt    Pd            
                                             
            Pd     Ru     Ag     Pd          
       Ag     Ru     Ru                      
             Pd     Pd     Pt                
        Pd     Ag     Pt                     
                                             
                                             
                                             
                                             
                                             

Positions:
   0 Pd     0.000000    1.633958   10.000000    ( 0.0000,  0.0000,  0.0000)
   1 Ag     2.830098    1.633958   10.000000    ( 0.0000,  0.0000,  0.0000)
   2 Pt     5.660196    1.633958   10.000000    ( 0.0000,  0.0000,  0.0000)
   3 Pd     1.415049    4.084895   10.000000    ( 0.0000,  0.0000,  0.0000)
   4 Pd     4.245147    4.084895   10.000000    ( 0.0000,  0.0000,  0.0000)
   5 Pt     7.075245    4.084895   10.000000    ( 0.0000,  0.0000,  0.0000)
   6 Pd     2.830098    6.535832   10.000000    ( 0.0000,  0.0000,  0.0000)
   7 Ag     5.660196    6.535832   10.000000    ( 0.0000,  0.0000,  0.0000)
   8 Pd     8.490294    6.535832   10.000000    ( 0.0000,  0.0000,  0.0000)
   9 Ag     0.000000    0.000000   12.310765    ( 0.0000,  0.0000,  0.0000)
  10 Ru     2.830098    0.000000   12.310765    ( 0.0000,  0.0000,  0.0000)
  11 Ru     5.660196    0.000000   12.310765    ( 0.0000,  0.0000,  0.0000)
  12 Pd     1.415049    2.450937   12.310765    ( 0.0000,  0.0000,  0.0000)
  13 Ru     4.245147    2.450937   12.310765    ( 0.0000,  0.0000,  0.0000)
  14 Ag     7.075245    2.450937   12.310765    ( 0.0000,  0.0000,  0.0000)
  15 Pd     2.830098    4.901874   12.310765    ( 0.0000,  0.0000,  0.0000)
  16 Ag     5.660196    4.901874   12.310765    ( 0.0000,  0.0000,  0.0000)
  17 Pd     8.490294    4.901874   12.310765    ( 0.0000,  0.0000,  0.0000)
  18 Ag     1.422492    0.835979   14.687002    ( 0.0000,  0.0000,  0.0000)
  19 Ag     4.222709    0.833543   14.672462    ( 0.0000,  0.0000,  0.0000)
  20 Pt     6.998820    0.830056   14.676336    ( 0.0000,  0.0000,  0.0000)
  21 Ag     2.850344    3.275937   14.700560    ( 0.0000,  0.0000,  0.0000)
  22 Ag     5.610836    3.273857   14.715782    ( 0.0000,  0.0000,  0.0000)
  23 Ag     8.405030    3.279106   14.710817    ( 0.0000,  0.0000,  0.0000)
  24 Pd     4.231808    5.666263   14.787902    ( 0.0000,  0.0000,  0.0000)
  25 Pd     7.026794    5.732652   14.698645    ( 0.0000,  0.0000,  0.0000)
  26 Ag     9.807795    5.685620   14.697304    ( 0.0000,  0.0000,  0.0000)
  27 Pt     0.011075    1.660380   17.080551    ( 0.0000,  0.0000,  0.0000)
  28 Pd     2.859825    1.666025   17.085161    ( 0.0000,  0.0000,  0.0000)
  29 Pd     5.588817    1.664363   17.082359    ( 0.0000,  0.0000,  0.0000)
  30 Pd     1.450300    4.076854   17.055321    ( 0.0000,  0.0000,  0.0000)
  31 Ru     4.293251    4.066227   17.292601    ( 0.0000,  0.0000,  0.0000)
  32 Pt     6.979975    4.072567   17.100659    ( 0.0000,  0.0000,  0.0000)
  33 Ag     2.792222    6.515128   17.069850    ( 0.0000,  0.0000,  0.0000)
  34 Pt     5.615291    6.454673   17.083970    ( 0.0000,  0.0000,  0.0000)
  35 Ru     8.291888    6.454039   17.197847    ( 0.0000,  0.0000,  0.0000)
  36 Pd     0.126608    0.020950   19.431459    ( 0.0000,  0.0000,  0.0000)
  37 Ru     2.902157   -0.051799   19.226744    ( 0.0000,  0.0000,  0.0000)
  38 Pd     5.593616   -0.020924   19.426038    ( 0.0000,  0.0000,  0.0000)
  39 Pt     1.482025    2.452064   19.372222    ( 0.0000,  0.0000,  0.0000)
  40 Pd     4.176087    2.423175   19.457880    ( 0.0000,  0.0000,  0.0000)
  41 Pd     7.132641    2.513225   19.610155    ( 0.0000,  0.0000,  0.0000)
  42 Pt     2.803760    4.831220   19.373300    ( 0.0000,  0.0000,  0.0000)
  43 Pd     5.664625    4.905766   19.521236    ( 0.0000,  0.0000,  0.0000)
  44 Ru     8.425339    5.001267   19.192308    ( 0.0000,  0.0000,  0.0000)
  45 O      7.053630    2.463645   21.372342    ( 0.0000,  0.0000,  0.0000)
  46 H      7.743483    3.130934   21.855977    ( 0.0000,  0.0000,  0.0000)

Unit cell:
           periodic     x           y           z      points  spacing
  1. axis:    yes    8.379498    0.000000    0.000000    35     0.2073
  2. axis:    yes    4.189749    7.256858    0.000000    35     0.2073
  3. axis:    no     0.000000    0.000000   29.243062   135     0.2166

  Lengths:   8.379498   8.379498  29.243062
  Angles:   90.000000  90.000000  60.000000

Effective grid spacing dv^(1/3) = 0.2207

                     log10-error:    total        iterations:
           time      wfs    density  energy       fermi  poisson
iter:   1  02:45:53  -1.79   +inf  -186.072771    3             
iter:   2  02:47:07  -1.97  -2.14  -218.241570    36            
iter:   3  02:48:21  -2.37  -1.53  -185.727635    35            
iter:   4  02:49:34  -3.20  -2.25  -185.019538    3             
iter:   5  02:50:47  -3.58  -2.62  -185.005604    2             
iter:   6  02:52:00  -3.75  -2.54  -184.953661    3             
iter:   7  02:53:13  -3.73  -2.61  -184.966469    3             
iter:   8  02:54:26  -3.81  -2.63  -184.848663    3             
iter:   9  02:55:39  -4.31  -2.93  -184.823369    3             
iter:  10  02:56:53  -4.87  -3.24  -184.833346    3             
iter:  11  02:58:07  -5.11  -3.11  -184.822211    2             
iter:  12  02:59:20  -5.30  -3.33  -184.819528    2             
iter:  13  03:00:34  -5.16  -3.40  -184.822683    3             
iter:  14  03:01:48  -5.37  -3.36  -184.820479    2             
iter:  15  03:03:03  -5.83  -3.65  -184.819340    2             
iter:  16  03:04:16  -5.84  -3.70  -184.822922    2             
iter:  17  03:05:29  -5.72  -3.48  -184.820902    2             
iter:  18  03:06:42  -5.87  -3.67  -184.819782    2             
iter:  19  03:07:55  -6.23  -3.67  -184.819690    2             
iter:  20  03:09:07  -6.45  -3.95  -184.820289    2             
iter:  21  03:10:20  -6.38  -4.02  -184.819503    2             
iter:  22  03:11:32  -6.44  -3.90  -184.820085    2             
iter:  23  03:12:45  -6.79  -3.96  -184.820010    2             
iter:  24  03:13:57  -6.65  -4.18  -184.819515    2             
iter:  25  03:15:09  -6.94  -4.08  -184.819343    2             
iter:  26  03:16:22  -6.90  -4.21  -184.820249    2             
iter:  27  03:17:36  -7.17  -4.02  -184.819609    2             
iter:  28  03:18:49  -7.73  -4.28  -184.819584    2             

Converged after 28 iterations.

Dipole moment: (23.123765, 23.498247, -0.055818) |e|*Ang

Energy contributions relative to reference atoms: (reference = -9073466.092496)

Kinetic:       -166.925644
Potential:      +21.916151
External:        +0.000000
XC:             -34.371575
Entropy (-ST):   -2.014190
Local:           -4.431422
--------------------------
Free energy:   -185.826679
Extrapolated:  -184.819584

Fermi level: 0.91375

Showing only first 2 kpts
 Kpt  Band  Eigenvalues  Occupancy
  0   367      0.87357    0.14978
  0   368      0.91853    0.12201
  0   369      0.94695    0.10444
  0   370      0.95546    0.09930

  1   367      0.79875    0.18988
  1   368      0.82149    0.17890
  1   369      0.86185    0.15673
  1   370      0.87542    0.14867



Forces in eV/Ang:
  0 Pd    0.09913    0.51122   -0.42418
  1 Ag    0.10474    0.48681   -0.51636
  2 Pt   -0.23117    0.51315    0.82948
  3 Pd    0.10230    0.03475   -0.08541
  4 Pd    0.10828   -0.36887    0.20036
  5 Pt   -0.13004   -0.29558   -0.08866
  6 Pd   -0.17148   -0.39636   -0.05927
  7 Ag   -0.12896   -0.45352   -0.71348
  8 Pd   -0.25651   -0.30123    0.27654
  9 Ag    0.51508    0.21168    0.43549
 10 Ru    2.21435    1.27526    0.39290
 11 Ru   -1.84702    0.86711   -0.33141
 12 Pd    1.11131   -0.23611    0.02454
 13 Ru   -0.53072   -1.47592   -0.86363
 14 Ag   -0.43071    0.13605    0.30235
 15 Pd    0.18355   -0.57746    0.10360
 16 Ag   -0.17932   -0.38057    0.35837
 17 Pd   -0.36256    0.53293   -0.00011
 18 Ag   -0.05316    0.06532    0.01896
 19 Ag    0.03661    0.04753    0.01281
 20 Pt    0.00775    0.00518   -0.00960
 21 Ag    0.00729    0.00327    0.00112
 22 Ag    0.00130    0.01720   -0.00438
 23 Ag   -0.00298   -0.02201    0.00015
 24 Pd   -0.01160   -0.02289   -0.01197
 25 Pd   -0.01634   -0.07614   -0.00286
 26 Ag    0.01977    0.00364    0.00332
 27 Pt    0.00076    0.06996    0.19372
 28 Pd    0.01344   -0.03385   -0.12165
 29 Pd   -0.04137    0.06178    0.11024
 30 Pd   -0.00484    0.03344   -0.00997
 31 Ru    0.01067    0.00175   -0.04114
 32 Pt   -0.05412   -0.00726    0.15356
 33 Ag   -0.00105   -0.09361   -0.00162
 34 Pt    0.08726   -0.04111   -0.01194
 35 Ru   -0.09065    0.00624   -0.08386
 36 Pd   -0.09421    0.08777    0.01602
 37 Ru   -0.04307   -0.00118   -0.02729
 38 Pd    0.07257    0.11333    0.06280
 39 Pt   -0.16488   -0.07995    0.08970
 40 Pd    0.20031   -0.02222    0.03284
 41 Pd    0.25631    0.13017   -5.20210
 42 Pt    0.00742    0.06183   -0.00474
 43 Pd    0.03564   -0.10226   -0.05298
 44 Ru   -0.02373   -0.08740    0.14741
 45 O     1.41074    1.60013    6.70911
 46 H    -1.76533   -1.76706   -1.26044

System changes: positions 

Initializing position-dependent things.

Density initialized from wave functions
                                             
                                             
                                             
                                             
                                             
                                             
                            H                
                          O                  
                 Pt      Pd    Ru            
                                             
            Pt    APd    PPd    Ru           
        Pd           Pd    Pt                
              Ru                             
        Pt     Pd    PPd    Pd     Ag        
                                             
                Ag     Ag     Ag             
                                             
           Ag    PAg    APt    Pd            
                                             
            Pd     Ru     Ag     Pd          
       Ag    PRu    PRu    Pt                
                                             
        Pd     Ag     Pt                     
                                             
                                             
                                             
                                             
                                             

Positions:
   0 Pd     0.000000    1.633958   10.000000    ( 0.0000,  0.0000,  0.0000)
   1 Ag     2.830098    1.633958   10.000000    ( 0.0000,  0.0000,  0.0000)
   2 Pt     5.660196    1.633958   10.000000    ( 0.0000,  0.0000,  0.0000)
   3 Pd     1.415049    4.084895   10.000000    ( 0.0000,  0.0000,  0.0000)
   4 Pd     4.245147    4.084895   10.000000    ( 0.0000,  0.0000,  0.0000)
   5 Pt     7.075245    4.084895   10.000000    ( 0.0000,  0.0000,  0.0000)
   6 Pd     2.830098    6.535832   10.000000    ( 0.0000,  0.0000,  0.0000)
   7 Ag     5.660196    6.535832   10.000000    ( 0.0000,  0.0000,  0.0000)
   8 Pd     8.490294    6.535832   10.000000    ( 0.0000,  0.0000,  0.0000)
   9 Ag     0.000000    0.000000   12.310765    ( 0.0000,  0.0000,  0.0000)
  10 Ru     2.830098    0.000000   12.310765    ( 0.0000,  0.0000,  0.0000)
  11 Ru     5.660196    0.000000   12.310765    ( 0.0000,  0.0000,  0.0000)
  12 Pd     1.415049    2.450937   12.310765    ( 0.0000,  0.0000,  0.0000)
  13 Ru     4.245147    2.450937   12.310765    ( 0.0000,  0.0000,  0.0000)
  14 Ag     7.075245    2.450937   12.310765    ( 0.0000,  0.0000,  0.0000)
  15 Pd     2.830098    4.901874   12.310765    ( 0.0000,  0.0000,  0.0000)
  16 Ag     5.660196    4.901874   12.310765    ( 0.0000,  0.0000,  0.0000)
  17 Pd     8.490294    4.901874   12.310765    ( 0.0000,  0.0000,  0.0000)
  18 Ag     1.422830    0.835969   14.687148    ( 0.0000,  0.0000,  0.0000)
  19 Ag     4.226568    0.833707   14.669541    ( 0.0000,  0.0000,  0.0000)
  20 Pt     7.000239    0.832401   14.677050    ( 0.0000,  0.0000,  0.0000)
  21 Ag     2.849717    3.275301   14.698475    ( 0.0000,  0.0000,  0.0000)
  22 Ag     5.608223    3.275235   14.715810    ( 0.0000,  0.0000,  0.0000)
  23 Ag     8.406753    3.278708   14.704583    ( 0.0000,  0.0000,  0.0000)
  24 Pd     4.228234    5.665185   14.785231    ( 0.0000,  0.0000,  0.0000)
  25 Pd     7.023132    5.722373   14.696743    ( 0.0000,  0.0000,  0.0000)
  26 Ag     9.809409    5.687656   14.692485    ( 0.0000,  0.0000,  0.0000)
  27 Pt     0.024950    1.655914   17.061065    ( 0.0000,  0.0000,  0.0000)
  28 Pd     2.862356    1.667498   17.082299    ( 0.0000,  0.0000,  0.0000)
  29 Pd     5.585830    1.666716   17.078116    ( 0.0000,  0.0000,  0.0000)
  30 Pd     1.451304    4.082417   17.054982    ( 0.0000,  0.0000,  0.0000)
  31 Ru     4.288701    4.069200   17.297497    ( 0.0000,  0.0000,  0.0000)
  32 Pt     6.977723    4.086048   17.096515    ( 0.0000,  0.0000,  0.0000)
  33 Ag     2.791993    6.505537   17.070610    ( 0.0000,  0.0000,  0.0000)
  34 Pt     5.616367    6.451219   17.090268    ( 0.0000,  0.0000,  0.0000)
  35 Ru     8.289999    6.447407   17.190580    ( 0.0000,  0.0000,  0.0000)
  36 Pd     0.115506    0.033038   19.432105    ( 0.0000,  0.0000,  0.0000)
  37 Ru     2.910458   -0.057790   19.216251    ( 0.0000,  0.0000,  0.0000)
  38 Pd     5.602874   -0.005053   19.430125    ( 0.0000,  0.0000,  0.0000)
  39 Pt     1.453831    2.457353   19.370776    ( 0.0000,  0.0000,  0.0000)
  40 Pd     4.199697    2.426384   19.462015    ( 0.0000,  0.0000,  0.0000)
  41 Pd     7.098011    2.492519   19.479589    ( 0.0000,  0.0000,  0.0000)
  42 Pt     2.811045    4.834040   19.381144    ( 0.0000,  0.0000,  0.0000)
  43 Pd     5.680278    4.893379   19.522749    ( 0.0000,  0.0000,  0.0000)
  44 Ru     8.427624    4.990711   19.200433    ( 0.0000,  0.0000,  0.0000)
  45 O      7.085775    2.489785   21.482206    ( 0.0000,  0.0000,  0.0000)
  46 H      7.722623    3.119561   21.895331    ( 0.0000,  0.0000,  0.0000)

Unit cell:
           periodic     x           y           z      points  spacing
  1. axis:    yes    8.379498    0.000000    0.000000    35     0.2073
  2. axis:    yes    4.189749    7.256858    0.000000    35     0.2073
  3. axis:    no     0.000000    0.000000   29.243062   135     0.2166

  Lengths:   8.379498   8.379498  29.243062
  Angles:   90.000000  90.000000  60.000000

Effective grid spacing dv^(1/3) = 0.2207

                     log10-error:    total        iterations:
           time      wfs    density  energy       fermi  poisson
iter:   1  03:20:33  -1.87   +inf  -186.239289    4             
iter:   2  03:21:46  -2.36  -2.27  -203.065410    4             
iter:   3  03:23:00  -2.68  -1.62  -185.752427    3             
iter:   4  03:24:12  -3.61  -2.56  -185.694882    2             
iter:   5  03:25:24  -3.71  -2.56  -185.607057    3             
iter:   6  03:26:36  -3.97  -2.65  -185.577310    3             
iter:   7  03:27:49  -3.91  -2.71  -185.615004    3             
iter:   8  03:29:01  -4.00  -2.67  -185.500239    3             
iter:   9  03:30:14  -4.39  -3.03  -185.518810    3             
iter:  10  03:31:27  -4.31  -2.88  -185.596371    2             
iter:  11  03:32:39  -4.51  -2.62  -185.480900    2             
iter:  12  03:33:52  -5.19  -3.35  -185.483445    2             
iter:  13  03:35:05  -5.54  -3.33  -185.480353    2             
iter:  14  03:36:17  -5.78  -3.45  -185.479162    2             
iter:  15  03:37:30  -5.50  -3.58  -185.482882    2             
iter:  16  03:38:42  -5.70  -3.49  -185.481231    2             
iter:  17  03:39:55  -6.02  -3.44  -185.479543    2             
iter:  18  03:41:07  -6.20  -3.82  -185.481078    2             
iter:  19  03:42:19  -6.00  -3.71  -185.480454    2             
iter:  20  03:43:32  -5.87  -3.95  -185.478773    2             
iter:  21  03:44:44  -6.02  -3.84  -185.480359    2             
iter:  22  03:45:57  -6.37  -3.82  -185.480071    2             
iter:  23  03:47:11  -6.54  -4.07  -185.479450    2             
iter:  24  03:48:24  -6.66  -4.12  -185.479851    2             
iter:  25  03:49:37  -6.68  -3.95  -185.479944    2             
iter:  26  03:50:51  -7.11  -4.11  -185.479241    2             
iter:  27  03:52:04  -7.70  -4.35  -185.479430    2             

Converged after 27 iterations.

Dipole moment: (24.406971, 22.402775, -0.232861) |e|*Ang

Energy contributions relative to reference atoms: (reference = -9073466.092496)

Kinetic:       -175.089761
Potential:      +28.989735
External:        +0.000000
XC:             -33.969652
Entropy (-ST):   -2.020696
Local:           -4.399404
--------------------------
Free energy:   -186.489778
Extrapolated:  -185.479430

Fermi level: 0.82724

Showing only first 2 kpts
 Kpt  Band  Eigenvalues  Occupancy
  0   367      0.79062    0.14763
  0   368      0.83400    0.12078
  0   369      0.85931    0.10512
  0   370      0.87027    0.09851

  1   367      0.70223    0.19433
  1   368      0.73468    0.17905
  1   369      0.77500    0.15693
  1   370      0.79065    0.14761



Forces in eV/Ang:
  0 Pd    0.10065    0.51006   -0.41927
  1 Ag    0.10508    0.48799   -0.51303
  2 Pt   -0.23240    0.51238    0.83653
  3 Pd    0.10201    0.03442   -0.08037
  4 Pd    0.10785   -0.36951    0.20575
  5 Pt   -0.12903   -0.29392   -0.08034
  6 Pd   -0.17177   -0.39618   -0.05178
  7 Ag   -0.12773   -0.45273   -0.70740
  8 Pd   -0.25582   -0.30290    0.27814
  9 Ag    0.51674    0.21311    0.43334
 10 Ru    2.21177    1.27184    0.38102
 11 Ru   -1.84393    0.87335   -0.34146
 12 Pd    1.11574   -0.24202    0.01105
 13 Ru   -0.53182   -1.47882   -0.86439
 14 Ag   -0.43667    0.13519    0.29820
 15 Pd    0.18566   -0.57939    0.09321
 16 Ag   -0.18399   -0.38337    0.34551
 17 Pd   -0.36602    0.53529   -0.01521
 18 Ag   -0.01793    0.02215    0.00615
 19 Ag   -0.00551    0.01263    0.01732
 20 Pt   -0.00144   -0.00652   -0.00273
 21 Ag    0.00196    0.00487    0.00919
 22 Ag    0.00878    0.00132   -0.00441
 23 Ag   -0.00340   -0.00294    0.02059
 24 Pd    0.00900   -0.00600    0.00291
 25 Pd    0.01189    0.01304    0.00617
 26 Ag   -0.00209   -0.01162    0.02115
 27 Pt   -0.06515    0.03721    0.15245
 28 Pd   -0.00276   -0.01047   -0.02588
 29 Pd    0.01302    0.01460    0.08527
 30 Pd   -0.00327   -0.01660   -0.00856
 31 Ru    0.03067   -0.01894   -0.01756
 32 Pt   -0.01355   -0.06606    0.08146
 33 Ag   -0.00067    0.02117    0.00323
 34 Pt    0.01876    0.00125   -0.02985
 35 Ru   -0.01303    0.03159    0.00059
 36 Pd    0.01961   -0.02609   -0.02781
 37 Ru   -0.03799    0.02249    0.03071
 38 Pd   -0.01518   -0.02905   -0.04231
 39 Pt    0.04158   -0.03165    0.02330
 40 Pd   -0.03657   -0.01699   -0.05101
 41 Pd    0.18107    0.12328   -0.17754
 42 Pt   -0.01619    0.01417   -0.03300
 43 Pd   -0.04753    0.01995   -0.03239
 44 Ru   -0.03494   -0.01782    0.01309
 45 O    -0.21307   -0.16153    0.11473
 46 H     0.11067    0.05605   -0.20877

System changes: positions 

Initializing position-dependent things.

Density initialized from wave functions
                                             
                                             
                                             
                                             
                                             
                                             
                            H                
                          O                  
                 Pt     Pd     Ru            
             Pt   APd    PPd    Ru           
                                             
        Pd    Ru     Pd    Pt                
                                             
        Pt     Pd    PPd    Pd     Ag        
                Ag     Ag     Ag             
                                             
           Ag    PAg    APt    Pd            
                                             
            Pd     Ru     Ag     Pd          
       Ag     Ru     Ru                      
             Pd     Pd     Pt                
        Pd     Ag     Pt                     
                                             
                                             
                                             
                                             
                                             

Positions:
   0 Pd     0.000000    1.633958   10.000000    ( 0.0000,  0.0000,  0.0000)
   1 Ag     2.830098    1.633958   10.000000    ( 0.0000,  0.0000,  0.0000)
   2 Pt     5.660196    1.633958   10.000000    ( 0.0000,  0.0000,  0.0000)
   3 Pd     1.415049    4.084895   10.000000    ( 0.0000,  0.0000,  0.0000)
   4 Pd     4.245147    4.084895   10.000000    ( 0.0000,  0.0000,  0.0000)
   5 Pt     7.075245    4.084895   10.000000    ( 0.0000,  0.0000,  0.0000)
   6 Pd     2.830098    6.535832   10.000000    ( 0.0000,  0.0000,  0.0000)
   7 Ag     5.660196    6.535832   10.000000    ( 0.0000,  0.0000,  0.0000)
   8 Pd     8.490294    6.535832   10.000000    ( 0.0000,  0.0000,  0.0000)
   9 Ag     0.000000    0.000000   12.310765    ( 0.0000,  0.0000,  0.0000)
  10 Ru     2.830098    0.000000   12.310765    ( 0.0000,  0.0000,  0.0000)
  11 Ru     5.660196    0.000000   12.310765    ( 0.0000,  0.0000,  0.0000)
  12 Pd     1.415049    2.450937   12.310765    ( 0.0000,  0.0000,  0.0000)
  13 Ru     4.245147    2.450937   12.310765    ( 0.0000,  0.0000,  0.0000)
  14 Ag     7.075245    2.450937   12.310765    ( 0.0000,  0.0000,  0.0000)
  15 Pd     2.830098    4.901874   12.310765    ( 0.0000,  0.0000,  0.0000)
  16 Ag     5.660196    4.901874   12.310765    ( 0.0000,  0.0000,  0.0000)
  17 Pd     8.490294    4.901874   12.310765    ( 0.0000,  0.0000,  0.0000)
  18 Ag     1.420992    0.838086   14.687776    ( 0.0000,  0.0000,  0.0000)
  19 Ag     4.225525    0.834883   14.671554    ( 0.0000,  0.0000,  0.0000)
  20 Pt     6.999915    0.831449   14.676689    ( 0.0000,  0.0000,  0.0000)
  21 Ag     2.850011    3.275867   14.699636    ( 0.0000,  0.0000,  0.0000)
  22 Ag     5.609473    3.275116   14.715376    ( 0.0000,  0.0000,  0.0000)
  23 Ag     8.406136    3.278430   14.707540    ( 0.0000,  0.0000,  0.0000)
  24 Pd     4.229600    5.664818   14.785931    ( 0.0000,  0.0000,  0.0000)
  25 Pd     7.024802    5.725120   14.697676    ( 0.0000,  0.0000,  0.0000)
  26 Ag     9.808979    5.686292   14.695197    ( 0.0000,  0.0000,  0.0000)
  27 Pt     0.016859    1.660012   17.078364    ( 0.0000,  0.0000,  0.0000)
  28 Pd     2.861689    1.666203   17.080324    ( 0.0000,  0.0000,  0.0000)
  29 Pd     5.587397    1.667649   17.086762    ( 0.0000,  0.0000,  0.0000)
  30 Pd     1.450879    4.080071   17.054328    ( 0.0000,  0.0000,  0.0000)
  31 Ru     4.292183    4.067020   17.295178    ( 0.0000,  0.0000,  0.0000)
  32 Pt     6.976810    4.078041   17.104864    ( 0.0000,  0.0000,  0.0000)
  33 Ag     2.791980    6.508901   17.070860    ( 0.0000,  0.0000,  0.0000)
  34 Pt     5.618090    6.451855   17.086557    ( 0.0000,  0.0000,  0.0000)
  35 Ru     8.288914    6.451375   17.191824    ( 0.0000,  0.0000,  0.0000)
  36 Pd     0.119177    0.028862   19.429252    ( 0.0000,  0.0000,  0.0000)
  37 Ru     2.905607   -0.054887   19.220597    ( 0.0000,  0.0000,  0.0000)
  38 Pd     5.599855   -0.010569   19.425184    ( 0.0000,  0.0000,  0.0000)
  39 Pt     1.461533    2.453833   19.373728    ( 0.0000,  0.0000,  0.0000)
  40 Pd     4.192444    2.424439   19.456309    ( 0.0000,  0.0000,  0.0000)
  41 Pd     7.121032    2.507855   19.480058    ( 0.0000,  0.0000,  0.0000)
  42 Pt     2.808231    4.834825   19.376709    ( 0.0000,  0.0000,  0.0000)
  43 Pd     5.673778    4.897097   19.519528    ( 0.0000,  0.0000,  0.0000)
  44 Ru     8.423844    4.990227   19.200929    ( 0.0000,  0.0000,  0.0000)
  45 O      7.068137    2.478558   21.484916    ( 0.0000,  0.0000,  0.0000)
  46 H      7.727346    3.117685   21.864065    ( 0.0000,  0.0000,  0.0000)

Unit cell:
           periodic     x           y           z      points  spacing
  1. axis:    yes    8.379498    0.000000    0.000000    35     0.2073
  2. axis:    yes    4.189749    7.256858    0.000000    35     0.2073
  3. axis:    no     0.000000    0.000000   29.243062   135     0.2166

  Lengths:   8.379498   8.379498  29.243062
  Angles:   90.000000  90.000000  60.000000

Effective grid spacing dv^(1/3) = 0.2207

                     log10-error:    total        iterations:
           time      wfs    density  energy       fermi  poisson
iter:   1  03:53:49  -3.05   +inf  -185.536104    3             
iter:   2  03:55:02  -3.70  -2.94  -186.189301    2             
iter:   3  03:56:15  -4.11  -2.26  -185.509754    2             
iter:   4  03:57:27  -4.70  -3.24  -185.503042    3             
iter:   5  03:58:40  -4.96  -3.14  -185.503190    2             
iter:   6  03:59:54  -5.56  -3.24  -185.498453    2             
iter:   7  04:01:08  -5.88  -3.50  -185.496784    2             
iter:   8  04:02:21  -5.60  -3.60  -185.501658    2             
iter:   9  04:03:34  -5.84  -3.30  -185.499341    2             
iter:  10  04:04:45  -5.79  -3.55  -185.495375    2             
iter:  11  04:05:57  -6.20  -3.83  -185.496224    2             
iter:  12  04:07:09  -6.39  -3.78  -185.496423    2             
iter:  13  04:08:22  -6.60  -3.92  -185.495528    2             
iter:  14  04:09:35  -7.05  -3.97  -185.495703    2             
iter:  15  04:10:48  -6.65  -4.14  -185.496240    2             
iter:  16  04:12:02  -6.99  -4.16  -185.495612    2             
iter:  17  04:13:14  -7.04  -3.88  -185.495665    2             
iter:  18  04:14:27  -7.06  -4.26  -185.495920    2             
iter:  19  04:15:39  -7.26  -4.46  -185.495765    2             
iter:  20  04:16:52  -7.30  -4.32  -185.495698    2             
iter:  21  04:18:05  -7.86  -4.52  -185.495904    2             

Converged after 21 iterations.

Dipole moment: (23.967654, 22.830080, -0.245632) |e|*Ang

Energy contributions relative to reference atoms: (reference = -9073466.092496)

Kinetic:       -174.323074
Potential:      +28.213485
External:        +0.000000
XC:             -33.982923
Entropy (-ST):   -2.022451
Local:           -4.392166
--------------------------
Free energy:   -186.507129
Extrapolated:  -185.495904

Fermi level: 0.82269

Showing only first 2 kpts
 Kpt  Band  Eigenvalues  Occupancy
  0   367      0.78539    0.14804
  0   368      0.82945    0.12077
  0   369      0.85416    0.10549
  0   370      0.86571    0.09852

  1   367      0.69938    0.19359
  1   368      0.72946    0.17938
  1   369      0.77004    0.15716
  1   370      0.78638    0.14745



Forces in eV/Ang:
  0 Pd    0.10042    0.50995   -0.41916
  1 Ag    0.10485    0.48739   -0.51283
  2 Pt   -0.23219    0.51265    0.83580
  3 Pd    0.10225    0.03415   -0.08172
  4 Pd    0.10765   -0.36903    0.20375
  5 Pt   -0.12907   -0.29437   -0.08239
  6 Pd   -0.17114   -0.39634   -0.05397
  7 Ag   -0.12824   -0.45242   -0.70892
  8 Pd   -0.25513   -0.30157    0.28028
  9 Ag    0.51721    0.21231    0.43452
 10 Ru    2.21042    1.27362    0.38695
 11 Ru   -1.84336    0.87178   -0.33285
 12 Pd    1.11669   -0.24066    0.01406
 13 Ru   -0.53342   -1.47993   -0.86221
 14 Ag   -0.43466    0.13429    0.29998
 15 Pd    0.18419   -0.57867    0.09912
 16 Ag   -0.18206   -0.37991    0.34922
 17 Pd   -0.36433    0.53587   -0.00909
 18 Ag   -0.01837    0.01547    0.01826
 19 Ag    0.01106    0.01447    0.01563
 20 Pt   -0.01556   -0.00329    0.00718
 21 Ag    0.01078    0.00400    0.00057
 22 Ag    0.00553   -0.00344    0.00908
 23 Ag   -0.01196   -0.00909    0.02424
 24 Pd    0.00238   -0.00447   -0.00188
 25 Pd   -0.00255    0.00126    0.00498
 26 Ag    0.00486    0.00702    0.00879
 27 Pt    0.01570    0.00089    0.05107
 28 Pd   -0.01524   -0.00536   -0.02573
 29 Pd   -0.03148   -0.00561    0.02178
 30 Pd    0.00604    0.01054    0.01833
 31 Ru   -0.02539    0.00384   -0.03115
 32 Pt   -0.00136    0.02961    0.02682
 33 Ag    0.00297   -0.02374   -0.01716
 34 Pt    0.01709   -0.00357   -0.01163
 35 Ru   -0.01218   -0.00676    0.02517
 36 Pd   -0.02322    0.01279    0.00749
 37 Ru   -0.01959    0.01743   -0.02457
 38 Pd    0.00733    0.03606    0.00533
 39 Pt    0.08877   -0.05689    0.01376
 40 Pd    0.04465   -0.01401   -0.00274
 41 Pd   -0.01278   -0.00690   -0.02768
 42 Pt   -0.00535    0.00225   -0.04525
 43 Pd   -0.03189   -0.02114   -0.01520
 44 Ru   -0.02198    0.03112   -0.02368
 45 O    -0.03702    0.07956    0.10427
 46 H    -0.11918   -0.17428   -0.20333

System changes: positions 

Initializing position-dependent things.

Density initialized from wave functions
                                             
                                             
                                             
                                             
                                             
                                             
                            H                
                          O                  
                 Pt     Pd     Ru            
             Pt   APd    PtPd   Ru           
                                             
        Pd    Ru     Pd    Pt                
                                             
        Pt     Pd    PPd    Pd     Ag        
                Ag     Ag     Ag             
                                             
           Ag    PAg    APt    Pd            
                                             
            Pd     Ru     Ag     Pd          
       Ag     Ru     Ru                      
             Pd     Pd     Pt                
        Pd     Ag     Pt                     
                                             
                                             
                                             
                                             
                                             

Positions:
   0 Pd     0.000000    1.633958   10.000000    ( 0.0000,  0.0000,  0.0000)
   1 Ag     2.830098    1.633958   10.000000    ( 0.0000,  0.0000,  0.0000)
   2 Pt     5.660196    1.633958   10.000000    ( 0.0000,  0.0000,  0.0000)
   3 Pd     1.415049    4.084895   10.000000    ( 0.0000,  0.0000,  0.0000)
   4 Pd     4.245147    4.084895   10.000000    ( 0.0000,  0.0000,  0.0000)
   5 Pt     7.075245    4.084895   10.000000    ( 0.0000,  0.0000,  0.0000)
   6 Pd     2.830098    6.535832   10.000000    ( 0.0000,  0.0000,  0.0000)
   7 Ag     5.660196    6.535832   10.000000    ( 0.0000,  0.0000,  0.0000)
   8 Pd     8.490294    6.535832   10.000000    ( 0.0000,  0.0000,  0.0000)
   9 Ag     0.000000    0.000000   12.310765    ( 0.0000,  0.0000,  0.0000)
  10 Ru     2.830098    0.000000   12.310765    ( 0.0000,  0.0000,  0.0000)
  11 Ru     5.660196    0.000000   12.310765    ( 0.0000,  0.0000,  0.0000)
  12 Pd     1.415049    2.450937   12.310765    ( 0.0000,  0.0000,  0.0000)
  13 Ru     4.245147    2.450937   12.310765    ( 0.0000,  0.0000,  0.0000)
  14 Ag     7.075245    2.450937   12.310765    ( 0.0000,  0.0000,  0.0000)
  15 Pd     2.830098    4.901874   12.310765    ( 0.0000,  0.0000,  0.0000)
  16 Ag     5.660196    4.901874   12.310765    ( 0.0000,  0.0000,  0.0000)
  17 Pd     8.490294    4.901874   12.310765    ( 0.0000,  0.0000,  0.0000)
  18 Ag     1.417612    0.841314   14.690512    ( 0.0000,  0.0000,  0.0000)
  19 Ag     4.226298    0.837485   14.674943    ( 0.0000,  0.0000,  0.0000)
  20 Pt     6.997537    0.830403   14.677454    ( 0.0000,  0.0000,  0.0000)
  21 Ag     2.851641    3.276720   14.700420    ( 0.0000,  0.0000,  0.0000)
  22 Ag     5.610929    3.274599   14.716404    ( 0.0000,  0.0000,  0.0000)
  23 Ag     8.404177    3.277131   14.712500    ( 0.0000,  0.0000,  0.0000)
  24 Pd     4.230782    5.663979   14.786082    ( 0.0000,  0.0000,  0.0000)
  25 Pd     7.025448    5.727070   14.698816    ( 0.0000,  0.0000,  0.0000)
  26 Ag     9.809358    5.686410   14.697998    ( 0.0000,  0.0000,  0.0000)
  27 Pt     0.014088    1.662582   17.095215    ( 0.0000,  0.0000,  0.0000)
  28 Pd     2.859217    1.664857   17.075747    ( 0.0000,  0.0000,  0.0000)
  29 Pd     5.584166    1.667459   17.094583    ( 0.0000,  0.0000,  0.0000)
  30 Pd     1.451402    4.080027   17.056344    ( 0.0000,  0.0000,  0.0000)
  31 Ru     4.290839    4.066215   17.289429    ( 0.0000,  0.0000,  0.0000)
  32 Pt     6.976146    4.077070   17.113099    ( 0.0000,  0.0000,  0.0000)
  33 Ag     2.792363    6.507812   17.068539    ( 0.0000,  0.0000,  0.0000)
  34 Pt     5.621170    6.451796   17.082727    ( 0.0000,  0.0000,  0.0000)
  35 Ru     8.286907    6.452771   17.195983    ( 0.0000,  0.0000,  0.0000)
  36 Pd     0.118032    0.027912   19.428911    ( 0.0000,  0.0000,  0.0000)
  37 Ru     2.900125   -0.050609   19.220025    ( 0.0000,  0.0000,  0.0000)
  38 Pd     5.599283   -0.008434   19.423627    ( 0.0000,  0.0000,  0.0000)
  39 Pt     1.479213    2.443628   19.376468    ( 0.0000,  0.0000,  0.0000)
  40 Pd     4.194429    2.421185   19.453140    ( 0.0000,  0.0000,  0.0000)
  41 Pd     7.131520    2.514854   19.483187    ( 0.0000,  0.0000,  0.0000)
  42 Pt     2.806075    4.835676   19.368127    ( 0.0000,  0.0000,  0.0000)
  43 Pd     5.665022    4.896552   19.515575    ( 0.0000,  0.0000,  0.0000)
  44 Ru     8.418934    4.995050   19.197057    ( 0.0000,  0.0000,  0.0000)
  45 O      7.042146    2.471214   21.485802    ( 0.0000,  0.0000,  0.0000)
  46 H      7.726937    3.105954   21.826540    ( 0.0000,  0.0000,  0.0000)

Unit cell:
           periodic     x           y           z      points  spacing
  1. axis:    yes    8.379498    0.000000    0.000000    35     0.2073
  2. axis:    yes    4.189749    7.256858    0.000000    35     0.2073
  3. axis:    no     0.000000    0.000000   29.243062   135     0.2166

  Lengths:   8.379498   8.379498  29.243062
  Angles:   90.000000  90.000000  60.000000

Effective grid spacing dv^(1/3) = 0.2207

                     log10-error:    total        iterations:
           time      wfs    density  energy       fermi  poisson
iter:   1  04:19:49  -3.10   +inf  -185.627136    3             
iter:   2  04:21:01  -3.03  -2.65  -190.321438    3             
iter:   3  04:22:13  -3.26  -1.86  -185.570176    3             
iter:   4  04:23:25  -4.68  -2.85  -185.514327    3             
iter:   5  04:24:38  -5.11  -3.14  -185.503235    2             
iter:   6  04:25:51  -5.57  -3.40  -185.505189    2             
iter:   7  04:27:03  -5.72  -3.44  -185.506108    2             
iter:   8  04:28:16  -5.54  -3.55  -185.503854    2             
iter:   9  04:29:29  -5.75  -3.59  -185.506424    2             
iter:  10  04:30:42  -5.79  -3.47  -185.505633    2             
iter:  11  04:31:55  -5.97  -3.41  -185.503179    2             
iter:  12  04:33:07  -6.45  -3.87  -185.503411    2             
iter:  13  04:34:19  -6.67  -3.95  -185.503434    2             
iter:  14  04:35:30  -7.01  -3.96  -185.503130    2             
iter:  15  04:36:42  -6.81  -3.97  -185.503696    2             
iter:  16  04:37:55  -6.56  -4.05  -185.503334    2             
iter:  17  04:39:08  -7.22  -3.85  -185.503135    2             
iter:  18  04:40:23  -7.06  -4.21  -185.503233    2             
iter:  19  04:41:39  -7.34  -4.32  -185.503267    2             
iter:  20  04:42:54  -7.41  -4.37  -185.503035    2             

Converged after 20 iterations.

Dipole moment: (22.933139, 22.661549, -0.259535) |e|*Ang

Energy contributions relative to reference atoms: (reference = -9073466.092496)

Kinetic:       -172.998077
Potential:      +27.048945
External:        +0.000000
XC:             -34.149368
Entropy (-ST):   -2.024521
Local:           -4.392275
--------------------------
Free energy:   -186.515295
Extrapolated:  -185.503035

Fermi level: 0.81645

Showing only first 2 kpts
 Kpt  Band  Eigenvalues  Occupancy
  0   367      0.77898    0.14815
  0   368      0.82354    0.12058
  0   369      0.84768    0.10564
  0   370      0.85862    0.09903

  1   367      0.69430    0.19308
  1   368      0.72333    0.17933
  1   369      0.76453    0.15674
  1   370      0.77968    0.14773



Forces in eV/Ang:
  0 Pd    0.10037    0.51196   -0.42323
  1 Ag    0.10567    0.48815   -0.51247
  2 Pt   -0.23194    0.51262    0.83289
  3 Pd    0.10273    0.03424   -0.08410
  4 Pd    0.10731   -0.36985    0.20057
  5 Pt   -0.12802   -0.29541   -0.08680
  6 Pd   -0.17167   -0.39615   -0.05861
  7 Ag   -0.12833   -0.45273   -0.71067
  8 Pd   -0.25287   -0.30043    0.28281
  9 Ag    0.51675    0.21388    0.43782
 10 Ru    2.21064    1.27764    0.39119
 11 Ru   -1.84673    0.86831   -0.33152
 12 Pd    1.11492   -0.23678    0.02087
 13 Ru   -0.53331   -1.47876   -0.86429
 14 Ag   -0.43274    0.13615    0.30311
 15 Pd    0.18088   -0.57880    0.09740
 16 Ag   -0.18065   -0.38190    0.34957
 17 Pd   -0.36083    0.53399    0.00007
 18 Ag   -0.01870    0.00584    0.01336
 19 Ag   -0.00246   -0.00420   -0.00811
 20 Pt    0.01112    0.00924    0.02151
 21 Ag   -0.01062    0.00590   -0.01681
 22 Ag    0.01279    0.00319    0.01215
 23 Ag   -0.00427   -0.00274    0.02789
 24 Pd    0.00234    0.00639   -0.01367
 25 Pd    0.00155   -0.00760   -0.00002
 26 Ag   -0.01241   -0.00573   -0.01191
 27 Pt    0.02644   -0.02268   -0.04464
 28 Pd   -0.00529    0.00439   -0.04715
 29 Pd   -0.01677   -0.01350   -0.03685
 30 Pd   -0.01492   -0.00040    0.00723
 31 Ru   -0.02064    0.00969   -0.02914
 32 Pt   -0.01019    0.02361   -0.04101
 33 Ag    0.00870    0.00685   -0.02090
 34 Pt   -0.02693    0.00189   -0.00519
 35 Ru    0.01770    0.00983   -0.04532
 36 Pd   -0.04377    0.01134    0.01740
 37 Ru   -0.00517    0.00537    0.00324
 38 Pd    0.00770    0.00703    0.01500
 39 Pt   -0.00843   -0.02288    0.04882
 40 Pd    0.08047    0.02310    0.00894
 41 Pd   -0.03954   -0.05175   -0.01436
 42 Pt   -0.01490   -0.00358    0.00261
 43 Pd   -0.00376   -0.02240   -0.00070
 44 Ru    0.00303   -0.00509    0.07146
 45 O    -0.06283    0.13391    0.06077
 46 H    -0.16017   -0.20745   -0.05970

System changes: positions 

Initializing position-dependent things.

Density initialized from wave functions
                                            
                                            
                                            
                                            
                                            
                            H               
                          O                 
                 Pt     Pd                  
                               Ru           
            Pt    APd    PPd   Ru           
       Pd     Ru    RPd                     
             Pd            Pt               
        Pt     Pd    PPd                    
                            Pd    Ag        
                Ag     Ag     Ag            
           Ag     Ag     Pt                 
                 Pd     Ag     Pd           
            Pd     Ru     Ag                
                  Pd     Ag     Pd          
       Ag    PRu    PRu    Pt               
                                            
        Pd     Ag     Pt                    
                                            
                                            
                                            
                                            

Positions:
   0 Pd     0.000000    1.633958   10.000000    ( 0.0000,  0.0000,  0.0000)
   1 Ag     2.830098    1.633958   10.000000    ( 0.0000,  0.0000,  0.0000)
   2 Pt     5.660196    1.633958   10.000000    ( 0.0000,  0.0000,  0.0000)
   3 Pd     1.415049    4.084895   10.000000    ( 0.0000,  0.0000,  0.0000)
   4 Pd     4.245147    4.084895   10.000000    ( 0.0000,  0.0000,  0.0000)
   5 Pt     7.075245    4.084895   10.000000    ( 0.0000,  0.0000,  0.0000)
   6 Pd     2.830098    6.535832   10.000000    ( 0.0000,  0.0000,  0.0000)
   7 Ag     5.660196    6.535832   10.000000    ( 0.0000,  0.0000,  0.0000)
   8 Pd     8.490294    6.535832   10.000000    ( 0.0000,  0.0000,  0.0000)
   9 Ag     0.000000    0.000000   12.310765    ( 0.0000,  0.0000,  0.0000)
  10 Ru     2.830098    0.000000   12.310765    ( 0.0000,  0.0000,  0.0000)
  11 Ru     5.660196    0.000000   12.310765    ( 0.0000,  0.0000,  0.0000)
  12 Pd     1.415049    2.450937   12.310765    ( 0.0000,  0.0000,  0.0000)
  13 Ru     4.245147    2.450937   12.310765    ( 0.0000,  0.0000,  0.0000)
  14 Ag     7.075245    2.450937   12.310765    ( 0.0000,  0.0000,  0.0000)
  15 Pd     2.830098    4.901874   12.310765    ( 0.0000,  0.0000,  0.0000)
  16 Ag     5.660196    4.901874   12.310765    ( 0.0000,  0.0000,  0.0000)
  17 Pd     8.490294    4.901874   12.310765    ( 0.0000,  0.0000,  0.0000)
  18 Ag     1.412917    0.844467   14.693857    ( 0.0000,  0.0000,  0.0000)
  19 Ag     4.226121    0.838749   14.676421    ( 0.0000,  0.0000,  0.0000)
  20 Pt     6.997525    0.830753   14.680554    ( 0.0000,  0.0000,  0.0000)
  21 Ag     2.851247    3.278093   14.699022    ( 0.0000,  0.0000,  0.0000)
  22 Ag     5.613654    3.274769   14.718439    ( 0.0000,  0.0000,  0.0000)
  23 Ag     8.402441    3.276044   14.719482    ( 0.0000,  0.0000,  0.0000)
  24 Pd     4.232094    5.664137   14.784518    ( 0.0000,  0.0000,  0.0000)
  25 Pd     7.026415    5.727795   14.699586    ( 0.0000,  0.0000,  0.0000)
  26 Ag     9.807875    5.685333   14.698736    ( 0.0000,  0.0000,  0.0000)
  27 Pt     0.013681    1.662333   17.103593    ( 0.0000,  0.0000,  0.0000)
  28 Pd     2.857047    1.664447   17.066406    ( 0.0000,  0.0000,  0.0000)
  29 Pd     5.580738    1.666080   17.096740    ( 0.0000,  0.0000,  0.0000)
  30 Pd     1.449629    4.079316   17.058060    ( 0.0000,  0.0000,  0.0000)
  31 Ru     4.288477    4.066360   17.281769    ( 0.0000,  0.0000,  0.0000)
  32 Pt     6.974102    4.077168   17.114756    ( 0.0000,  0.0000,  0.0000)
  33 Ag     2.793663    6.508939   17.064545    ( 0.0000,  0.0000,  0.0000)
  34 Pt     5.619808    6.452111   17.078889    ( 0.0000,  0.0000,  0.0000)
[...]
  23 Ag     8.401898    3.276814   14.726779    ( 0.0000,  0.0000,  0.0000)
  24 Pd     4.232002    5.665175   14.777369    ( 0.0000,  0.0000,  0.0000)
  25 Pd     7.024717    5.728450   14.698662    ( 0.0000,  0.0000,  0.0000)
  26 Ag     9.805872    5.684583   14.695964    ( 0.0000,  0.0000,  0.0000)
  27 Pt     0.018372    1.660742   17.104143    ( 0.0000,  0.0000,  0.0000)
  28 Pd     2.855548    1.668478   17.059190    ( 0.0000,  0.0000,  0.0000)
  29 Pd     5.578082    1.663873   17.084036    ( 0.0000,  0.0000,  0.0000)
  30 Pd     1.441544    4.078776   17.068002    ( 0.0000,  0.0000,  0.0000)
  31 Ru     4.279146    4.068262   17.269514    ( 0.0000,  0.0000,  0.0000)
  32 Pt     6.972232    4.082821   17.112949    ( 0.0000,  0.0000,  0.0000)
  33 Ag     2.791642    6.507834   17.060322    ( 0.0000,  0.0000,  0.0000)
  34 Pt     5.615140    6.452834   17.080916    ( 0.0000,  0.0000,  0.0000)
  35 Ru     8.288029    6.455923   17.191709    ( 0.0000,  0.0000,  0.0000)
  36 Pd     0.097855    0.025327   19.435461    ( 0.0000,  0.0000,  0.0000)
  37 Ru     2.891822   -0.041622   19.216199    ( 0.0000,  0.0000,  0.0000)
  38 Pd     5.600245   -0.007319   19.426364    ( 0.0000,  0.0000,  0.0000)
  39 Pt     1.501090    2.415245   19.397357    ( 0.0000,  0.0000,  0.0000)
  40 Pd     4.224258    2.431008   19.445020    ( 0.0000,  0.0000,  0.0000)
  41 Pd     7.123088    2.495290   19.461362    ( 0.0000,  0.0000,  0.0000)
  42 Pt     2.796383    4.829855   19.361040    ( 0.0000,  0.0000,  0.0000)
  43 Pd     5.655572    4.890241   19.504690    ( 0.0000,  0.0000,  0.0000)
  44 Ru     8.406731    5.003839   19.213714    ( 0.0000,  0.0000,  0.0000)
  45 O      6.928230    2.491192   21.457949    ( 0.0000,  0.0000,  0.0000)
  46 H      7.688587    3.023490   21.785637    ( 0.0000,  0.0000,  0.0000)

Unit cell:
           periodic     x           y           z      points  spacing
  1. axis:    yes    8.379498    0.000000    0.000000    35     0.2073
  2. axis:    yes    4.189749    7.256858    0.000000    35     0.2073
  3. axis:    no     0.000000    0.000000   29.243062   135     0.2166

  Lengths:   8.379498   8.379498  29.243062
  Angles:   90.000000  90.000000  60.000000

Effective grid spacing dv^(1/3) = 0.2207

                     log10-error:    total        iterations:
           time      wfs    density  energy       fermi  poisson
iter:   1  05:32:58  -3.30   +inf  -185.629753    3             
iter:   2  05:34:10  -3.08  -2.70  -190.432710    3             
iter:   3  05:35:23  -3.30  -1.85  -185.549324    3             
iter:   4  05:36:34  -4.46  -3.19  -185.527355    3             
iter:   5  05:37:44  -5.15  -3.41  -185.537123    3             
iter:   6  05:38:55  -5.59  -3.19  -185.527474    2             
iter:   7  05:40:06  -5.73  -3.61  -185.528059    2             
iter:   8  05:41:17  -6.33  -3.30  -185.525509    2             
iter:   9  05:42:28  -5.86  -3.59  -185.526104    2             
iter:  10  05:43:40  -5.88  -3.78  -185.525392    2             
iter:  11  05:44:52  -6.16  -3.56  -185.524458    2             
iter:  12  05:46:04  -6.53  -3.83  -185.525277    2             
iter:  13  05:47:15  -7.12  -4.08  -185.524920    2             
iter:  14  05:48:28  -7.11  -4.26  -185.524682    2             
iter:  15  05:49:41  -7.20  -4.34  -185.525277    2             
iter:  16  05:50:52  -7.53  -4.06  -185.525084    2             

Converged after 16 iterations.

Dipole moment: (22.018927, 22.438393, -0.258950) |e|*Ang

Energy contributions relative to reference atoms: (reference = -9073466.092496)

Kinetic:       -174.347578
Potential:      +28.292563
External:        +0.000000
XC:             -34.080406
Entropy (-ST):   -2.027718
Local:           -4.375803
--------------------------
Free energy:   -186.538943
Extrapolated:  -185.525084

Fermi level: 0.81700

Showing only first 2 kpts
 Kpt  Band  Eigenvalues  Occupancy
  0   367      0.78180    0.14678
  0   368      0.82410    0.12057
  0   369      0.84859    0.10542
  0   370      0.86137    0.09772

  1   367      0.69876    0.19135
  1   368      0.72237    0.18009
  1   369      0.76205    0.15851
  1   370      0.78480    0.14495



Forces in eV/Ang:
  0 Pd    0.09932    0.51030   -0.41854
  1 Ag    0.10570    0.48718   -0.51293
  2 Pt   -0.23430    0.51223    0.84017
  3 Pd    0.10184    0.03411   -0.08033
  4 Pd    0.10822   -0.37026    0.20520
  5 Pt   -0.12918   -0.29468   -0.08045
  6 Pd   -0.17169   -0.39611   -0.05297
  7 Ag   -0.12750   -0.45216   -0.70862
  8 Pd   -0.25358   -0.29857    0.28789
  9 Ag    0.51186    0.22614    0.44261
 10 Ru    2.19906    1.27796    0.39632
 11 Ru   -1.83853    0.87368   -0.32836
 12 Pd    1.09661   -0.23667    0.03812
 13 Ru   -0.52329   -1.47810   -0.86848
 14 Ag   -0.42309    0.13806    0.33718
 15 Pd    0.17802   -0.56978    0.08606
 16 Ag   -0.17209   -0.38725    0.34570
 17 Pd   -0.36918    0.51946    0.01626
 18 Ag    0.03140   -0.01747   -0.02042
 19 Ag   -0.01283   -0.00597   -0.01236
 20 Pt   -0.00231   -0.00126   -0.03183
 21 Ag   -0.00764   -0.00970    0.01849
 22 Ag   -0.02350   -0.00039   -0.02385
 23 Ag    0.00614    0.00424   -0.03549
 24 Pd   -0.01229    0.00919    0.01445
 25 Pd   -0.00851    0.00603    0.00883
 26 Ag    0.00518    0.00854    0.00747
 27 Pt   -0.01228    0.00787   -0.02462
 28 Pd    0.01972   -0.00767    0.05766
 29 Pd    0.01152   -0.00513   -0.03334
 30 Pd   -0.01070    0.00243    0.01716
 31 Ru    0.00278    0.00603    0.02038
 32 Pt    0.02329    0.00858    0.00655
 33 Ag   -0.02638   -0.01390    0.03194
 34 Pt    0.03377    0.00193    0.02371
 35 Ru   -0.04672   -0.02411    0.09709
 36 Pd    0.03253   -0.03135    0.00578
 37 Ru    0.02822   -0.02136   -0.02376
 38 Pd   -0.03134   -0.04833   -0.00222
 39 Pt   -0.04270    0.01636   -0.02263
 40 Pd   -0.10152   -0.01540   -0.00380
 41 Pd    0.02384    0.01014   -0.00887
 42 Pt   -0.01637   -0.02081    0.04289
 43 Pd    0.04365    0.04108    0.00803
 44 Ru   -0.01233    0.03271   -0.07824
 45 O    -0.15784   -0.06101   -0.12506
 46 H     0.13165    0.02095    0.19756

System changes: positions 

Initializing position-dependent things.

Density initialized from wave functions
                                            
                                            
                                            
                                            
                                            
                                            
                          O H               
                 Pt     Pd                  
                               Ru           
            Pt    APd    PPd   Ru           
       Pd     Ru    RPd                     
             Pd            Pt               
        Pt     Pd    PPd                    
                            Pd    Ag        
                Ag     Ag     Ag            
           Ag     Ag     Pt                 
                 Pd     Ag     Pd           
            Pd     Ru     Ag                
                  Pd     Ag     Pd          
       Ag    PRu    PRu    Pt               
                                            
        Pd     Ag     Pt                    
                                            
                                            
                                            
                                            

Positions:
   0 Pd     0.000000    1.633958   10.000000    ( 0.0000,  0.0000,  0.0000)
   1 Ag     2.830098    1.633958   10.000000    ( 0.0000,  0.0000,  0.0000)
   2 Pt     5.660196    1.633958   10.000000    ( 0.0000,  0.0000,  0.0000)
   3 Pd     1.415049    4.084895   10.000000    ( 0.0000,  0.0000,  0.0000)
   4 Pd     4.245147    4.084895   10.000000    ( 0.0000,  0.0000,  0.0000)
   5 Pt     7.075245    4.084895   10.000000    ( 0.0000,  0.0000,  0.0000)
   6 Pd     2.830098    6.535832   10.000000    ( 0.0000,  0.0000,  0.0000)
   7 Ag     5.660196    6.535832   10.000000    ( 0.0000,  0.0000,  0.0000)
   8 Pd     8.490294    6.535832   10.000000    ( 0.0000,  0.0000,  0.0000)
   9 Ag     0.000000    0.000000   12.310765    ( 0.0000,  0.0000,  0.0000)
  10 Ru     2.830098    0.000000   12.310765    ( 0.0000,  0.0000,  0.0000)
  11 Ru     5.660196    0.000000   12.310765    ( 0.0000,  0.0000,  0.0000)
  12 Pd     1.415049    2.450937   12.310765    ( 0.0000,  0.0000,  0.0000)
  13 Ru     4.245147    2.450937   12.310765    ( 0.0000,  0.0000,  0.0000)
  14 Ag     7.075245    2.450937   12.310765    ( 0.0000,  0.0000,  0.0000)
  15 Pd     2.830098    4.901874   12.310765    ( 0.0000,  0.0000,  0.0000)
  16 Ag     5.660196    4.901874   12.310765    ( 0.0000,  0.0000,  0.0000)
  17 Pd     8.490294    4.901874   12.310765    ( 0.0000,  0.0000,  0.0000)
  18 Ag     1.415229    0.841665   14.690421    ( 0.0000,  0.0000,  0.0000)
  19 Ag     4.222653    0.837315   14.668236    ( 0.0000,  0.0000,  0.0000)
  20 Pt     6.996800    0.832096   14.679907    ( 0.0000,  0.0000,  0.0000)
  21 Ag     2.846872    3.279715   14.694572    ( 0.0000,  0.0000,  0.0000)
  22 Ag     5.609689    3.276296   14.717290    ( 0.0000,  0.0000,  0.0000)
  23 Ag     8.402928    3.277539   14.721151    ( 0.0000,  0.0000,  0.0000)
  24 Pd     4.229787    5.666787   14.778802    ( 0.0000,  0.0000,  0.0000)
  25 Pd     7.022936    5.727622   14.699636    ( 0.0000,  0.0000,  0.0000)
  26 Ag     9.806339    5.686049   14.695821    ( 0.0000,  0.0000,  0.0000)
  27 Pt     0.020014    1.659021   17.093682    ( 0.0000,  0.0000,  0.0000)
  28 Pd     2.858746    1.668632   17.067093    ( 0.0000,  0.0000,  0.0000)
  29 Pd     5.579100    1.662822   17.075264    ( 0.0000,  0.0000,  0.0000)
  30 Pd     1.440225    4.079545   17.070225    ( 0.0000,  0.0000,  0.0000)
  31 Ru     4.278570    4.070078   17.273005    ( 0.0000,  0.0000,  0.0000)
  32 Pt     6.974078    4.085364   17.108751    ( 0.0000,  0.0000,  0.0000)
  33 Ag     2.788424    6.505304   17.064544    ( 0.0000,  0.0000,  0.0000)
  34 Pt     5.615851    6.453472   17.084528    ( 0.0000,  0.0000,  0.0000)
  35 Ru     8.284801    6.453312   17.196551    ( 0.0000,  0.0000,  0.0000)
  36 Pd     0.100684    0.022128   19.436217    ( 0.0000,  0.0000,  0.0000)
  37 Ru     2.894834   -0.042810   19.215697    ( 0.0000,  0.0000,  0.0000)
  38 Pd     5.597875   -0.011905   19.427445    ( 0.0000,  0.0000,  0.0000)
  39 Pt     1.490377    2.418370   19.394379    ( 0.0000,  0.0000,  0.0000)
  40 Pd     4.213897    2.430464   19.445058    ( 0.0000,  0.0000,  0.0000)
  41 Pd     7.117973    2.491199   19.453500    ( 0.0000,  0.0000,  0.0000)
  42 Pt     2.794707    4.826385   19.368717    ( 0.0000,  0.0000,  0.0000)
  43 Pd     5.664603    4.894081   19.506910    ( 0.0000,  0.0000,  0.0000)
  44 Ru     8.406537    5.003473   19.209674    ( 0.0000,  0.0000,  0.0000)
  45 O      6.926023    2.501471   21.449913    ( 0.0000,  0.0000,  0.0000)
  46 H      7.688512    3.011040   21.816925    ( 0.0000,  0.0000,  0.0000)

Unit cell:
           periodic     x           y           z      points  spacing
  1. axis:    yes    8.379498    0.000000    0.000000    35     0.2073
  2. axis:    yes    4.189749    7.256858    0.000000    35     0.2073
  3. axis:    no     0.000000    0.000000   29.243062   135     0.2166

  Lengths:   8.379498   8.379498  29.243062
  Angles:   90.000000  90.000000  60.000000

Effective grid spacing dv^(1/3) = 0.2207

                     log10-error:    total        iterations:
           time      wfs    density  energy       fermi  poisson
iter:   1  05:52:35  -3.22   +inf  -185.863826    2             
iter:   2  05:53:47  -2.48  -2.42  -200.367820    35            
iter:   3  05:54:57  -2.86  -1.70  -185.847189    35            
iter:   4  05:56:07  -3.85  -2.50  -185.576266    3             
iter:   5  05:57:18  -4.48  -2.93  -185.534692    2             
iter:   6  05:58:29  -5.47  -3.43  -185.535846    2             
iter:   7  05:59:41  -5.83  -3.53  -185.536635    2             
iter:   8  06:00:52  -5.14  -3.51  -185.533074    2             
iter:   9  06:02:02  -5.82  -3.79  -185.534543    2             
iter:  10  06:03:13  -6.29  -3.74  -185.533421    2             
iter:  11  06:04:24  -6.35  -3.94  -185.533555    2             
iter:  12  06:05:35  -6.39  -3.80  -185.533540    2             
iter:  13  06:06:46  -6.66  -4.04  -185.534204    2             
iter:  14  06:07:56  -7.17  -3.88  -185.533521    2             
iter:  15  06:09:06  -7.29  -4.26  -185.533436    1             
iter:  16  06:10:17  -7.54  -4.34  -185.533490    2             

Converged after 16 iterations.

Dipole moment: (22.513416, 22.699481, -0.242434) |e|*Ang

Energy contributions relative to reference atoms: (reference = -9073466.092496)

Kinetic:       -173.726234
Potential:      +27.758176
External:        +0.000000
XC:             -34.154251
Entropy (-ST):   -2.024210
Local:           -4.399076
--------------------------
Free energy:   -186.545595
Extrapolated:  -185.533490

Fermi level: 0.82409

Showing only first 2 kpts
 Kpt  Band  Eigenvalues  Occupancy
  0   367      0.78873    0.14687
  0   368      0.83155    0.12034
  0   369      0.85657    0.10488
  0   370      0.86759    0.09824

  1   367      0.70480    0.19182
  1   368      0.73011    0.17977
  1   369      0.76915    0.15850
  1   370      0.79102    0.14548



Forces in eV/Ang:
  0 Pd    0.10074    0.50819   -0.41888
  1 Ag    0.10468    0.48688   -0.51628
  2 Pt   -0.23393    0.51248    0.83811
  3 Pd    0.10241    0.03425   -0.08215
  4 Pd    0.10793   -0.36869    0.20448
  5 Pt   -0.12946   -0.29292   -0.08202
  6 Pd   -0.16987   -0.39615   -0.05267
  7 Ag   -0.12852   -0.45227   -0.70910
  8 Pd   -0.25535   -0.30005    0.28171
  9 Ag    0.51569    0.22144    0.43256
 10 Ru    2.19495    1.26922    0.38418
 11 Ru   -1.83523    0.87013   -0.33692
 12 Pd    1.09814   -0.23783    0.02683
 13 Ru   -0.52675   -1.47224   -0.87680
 14 Ag   -0.42425    0.14005    0.32219
 15 Pd    0.18109   -0.57003    0.08599
 16 Ag   -0.17430   -0.38190    0.34456
 17 Pd   -0.37028    0.52439    0.00895
 18 Ag    0.00047   -0.00056   -0.00162
 19 Ag    0.00065   -0.00325    0.01087
 20 Pt    0.00054   -0.00413   -0.00986
 21 Ag   -0.00315    0.00102    0.02780
 22 Ag   -0.00744    0.00726   -0.00722
 23 Ag    0.00031    0.00190   -0.01648
 24 Pd   -0.00379    0.00178    0.02178
 25 Pd   -0.00119   -0.00629    0.00004
 26 Ag   -0.00593   -0.00060    0.01641
 27 Pt   -0.03354   -0.00743    0.00361
 28 Pd   -0.00005    0.01283    0.00842
 29 Pd    0.01994    0.01757    0.01152
 30 Pd    0.01489   -0.02246   -0.02724
 31 Ru    0.02539   -0.01104    0.02802
 32 Pt   -0.03898   -0.06311   -0.01900
 33 Ag    0.00299    0.01062    0.01698
 34 Pt   -0.03647    0.00348   -0.02298
 35 Ru    0.01855    0.02625   -0.05029
 36 Pd    0.00292   -0.01580   -0.00940
 37 Ru   -0.03542    0.04654    0.05155
 38 Pd    0.01764    0.02004    0.00655
 39 Pt   -0.02251   -0.01099   -0.01368
 40 Pd   -0.04614   -0.01407   -0.02117
 41 Pd    0.03932    0.02731   -0.01012
 42 Pt    0.02608   -0.00313    0.01008
 43 Pd   -0.00644   -0.01704    0.01147
 44 Ru   -0.00574   -0.04612    0.02690
 45 O    -0.03961    0.05960   -0.04567
 46 H     0.03381   -0.04265    0.02159

Timing:                                      incl.     excl.
-------------------------------------------------------------------
Density initialized from wave functions:    41.645    41.644   0.2% |
 Symmetrize density:                         0.001     0.001   0.0% |
Forces:                                    186.509   186.509   1.0% |
Hamiltonian:                                33.183     0.092   0.0% |
 Atomic:                                    11.002     7.670   0.0% |
  XC Correction:                             3.332     3.332   0.0% |
 Calculate atomic Hamiltonians:             10.710    10.710   0.1% |
 Communicate:                                0.393     0.393   0.0% |
 Initialize Hamiltonian:                     0.000     0.000   0.0% |
 Poisson:                                    0.056     0.056   0.0% |
 XC 3D grid:                                10.930    10.930   0.1% |
LCAO initialization:                        54.090     2.160   0.0% |
 LCAO eigensolver:                           6.604     0.002   0.0% |
  Calculate projections:                     0.058     0.058   0.0% |
  DenseAtomicCorrection:                     0.050     0.050   0.0% |
  Distribute overlap matrix:                 2.886     2.886   0.0% |
  Orbital Layouts:                           0.453     0.453   0.0% |
  Potential matrix:                          3.115     3.115   0.0% |
  Sum over cells:                            0.041     0.041   0.0% |
 LCAO to grid:                              41.403    41.403   0.2% |
 Set positions (LCAO WFS):                   3.923     3.197   0.0% |
  Basic WFS set positions:                   0.001     0.001   0.0% |
  Basis functions set positions:             0.000     0.000   0.0% |
  P tci:                                     0.283     0.283   0.0% |
  ST tci:                                    0.335     0.335   0.0% |
  mktci:                                     0.106     0.106   0.0% |
PWDescriptor:                                0.032     0.032   0.0% |
Redistribute:                                0.064     0.064   0.0% |
SCF-cycle:                               18927.730  1236.477   6.4% |--|
 Davidson:                               16086.925  3627.078  18.8% |-------|
  Apply H:                                2775.950  2715.863  14.1% |-----|
   HMM T:                                   60.087    60.087   0.3% |
  Subspace diag:                          2250.060     0.076   0.0% |
   calc_h_matrix:                         1323.119   428.392   2.2% ||
    Apply H:                               894.727   873.004   4.5% |-|
     HMM T:                                 21.723    21.723   0.1% |
   diagonalize:                             88.853    88.853   0.5% |
   rotate_psi:                             838.011   838.011   4.3% |-|
  calc. matrices:                         5035.133  3207.911  16.6% |------|
   Apply H:                               1827.222  1786.454   9.2% |---|
    HMM T:                                  40.769    40.769   0.2% |
  diagonalize:                             796.608   796.608   4.1% |-|
  rotate_psi:                             1602.096  1602.096   8.3% |--|
 Density:                                  836.264     0.015   0.0% |
  Atomic density matrices:                   4.510     4.510   0.0% |
  Mix:                                     290.215   290.215   1.5% ||
  Multipole moments:                         0.348     0.348   0.0% |
  Pseudo density:                          541.176   541.157   2.8% ||
   Symmetrize density:                       0.019     0.019   0.0% |
 Hamiltonian:                              708.235     2.229   0.0% |
  Atomic:                                  205.823   121.291   0.6% |
   XC Correction:                           84.531    84.531   0.4% |
  Calculate atomic Hamiltonians:           231.706   231.706   1.2% |
  Communicate:                               7.870     7.870   0.0% |
  Poisson:                                   1.282     1.282   0.0% |
  XC 3D grid:                              259.325   259.325   1.3% ||
 Orthonormalize:                            59.829     0.005   0.0% |
  calc_s_matrix:                             8.243     8.243   0.0% |
  inverse-cholesky:                          2.212     2.212   0.0% |
  projections:                              33.632    33.632   0.2% |
  rotate_psi_s:                             15.738    15.738   0.1% |
Set symmetry:                                0.002     0.002   0.0% |
Other:                                      85.719    85.719   0.4% |
-------------------------------------------------------------------
Total:                                             19328.975 100.0%

Date: Fri Mar  4 06:10:34 2022
