
  ___ ___ ___ _ _ _  
 |   |   |_  | | | | 
 | | | | | . | | | | 
 |__ |  _|___|_____|  1.5.1
 |___|_|             

User:   clausen@node424.cluster
Date:   Fri Mar  4 00:59:35 2022
Arch:   x86_64
Pid:    24137
Python: 3.6.12
gpaw:   /software/kemi/gpaw/1.5.1/gpaw
_gpaw:  /software/kemi/gpaw/1.5.1/bin/gpaw-python
ase:    /software/kemi/ase/3.17.0/ase (version 3.17.0)
numpy:  /opt/rh/rh-python36/root/usr/lib64/python3.6/site-packages/numpy (version 1.13.1)
scipy:  /opt/rh/rh-python36/root/usr/lib64/python3.6/site-packages/scipy (version 0.19.1)
units:  Angstrom and eV
cores:  16

Input parameters:
  kpts: [4 4 1]
  mode: {ecut: 400.0,
         gammacentered: False,
         name: pw}
  xc: RPBE

System changes: positions, numbers, cell, pbc, initial_charges, initial_magmoms 

Initialize ...

Pd-setup:
  name: Palladium
  id: 6da19bfba079f22767af9506641940b9
  Z: 46
  valence: 16
  core: 30
  charge: 0.0
  file: /software/kemi/gpaw-setups/0.9.20000/Pd.RPBE.gz
  cutoffs: 1.19(comp), 2.38(filt), 2.28(core), lmax=2
  valence states:
                energy  radius
    5s(0.00)    -3.225   1.228
    4p(6.00)   -51.131   1.360
    5p(0.00)    -0.373   1.360
    4d(10.00)    -3.964   1.228
    *s          23.987   1.228
    *d          23.247   1.228

  Using partial waves for Pd as LCAO basis

Ag-setup:
  name: Silver
  id: c05e55bab2c3858b3f9398f6d75cb77c
  Z: 47
  valence: 17
  core: 30
  charge: 0.0
  file: /software/kemi/gpaw-setups/0.9.20000/Ag.RPBE.gz
  cutoffs: 1.25(comp), 2.35(filt), 2.19(core), lmax=2
  valence states:
                energy  radius
    5s(1.00)    -4.277   1.286
    4p(6.00)   -58.523   1.328
    5p(0.00)    -0.755   1.328
    4d(10.00)    -7.386   1.180
    *s          22.934   1.286
    *d          19.826   1.180

  Using partial waves for Ag as LCAO basis

Pt-setup:
  name: Platinum
  id: f04f522592575c47ad794f6b4a415b4b
  Z: 78
  valence: 16
  core: 62
  charge: 0.0
  file: /software/kemi/gpaw-setups/0.9.20000/Pt.RPBE.gz
  cutoffs: 1.29(comp), 2.26(filt), 2.26(core), lmax=2
  valence states:
                energy  radius
    6s(1.00)    -5.516   1.307
    5p(6.00)   -55.971   1.371
    6p(0.00)    -0.856   1.371
    5d(9.00)    -6.087   1.307
    *s          21.695   1.307
    *d          21.125   1.307

  Using partial waves for Pt as LCAO basis

Ru-setup:
  name: Ruthenium
  id: 76477906e28f51dc1b29884d53556fe9
  Z: 44
  valence: 16
  core: 28
  charge: 0.0
  file: /software/kemi/gpaw-setups/0.9.20000/Ru.RPBE.gz
  cutoffs: 1.23(comp), 2.16(filt), 1.30(core), lmax=2
  valence states:
                energy  radius
    4s(2.00)   -76.255   1.281
    5s(1.00)    -4.126   1.281
    4p(6.00)   -46.371   1.286
    5p(0.00)    -0.913   1.286
    4d(7.00)    -5.146   1.254
    *d          22.066   1.254

  Using partial waves for Ru as LCAO basis

O-setup:
  name: Oxygen
  id: 08071ca1eed670e7821b24b7eb4d558c
  Z: 8
  valence: 6
  core: 2
  charge: 0.0
  file: /software/kemi/gpaw-setups/0.9.20000/O.RPBE.gz
  cutoffs: 0.67(comp), 1.17(filt), 0.83(core), lmax=2
  valence states:
                energy  radius
    2s(2.00)   -24.041   0.688
    2p(4.00)    -8.984   0.598
    *s           3.170   0.688
    *p          18.228   0.598
    *d           0.000   0.619

  Using partial waves for O as LCAO basis

Reference energy: -9073453.423555

Spin-paired calculation

Occupation numbers:
  Fermi-Dirac: width=0.1000 eV

Convergence criteria:
  Maximum total energy change: 0.0005 eV / electron
  Maximum integral of absolute density change: 0.0001 electrons
  Maximum integral of absolute eigenstate change: 4e-08 eV^2
  Maximum number of iterations: 333

Symmetries present (total): 1

  ( 1  0  0)
  ( 0  1  0)
  ( 0  0  1)

16 k-points: 4 x 4 x 1 Monkhorst-Pack grid
8 k-points in the irreducible part of the Brillouin zone
       k-points in crystal coordinates                weights
   0:     0.12500000   -0.37500000    0.00000000          2/16
   1:     0.12500000   -0.12500000    0.00000000          2/16
   2:     0.12500000    0.12500000    0.00000000          2/16
   3:     0.12500000    0.37500000    0.00000000          2/16
   4:     0.37500000   -0.37500000    0.00000000          2/16
   5:     0.37500000   -0.12500000    0.00000000          2/16
   6:     0.37500000    0.12500000    0.00000000          2/16
   7:     0.37500000    0.37500000    0.00000000          2/16

Wave functions: Plane wave expansion
  Cutoff energy: 400.000 eV
  Number of coefficients (min, max): 32266, 32339
  Pulay-stress correction: 0.000000 eV/Ang^3 (de/decut=0.000000)
  Using FFTW library
  ScaLapack parameters: grid=1x1, blocksize=None
  Wavefunction extrapolation:
    Improved wavefunction reuse through dual PAW basis 

Eigensolver
   Davidson(niter=2, smin=None, normalize=True) 

Densities:
  Coarse grid: 35*35*135 grid
  Fine grid: 70*70*270 grid
  Total Charge: 0.000000 

Density mixing:
  Method: separate
  Backend: pulay
  Linear mixing parameter: 0.05
  Mixing with 5 old densities
  Damping of long wave oscillations: 50 

Hamiltonian:
  XC and Coulomb potentials evaluated on a 70*70*270 grid
  Using the RPBE Exchange-Correlation functional
 

XC parameters: RPBE with 2 nearest neighbor stencil

Memory estimate:
  Process memory now: 148.18 MiB
  Calculator: 548.11 MiB
    Density: 48.38 MiB
      Arrays: 16.41 MiB
      Localized functions: 25.61 MiB
      Mixer: 6.36 MiB
    Hamiltonian: 11.51 MiB
      Arrays: 10.73 MiB
      XC: 0.00 MiB
      Poisson: 0.00 MiB
      vbar: 0.78 MiB
    Wavefunctions: 488.23 MiB
      Arrays psit_nG: 220.57 MiB
      Eigensolver: 253.54 MiB
      Projections: 2.81 MiB
      Projectors: 4.69 MiB
      PW-descriptor: 6.62 MiB

Total number of cores used: 16
Parallelization over k-points: 8
Domain decomposition: 1 x 1 x 2

Number of atoms: 46
Number of atomic orbitals: 551
Number of bands in calculation: 447
Bands to converge: occupied states only
Number of valence electrons: 738

... initialized

Initializing position-dependent things.

Density initialized from atomic densities
Creating initial wave functions:
  447 bands from LCAO basis set

                                             
                                             
                                             
                                             
                                             
                                             
                         Pd                  
                 Pt            Ru            
           OPt    APd    PPd    Ru           
                                             
        Pd    Ru     Pd    Pt                
                                             
        Pt     Pd    PPd    Pd     Ag        
                Ag     Ag     Ag             
                                             
           Ag    PAg    APt    Pd            
                                             
            Pd     Ru     Ag     Pd          
       Ag     Ru     Ru                      
             Pd     Pd     Pt                
        Pd     Ag     Pt                     
                                             
                                             
                                             
                                             
                                             

Positions:
   0 Pd     0.000000    1.633958   10.000000    ( 0.0000,  0.0000,  0.0000)
   1 Ag     2.830098    1.633958   10.000000    ( 0.0000,  0.0000,  0.0000)
   2 Pt     5.660196    1.633958   10.000000    ( 0.0000,  0.0000,  0.0000)
   3 Pd     1.415049    4.084895   10.000000    ( 0.0000,  0.0000,  0.0000)
   4 Pd     4.245147    4.084895   10.000000    ( 0.0000,  0.0000,  0.0000)
   5 Pt     7.075245    4.084895   10.000000    ( 0.0000,  0.0000,  0.0000)
   6 Pd     2.830098    6.535832   10.000000    ( 0.0000,  0.0000,  0.0000)
   7 Ag     5.660196    6.535832   10.000000    ( 0.0000,  0.0000,  0.0000)
   8 Pd     8.490294    6.535832   10.000000    ( 0.0000,  0.0000,  0.0000)
   9 Ag     0.000000    0.000000   12.310765    ( 0.0000,  0.0000,  0.0000)
  10 Ru     2.830098    0.000000   12.310765    ( 0.0000,  0.0000,  0.0000)
  11 Ru     5.660196    0.000000   12.310765    ( 0.0000,  0.0000,  0.0000)
  12 Pd     1.415049    2.450937   12.310765    ( 0.0000,  0.0000,  0.0000)
  13 Ru     4.245147    2.450937   12.310765    ( 0.0000,  0.0000,  0.0000)
  14 Ag     7.075245    2.450937   12.310765    ( 0.0000,  0.0000,  0.0000)
  15 Pd     2.830098    4.901874   12.310765    ( 0.0000,  0.0000,  0.0000)
  16 Ag     5.660196    4.901874   12.310765    ( 0.0000,  0.0000,  0.0000)
  17 Pd     8.490294    4.901874   12.310765    ( 0.0000,  0.0000,  0.0000)
  18 Ag     1.422839    0.836358   14.687202    ( 0.0000,  0.0000,  0.0000)
  19 Ag     4.228290    0.834029   14.668537    ( 0.0000,  0.0000,  0.0000)
  20 Pt     7.000876    0.833422   14.677349    ( 0.0000,  0.0000,  0.0000)
  21 Ag     2.849410    3.275055   14.697646    ( 0.0000,  0.0000,  0.0000)
  22 Ag     5.607020    3.276035   14.715763    ( 0.0000,  0.0000,  0.0000)
  23 Ag     8.407636    3.278571   14.701685    ( 0.0000,  0.0000,  0.0000)
  24 Pd     4.226650    5.664441   14.783889    ( 0.0000,  0.0000,  0.0000)
  25 Pd     7.021524    5.717496   14.695770    ( 0.0000,  0.0000,  0.0000)
  26 Ag     9.810161    5.688371   14.690489    ( 0.0000,  0.0000,  0.0000)
  27 Pt     0.030364    1.654579   17.054310    ( 0.0000,  0.0000,  0.0000)
  28 Pd     2.863636    1.668211   17.080253    ( 0.0000,  0.0000,  0.0000)
  29 Pd     5.584811    1.668389   17.077768    ( 0.0000,  0.0000,  0.0000)
  30 Pd     1.451673    4.084780   17.054426    ( 0.0000,  0.0000,  0.0000)
  31 Ru     4.287216    4.070209   17.299465    ( 0.0000,  0.0000,  0.0000)
  32 Pt     6.976254    4.091014   17.095978    ( 0.0000,  0.0000,  0.0000)
  33 Ag     2.791829    6.501265   17.070936    ( 0.0000,  0.0000,  0.0000)
  34 Pt     5.617052    6.449501   17.092744    ( 0.0000,  0.0000,  0.0000)
  35 Ru     8.289070    6.444709   17.186717    ( 0.0000,  0.0000,  0.0000)
  36 Pd     0.109969    0.038419   19.432145    ( 0.0000,  0.0000,  0.0000)
  37 Ru     2.913932   -0.060119   19.211827    ( 0.0000,  0.0000,  0.0000)
  38 Pd     5.607656    0.003198   19.432032    ( 0.0000,  0.0000,  0.0000)
  39 Pt     1.441354    2.458850   19.369405    ( 0.0000,  0.0000,  0.0000)
  40 Pd     4.211433    2.427374   19.463642    ( 0.0000,  0.0000,  0.0000)
  41 Pd     7.082631    2.483306   19.414916    ( 0.0000,  0.0000,  0.0000)
  42 Pt     2.814800    4.836018   19.384744    ( 0.0000,  0.0000,  0.0000)
  43 Pd     5.686541    4.887569   19.522731    ( 0.0000,  0.0000,  0.0000)
  44 Ru     8.428363    4.985817   19.203811    ( 0.0000,  0.0000,  0.0000)
  45 O      1.488418    0.812383   20.822731    ( 0.0000,  0.0000,  0.0000)

Unit cell:
           periodic     x           y           z      points  spacing
  1. axis:    yes    8.379498    0.000000    0.000000    35     0.2073
  2. axis:    yes    4.189749    7.256858    0.000000    35     0.2073
  3. axis:    no     0.000000    0.000000   29.243062   135     0.2166

  Lengths:   8.379498   8.379498  29.243062
  Angles:   90.000000  90.000000  60.000000

Effective grid spacing dv^(1/3) = 0.2207

                     log10-error:    total        iterations:
           time      wfs    density  energy       fermi  poisson
iter:   1  01:02:03  +0.49   +inf  -238.711530    2             
iter:   2  01:03:15  -1.06  -1.21  -210.805554    3             
iter:   3  01:04:27  -1.33  -1.31  -244.403643    3             
iter:   4  01:05:38  -1.29  -1.24  -244.827941    3             
iter:   5  01:06:50  -1.46  -1.24  -196.043383    37            
iter:   6  01:08:01  -1.95  -1.48  -189.475608    36            
iter:   7  01:09:13  -2.33  -1.59  -187.330901    4             
iter:   8  01:10:24  -2.43  -1.65  -184.454146    3             
iter:   9  01:11:37  -1.97  -1.78  -182.840699    33            
iter:  10  01:12:48  -2.55  -2.01  -185.035020    3             
iter:  11  01:14:01  -3.16  -1.89  -182.476387    3             
iter:  12  01:15:12  -3.35  -2.11  -182.343700    3             
iter:  13  01:16:24  -3.22  -2.15  -182.176318    3             
iter:  14  01:17:36  -3.27  -2.26  -182.031662    3             
iter:  15  01:18:48  -3.64  -2.39  -181.950068    3             
iter:  16  01:20:00  -3.41  -2.48  -181.891158    3             
iter:  17  01:21:12  -3.81  -2.57  -182.186244    3             
iter:  18  01:22:25  -3.68  -2.36  -181.800910    2             
iter:  19  01:23:37  -4.29  -2.87  -181.787332    2             
iter:  20  01:24:48  -4.39  -2.94  -181.792736    2             
iter:  21  01:26:01  -4.61  -3.01  -181.779921    2             
iter:  22  01:27:13  -4.88  -3.15  -181.781290    2             
iter:  23  01:28:25  -5.45  -3.19  -181.779671    2             
iter:  24  01:29:37  -5.69  -3.26  -181.780596    2             
iter:  25  01:30:51  -5.24  -3.30  -181.784795    2             
iter:  26  01:32:05  -5.41  -3.13  -181.779940    2             
iter:  27  01:33:18  -5.82  -3.51  -181.779596    2             
iter:  28  01:34:32  -6.13  -3.46  -181.779541    2             
iter:  29  01:35:46  -5.95  -3.51  -181.778621    2             
iter:  30  01:37:00  -6.13  -3.65  -181.779972    2             
iter:  31  01:38:13  -6.56  -3.75  -181.779108    2             
iter:  32  01:39:27  -6.34  -3.70  -181.779130    2             
iter:  33  01:40:40  -6.92  -3.85  -181.779361    2             
iter:  34  01:41:54  -6.93  -3.87  -181.779041    2             
iter:  35  01:43:07  -6.69  -3.93  -181.778981    1             
iter:  36  01:44:20  -6.91  -4.02  -181.779353    2             
iter:  37  01:45:34  -7.07  -3.96  -181.778800    2             
iter:  38  01:46:47  -7.51  -4.02  -181.778810    2             

Converged after 38 iterations.

Dipole moment: (23.879548, 20.942377, -0.334189) |e|*Ang

Energy contributions relative to reference atoms: (reference = -9073453.423555)

Kinetic:       -176.846962
Potential:      +30.592373
External:        +0.000000
XC:             -30.084364
Entropy (-ST):   -2.007274
Local:           -4.436219
--------------------------
Free energy:   -182.782447
Extrapolated:  -181.778810

Fermi level: 0.77099

Showing only first 2 kpts
 Kpt  Band  Eigenvalues  Occupancy
  0   367      0.75308    0.13617
  0   368      0.78391    0.11693
  0   369      0.82759    0.09054
  0   370      0.84399    0.08130

  1   367      0.67163    0.18245
  1   368      0.69986    0.16767
  1   369      0.71590    0.15859
  1   370      0.74707    0.13988



Forces in eV/Ang:
  0 Pd    0.08727    0.50963   -0.41630
  1 Ag    0.11403    0.48909   -0.50799
  2 Pt   -0.23141    0.51263    0.85340
  3 Pd    0.09654    0.03800   -0.07596
  4 Pd    0.11835   -0.38354    0.20393
  5 Pt   -0.13491   -0.29637   -0.07958
  6 Pd   -0.17707   -0.39235   -0.04948
  7 Ag   -0.11932   -0.45735   -0.71202
  8 Pd   -0.25473   -0.29743    0.28883
  9 Ag    0.51659    0.21540    0.43014
 10 Ru    2.21143    1.27932    0.39975
 11 Ru   -1.85607    0.89197   -0.36701
 12 Pd    1.12481   -0.25021   -0.00125
 13 Ru   -0.53564   -1.49357   -0.88231
 14 Ag   -0.44927    0.12592    0.28621
 15 Pd    0.17736   -0.57736    0.09671
 16 Ag   -0.18162   -0.37997    0.33275
 17 Pd   -0.35529    0.54985   -0.02144
 18 Ag   -0.01272    0.00462    0.03073
 19 Ag   -0.02960   -0.00975    0.02140
 20 Pt   -0.00445   -0.03384   -0.04655
 21 Ag    0.00236   -0.00113    0.02809
 22 Ag    0.02386   -0.00834   -0.00338
 23 Ag   -0.00488    0.00650    0.03294
 24 Pd    0.00570    0.02019    0.03402
 25 Pd    0.04886    0.04348    0.05396
 26 Ag   -0.00892    0.00294   -0.00975
 27 Pt   -0.10044    0.00739   -0.18474
 28 Pd    0.05056   -0.05196   -0.15183
 29 Pd    0.03747   -0.04679   -0.00844
 30 Pd    0.03155   -0.13764    0.26937
 31 Ru    0.03105   -0.02524    0.00368
 32 Pt    0.02347   -0.05617    0.01620
 33 Ag    0.02983    0.06667    0.06318
 34 Pt    0.04560   -0.02987   -0.25632
 35 Ru    0.13999   -0.01341   -0.13366
 36 Pd   -0.08758   -0.18510    0.40575
 37 Ru   -0.86870    0.30877    1.54055
 38 Pd   -0.03164   -0.03704   -0.06590
 39 Pt    0.11740   -0.08127    0.90529
 40 Pd    0.14707    0.06864   -0.06736
 41 Pd   -0.29045    0.13401   -0.02672
 42 Pt   -0.14278   -0.02600   -0.16415
 43 Pd   -0.06234   -0.20169   -0.08504
 44 Ru    0.00614   -0.03811   -0.04496
 45 O     0.66402    0.19726   -2.07575

System changes: positions 

Initializing position-dependent things.

Density initialized from wave functions
                                            
                                            
                                            
                                            
                                            
                                            
                 Pt     Pd     Ru           
           OPt     Pd     Pd                
                  Ag     Pt    Ru           
       Pd    PRu    RPd    Pt               
                                            
        Pt     Pd    PPd    Pd    Ag        
                                            
                Ag     Ag     Ag            
           Ag     Ag     Pt                 
                 Pd     Ag     Pd           
            Pd     Ru     Ag                
                  Pd     Ag     Pd          
       Ag    PRu    PRu    Pt               
        Pd     Ag     Pt                    
                                            
                                            
                                            
                                            
                                            

Positions:
   0 Pd     0.000000    1.633958   10.000000    ( 0.0000,  0.0000,  0.0000)
   1 Ag     2.830098    1.633958   10.000000    ( 0.0000,  0.0000,  0.0000)
   2 Pt     5.660196    1.633958   10.000000    ( 0.0000,  0.0000,  0.0000)
   3 Pd     1.415049    4.084895   10.000000    ( 0.0000,  0.0000,  0.0000)
   4 Pd     4.245147    4.084895   10.000000    ( 0.0000,  0.0000,  0.0000)
   5 Pt     7.075245    4.084895   10.000000    ( 0.0000,  0.0000,  0.0000)
   6 Pd     2.830098    6.535832   10.000000    ( 0.0000,  0.0000,  0.0000)
   7 Ag     5.660196    6.535832   10.000000    ( 0.0000,  0.0000,  0.0000)
   8 Pd     8.490294    6.535832   10.000000    ( 0.0000,  0.0000,  0.0000)
   9 Ag     0.000000    0.000000   12.310765    ( 0.0000,  0.0000,  0.0000)
  10 Ru     2.830098    0.000000   12.310765    ( 0.0000,  0.0000,  0.0000)
  11 Ru     5.660196    0.000000   12.310765    ( 0.0000,  0.0000,  0.0000)
  12 Pd     1.415049    2.450937   12.310765    ( 0.0000,  0.0000,  0.0000)
  13 Ru     4.245147    2.450937   12.310765    ( 0.0000,  0.0000,  0.0000)
  14 Ag     7.075245    2.450937   12.310765    ( 0.0000,  0.0000,  0.0000)
  15 Pd     2.830098    4.901874   12.310765    ( 0.0000,  0.0000,  0.0000)
  16 Ag     5.660196    4.901874   12.310765    ( 0.0000,  0.0000,  0.0000)
  17 Pd     8.490294    4.901874   12.310765    ( 0.0000,  0.0000,  0.0000)
  18 Ag     1.421676    0.836781   14.690011    ( 0.0000,  0.0000,  0.0000)
  19 Ag     4.225585    0.833138   14.670493    ( 0.0000,  0.0000,  0.0000)
  20 Pt     7.000469    0.830329   14.673095    ( 0.0000,  0.0000,  0.0000)
  21 Ag     2.849626    3.274952   14.700214    ( 0.0000,  0.0000,  0.0000)
  22 Ag     5.609200    3.275272   14.715454    ( 0.0000,  0.0000,  0.0000)
  23 Ag     8.407190    3.279165   14.704696    ( 0.0000,  0.0000,  0.0000)
  24 Pd     4.227171    5.666286   14.786999    ( 0.0000,  0.0000,  0.0000)
  25 Pd     7.025990    5.721470   14.700702    ( 0.0000,  0.0000,  0.0000)
  26 Ag     9.809346    5.688640   14.689598    ( 0.0000,  0.0000,  0.0000)
  27 Pt     0.021184    1.655254   17.037425    ( 0.0000,  0.0000,  0.0000)
  28 Pd     2.868257    1.663462   17.066376    ( 0.0000,  0.0000,  0.0000)
  29 Pd     5.588236    1.664112   17.076997    ( 0.0000,  0.0000,  0.0000)
  30 Pd     1.454556    4.072200   17.079046    ( 0.0000,  0.0000,  0.0000)
  31 Ru     4.290054    4.067902   17.299801    ( 0.0000,  0.0000,  0.0000)
  32 Pt     6.978399    4.085881   17.097459    ( 0.0000,  0.0000,  0.0000)
  33 Ag     2.794556    6.507358   17.076711    ( 0.0000,  0.0000,  0.0000)
  34 Pt     5.621220    6.446771   17.069317    ( 0.0000,  0.0000,  0.0000)
  35 Ru     8.301865    6.443483   17.174501    ( 0.0000,  0.0000,  0.0000)
  36 Pd     0.101965    0.021502   19.469229    ( 0.0000,  0.0000,  0.0000)
  37 Ru     2.834536   -0.031898   19.352627    ( 0.0000,  0.0000,  0.0000)
  38 Pd     5.604764   -0.000187   19.426009    ( 0.0000,  0.0000,  0.0000)
  39 Pt     1.452084    2.451422   19.452145    ( 0.0000,  0.0000,  0.0000)
  40 Pd     4.224874    2.433647   19.457485    ( 0.0000,  0.0000,  0.0000)
  41 Pd     7.056085    2.495554   19.412473    ( 0.0000,  0.0000,  0.0000)
  42 Pt     2.801750    4.833642   19.369741    ( 0.0000,  0.0000,  0.0000)
  43 Pd     5.680843    4.869136   19.514959    ( 0.0000,  0.0000,  0.0000)
  44 Ru     8.428924    4.982333   19.199702    ( 0.0000,  0.0000,  0.0000)
  45 O      1.549107    0.830412   20.633016    ( 0.0000,  0.0000,  0.0000)

Unit cell:
           periodic     x           y           z      points  spacing
  1. axis:    yes    8.379498    0.000000    0.000000    35     0.2073
  2. axis:    yes    4.189749    7.256858    0.000000    35     0.2073
  3. axis:    no     0.000000    0.000000   29.243062   135     0.2166

  Lengths:   8.379498   8.379498  29.243062
  Angles:   90.000000  90.000000  60.000000

Effective grid spacing dv^(1/3) = 0.2207

                     log10-error:    total        iterations:
           time      wfs    density  energy       fermi  poisson
iter:   1  01:48:33  -1.73   +inf  -186.684505    4             
iter:   2  01:49:46  -1.83  -2.03  -201.874528    34            
iter:   3  01:50:59  -1.72  -1.62  -215.889806    35            
iter:   4  01:52:13  -2.55  -1.53  -185.153573    36            
iter:   5  01:53:28  -3.24  -2.05  -183.922742    4             
iter:   6  01:54:42  -3.25  -2.16  -182.544330    2             
iter:   7  01:55:57  -3.58  -2.52  -182.380045    3             
iter:   8  01:57:09  -3.82  -2.66  -182.644498    3             
iter:   9  01:58:25  -3.83  -2.40  -182.328994    2             
iter:  10  01:59:39  -4.39  -2.65  -182.307357    2             
iter:  11  02:00:53  -3.97  -2.69  -182.281677    3             
iter:  12  02:02:08  -4.11  -2.82  -182.225780    2             
iter:  13  02:03:21  -4.74  -3.19  -182.229012    2             
iter:  14  02:04:34  -5.46  -3.20  -182.220489    2             
iter:  15  02:05:47  -5.67  -3.43  -182.221340    2             
iter:  16  02:07:00  -5.54  -3.42  -182.220227    2             
iter:  17  02:08:13  -5.86  -3.60  -182.221354    2             
iter:  18  02:09:26  -5.69  -3.48  -182.221855    2             
iter:  19  02:10:41  -5.91  -3.39  -182.220769    2             
iter:  20  02:11:54  -6.13  -3.67  -182.219980    2             
iter:  21  02:13:08  -6.40  -3.85  -182.220081    2             
iter:  22  02:14:22  -6.79  -3.90  -182.219762    2             
iter:  23  02:15:36  -6.89  -3.87  -182.220155    2             
iter:  24  02:16:51  -6.59  -3.97  -182.219790    2             
iter:  25  02:18:05  -6.95  -3.69  -182.219681    2             
iter:  26  02:19:19  -6.87  -4.06  -182.219674    2             
iter:  27  02:20:34  -6.91  -4.20  -182.219388    2             
iter:  28  02:21:48  -6.93  -4.12  -182.219422    2             
iter:  29  02:23:04  -7.06  -4.30  -182.219548    2             
iter:  30  02:24:20  -7.43  -4.42  -182.219358    2             

Converged after 30 iterations.

Dipole moment: (23.449307, 20.523034, -0.189558) |e|*Ang

Energy contributions relative to reference atoms: (reference = -9073453.423555)

Kinetic:       -173.535039
Potential:      +27.901322
External:        +0.000000
XC:             -31.174434
Entropy (-ST):   -1.993575
Local:           -4.414419
--------------------------
Free energy:   -183.216145
Extrapolated:  -182.219358

Fermi level: 0.84432

Showing only first 2 kpts
 Kpt  Band  Eigenvalues  Occupancy
  0   367      0.82864    0.13478
  0   368      0.85941    0.11558
  0   369      0.89979    0.09119
  0   370      0.93513    0.07184

  1   367      0.75529    0.17724
  1   368      0.77369    0.16740
  1   369      0.79237    0.15676
  1   370      0.82905    0.13452



Forces in eV/Ang:
  0 Pd    0.10066    0.50658   -0.42370
  1 Ag    0.10474    0.49322   -0.51946
  2 Pt   -0.24089    0.51154    0.84171
  3 Pd    0.10687    0.03327   -0.08651
  4 Pd    0.10505   -0.37781    0.20415
  5 Pt   -0.12810   -0.29227   -0.08249
  6 Pd   -0.17221   -0.40133   -0.05790
  7 Ag   -0.12633   -0.45224   -0.71129
  8 Pd   -0.25050   -0.29810    0.27626
  9 Ag    0.52386    0.21568    0.42475
 10 Ru    2.20146    1.27431    0.41640
 11 Ru   -1.84847    0.88600   -0.34997
 12 Pd    1.11238   -0.24165    0.01183
 13 Ru   -0.53732   -1.46714   -0.87978
 14 Ag   -0.43472    0.13641    0.28634
 15 Pd    0.18438   -0.59275    0.11797
 16 Ag   -0.18149   -0.37817    0.35642
 17 Pd   -0.36516    0.53667   -0.00863
 18 Ag   -0.00157    0.02547   -0.06920
 19 Ag    0.00067    0.02434   -0.00353
 20 Pt   -0.02583   -0.01114   -0.06931
 21 Ag   -0.00320    0.01979    0.02412
 22 Ag    0.00988    0.00142   -0.01715
 23 Ag    0.01911    0.03536   -0.00972
 24 Pd   -0.00393   -0.02524   -0.01842
 25 Pd    0.01580   -0.00423    0.01256
 26 Ag    0.01361   -0.02784    0.05106
 27 Pt    0.02598    0.01654    0.04547
 28 Pd   -0.01337   -0.13927    0.05751
 29 Pd   -0.01297   -0.07126   -0.03856
 30 Pd   -0.01329   -0.16982    0.11380
 31 Ru   -0.02186   -0.04223   -0.05441
 32 Pt    0.02857    0.03220   -0.03206
 33 Ag    0.04091    0.00539    0.01959
 34 Pt    0.23725    0.06428    0.11205
 35 Ru   -0.18396    0.00344    0.54864
 36 Pd   -1.05561   -0.51861   -0.40650
 37 Ru    0.29976   -0.28067    0.12496
 38 Pd   -0.23016   -0.01140   -0.07370
 39 Pt   -0.08636    1.11855   -0.33025
 40 Pd    0.13359    0.03663   -0.06754
 41 Pd   -0.08224   -0.00794   -0.04952
 42 Pt   -0.11555    0.01652   -0.01115
 43 Pd   -0.09648   -0.17212   -0.07746
 44 Ru   -0.21073    0.32706   -0.11925
 45 O     1.16740   -0.28349    0.21848

System changes: positions 

Initializing position-dependent things.

Density initialized from wave functions
                                            
                                            
                                            
                                            
                                            
                                            
                 Pt     Pd     Ru           
            Ot     Pd     Pd                
                  Ag     Pt    Ru           
       Pd    PRu    RPd    Pt               
                                            
        Pt     Pd    PPd    Pd    Ag        
                                            
                Ag     Ag     Ag            
           Ag     Ag     Pt                 
                 Pd     Ag     Pd           
            Pd     Ru     Ag                
                  Pd     Ag     Pd          
       Ag    PRu    PRu    Pt               
        Pd     Ag     Pt                    
                                            
                                            
                                            
                                            
                                            

Positions:
   0 Pd     0.000000    1.633958   10.000000    ( 0.0000,  0.0000,  0.0000)
   1 Ag     2.830098    1.633958   10.000000    ( 0.0000,  0.0000,  0.0000)
   2 Pt     5.660196    1.633958   10.000000    ( 0.0000,  0.0000,  0.0000)
   3 Pd     1.415049    4.084895   10.000000    ( 0.0000,  0.0000,  0.0000)
   4 Pd     4.245147    4.084895   10.000000    ( 0.0000,  0.0000,  0.0000)
   5 Pt     7.075245    4.084895   10.000000    ( 0.0000,  0.0000,  0.0000)
   6 Pd     2.830098    6.535832   10.000000    ( 0.0000,  0.0000,  0.0000)
   7 Ag     5.660196    6.535832   10.000000    ( 0.0000,  0.0000,  0.0000)
   8 Pd     8.490294    6.535832   10.000000    ( 0.0000,  0.0000,  0.0000)
   9 Ag     0.000000    0.000000   12.310765    ( 0.0000,  0.0000,  0.0000)
  10 Ru     2.830098    0.000000   12.310765    ( 0.0000,  0.0000,  0.0000)
  11 Ru     5.660196    0.000000   12.310765    ( 0.0000,  0.0000,  0.0000)
  12 Pd     1.415049    2.450937   12.310765    ( 0.0000,  0.0000,  0.0000)
  13 Ru     4.245147    2.450937   12.310765    ( 0.0000,  0.0000,  0.0000)
  14 Ag     7.075245    2.450937   12.310765    ( 0.0000,  0.0000,  0.0000)
  15 Pd     2.830098    4.901874   12.310765    ( 0.0000,  0.0000,  0.0000)
  16 Ag     5.660196    4.901874   12.310765    ( 0.0000,  0.0000,  0.0000)
  17 Pd     8.490294    4.901874   12.310765    ( 0.0000,  0.0000,  0.0000)
  18 Ag     1.420835    0.839522   14.684905    ( 0.0000,  0.0000,  0.0000)
  19 Ag     4.224050    0.834991   14.671305    ( 0.0000,  0.0000,  0.0000)
  20 Pt     6.997702    0.827410   14.663800    ( 0.0000,  0.0000,  0.0000)
  21 Ag     2.849441    3.276826   14.704091    ( 0.0000,  0.0000,  0.0000)
  22 Ag     5.611456    3.274960   14.713593    ( 0.0000,  0.0000,  0.0000)
  23 Ag     8.408795    3.282974   14.705526    ( 0.0000,  0.0000,  0.0000)
  24 Pd     4.227095    5.664909   14.787037    ( 0.0000,  0.0000,  0.0000)
  25 Pd     7.030177    5.723407   14.704848    ( 0.0000,  0.0000,  0.0000)
  26 Ag     9.810195    5.686076   14.694063    ( 0.0000,  0.0000,  0.0000)
  27 Pt     0.018294    1.657271   17.031883    ( 0.0000,  0.0000,  0.0000)
  28 Pd     2.869682    1.647034   17.063790    ( 0.0000,  0.0000,  0.0000)
  29 Pd     5.588994    1.654614   17.072769    ( 0.0000,  0.0000,  0.0000)
  30 Pd     1.454963    4.048152   17.104739    ( 0.0000,  0.0000,  0.0000)
  31 Ru     4.289596    4.062408   17.294680    ( 0.0000,  0.0000,  0.0000)
  32 Pt     6.982462    4.085992   17.095200    ( 0.0000,  0.0000,  0.0000)
  33 Ag     2.800170    6.511489   17.082043    ( 0.0000,  0.0000,  0.0000)
  34 Pt     5.646886    6.451441   17.066415    ( 0.0000,  0.0000,  0.0000)
  35 Ru     8.291445    6.443094   17.220924    ( 0.0000,  0.0000,  0.0000)
  36 Pd    -0.005996   -0.039220   19.451417    ( 0.0000,  0.0000,  0.0000)
  37 Ru     2.816879   -0.042649   19.448143    ( 0.0000,  0.0000,  0.0000)
  38 Pd     5.580547   -0.003304   19.415239    ( 0.0000,  0.0000,  0.0000)
  39 Pt     1.449986    2.556408   19.468798    ( 0.0000,  0.0000,  0.0000)
  40 Pd     4.245889    2.440941   19.447239    ( 0.0000,  0.0000,  0.0000)
  41 Pd     7.032338    2.502024   19.406186    ( 0.0000,  0.0000,  0.0000)
  42 Pt     2.782731    4.833852   19.359775    ( 0.0000,  0.0000,  0.0000)
  43 Pd     5.668038    4.841399   19.502786    ( 0.0000,  0.0000,  0.0000)
  44 Ru     8.408650    5.012255   19.185610    ( 0.0000,  0.0000,  0.0000)
  45 O      1.699167    0.813356   20.542144    ( 0.0000,  0.0000,  0.0000)

Unit cell:
           periodic     x           y           z      points  spacing
  1. axis:    yes    8.379498    0.000000    0.000000    35     0.2073
  2. axis:    yes    4.189749    7.256858    0.000000    35     0.2073
  3. axis:    no     0.000000    0.000000   29.243062   135     0.2166

  Lengths:   8.379498   8.379498  29.243062
  Angles:   90.000000  90.000000  60.000000

Effective grid spacing dv^(1/3) = 0.2207

                     log10-error:    total        iterations:
           time      wfs    density  energy       fermi  poisson
iter:   1  02:26:07  -1.60   +inf  -197.218039    3             
iter:   2  02:27:22  -0.79  -1.68  -398.925942    36            
iter:   3  02:28:37  -1.38  -1.12  -190.464513    36            
iter:   4  02:29:53  -2.23  -1.83  -183.228442    36            
iter:   5  02:31:09  -2.89  -2.34  -183.098471    3             
iter:   6  02:32:24  -3.63  -2.26  -182.640955    2             
iter:   7  02:33:40  -3.63  -2.54  -183.061141    3             
iter:   8  02:34:55  -3.54  -2.31  -182.480656    2             
iter:   9  02:36:10  -4.17  -2.61  -182.390250    3             
iter:  10  02:37:25  -4.20  -2.83  -182.497204    2             
iter:  11  02:38:40  -4.27  -2.57  -182.365885    3             
iter:  12  02:39:56  -4.11  -2.92  -182.340635    3             
iter:  13  02:41:12  -4.52  -3.00  -182.334608    3             
iter:  14  02:42:27  -5.04  -3.17  -182.332981    3             
iter:  15  02:43:43  -5.50  -3.14  -182.327751    2             
iter:  16  02:45:00  -5.51  -3.31  -182.329912    2             
iter:  17  02:46:16  -5.06  -3.26  -182.352900    2             
iter:  18  02:47:33  -5.29  -3.02  -182.327291    2             
iter:  19  02:48:49  -5.90  -3.41  -182.327132    2             
iter:  20  02:50:06  -5.78  -3.72  -182.326354    2             
iter:  21  02:51:23  -5.87  -3.73  -182.325945    2             
iter:  22  02:52:39  -6.22  -3.87  -182.327198    2             
iter:  23  02:53:55  -6.41  -3.83  -182.326832    2             
iter:  24  02:55:12  -5.99  -3.79  -182.329557    2             
iter:  25  02:56:28  -6.09  -3.43  -182.326705    2             
iter:  26  02:57:44  -6.96  -3.97  -182.326296    2             
iter:  27  02:59:00  -6.96  -4.25  -182.326380    2             
iter:  28  03:00:16  -7.29  -4.26  -182.326550    2             
iter:  29  03:01:32  -7.35  -4.27  -182.326392    2             
iter:  30  03:02:49  -7.41  -4.52  -182.326498    2             

Converged after 30 iterations.

Dipole moment: (32.236030, 23.706493, -0.137045) |e|*Ang

Energy contributions relative to reference atoms: (reference = -9073453.423555)

Kinetic:       -162.173708
Potential:      +18.265006
External:        +0.000000
XC:             -32.898685
Entropy (-ST):   -1.986998
Local:           -4.525613
--------------------------
Free energy:   -183.319997
Extrapolated:  -182.326498

Fermi level: 0.86891

Showing only first 2 kpts
 Kpt  Band  Eigenvalues  Occupancy
  0   367      0.86079    0.13007
  0   368      0.89239    0.11039
  0   369      0.92735    0.08948
  0   370      0.96435    0.06950

  1   367      0.78266    0.17580
  1   368      0.79833    0.16737
  1   369      0.81888    0.15563
  1   370      0.85717    0.13233



Forces in eV/Ang:
  0 Pd    0.10083    0.50548   -0.42209
  1 Ag    0.10510    0.49341   -0.51986
  2 Pt   -0.24257    0.51377    0.84182
  3 Pd    0.10566    0.03281   -0.08138
  4 Pd    0.10527   -0.37860    0.21069
  5 Pt   -0.12756   -0.29186   -0.08183
  6 Pd   -0.17425   -0.39920   -0.05119
  7 Ag   -0.12650   -0.45153   -0.70889
  8 Pd   -0.24569   -0.29948    0.28199
  9 Ag    0.53293    0.20865    0.40840
 10 Ru    2.20818    1.28021    0.41995
 11 Ru   -1.85990    0.87405   -0.33580
 12 Pd    1.11560   -0.23282    0.01039
 13 Ru   -0.54000   -1.46109   -0.88995
 14 Ag   -0.42955    0.14729    0.27906
 15 Pd    0.18245   -0.59682    0.13121
 16 Ag   -0.17593   -0.37292    0.36422
 17 Pd   -0.36772    0.54360   -0.00301
 18 Ag   -0.01193    0.00296   -0.04886
 19 Ag    0.01007    0.00426   -0.01494
 20 Pt   -0.00326   -0.00661   -0.03125
 21 Ag   -0.00040    0.00707    0.03228
 22 Ag    0.00407    0.00334   -0.00603
 23 Ag    0.01461    0.01651   -0.01472
 24 Pd    0.03020    0.00037    0.00936
 25 Pd   -0.01405   -0.01578   -0.00368
 26 Ag   -0.00543   -0.01686    0.13900
 27 Pt    0.10840   -0.02336    0.18330
 28 Pd   -0.08181   -0.10619    0.18873
 29 Pd   -0.00612   -0.03358   -0.08189
 30 Pd   -0.05434    0.01105   -0.20904
 31 Ru   -0.04873    0.00306   -0.09758
 32 Pt   -0.03673   -0.06763   -0.13482
 33 Ag   -0.02394   -0.09576   -0.18363
 34 Pt   -0.03312    0.10607    0.25191
 35 Ru   -0.03316    0.10729    0.10939
 36 Pd   -0.11205    0.16386   -0.07307
 37 Ru    1.66054   -1.00655   -1.53061
 38 Pd   -0.22246    0.13456    0.06110
 39 Pt   -0.39265    0.14367   -0.26715
 40 Pd   -0.05512    0.02714   -0.06832
 41 Pd    0.20187   -0.18885   -0.04661
 42 Pt    0.10341    0.27113    0.09565
 43 Pd   -0.14965    0.01653   -0.06267
 44 Ru   -0.15678   -0.10270    0.25943
 45 O    -0.92844    0.56946    1.80646

System changes: positions 

Initializing position-dependent things.

Density initialized from wave functions
                                            
                                            
                                            
                                            
                                            
                                            
                 Pt     Pd     Ru           
            Ot     Pd     Pd                
                  Ag     Pt    Ru           
       Pd    PRu    RPd    Pt               
                                            
        Pt     Pd    PPd    Pd    Ag        
                                            
                Ag     Ag     Ag            
           Ag     Ag     Pt                 
                 Pd     Ag     Pd           
            Pd     Ru     Ag                
                  Pd     Ag     Pd          
       Ag    PRu    PRu    Pt               
        Pd     Ag     Pt                    
                                            
                                            
                                            
                                            
                                            

Positions:
   0 Pd     0.000000    1.633958   10.000000    ( 0.0000,  0.0000,  0.0000)
   1 Ag     2.830098    1.633958   10.000000    ( 0.0000,  0.0000,  0.0000)
   2 Pt     5.660196    1.633958   10.000000    ( 0.0000,  0.0000,  0.0000)
   3 Pd     1.415049    4.084895   10.000000    ( 0.0000,  0.0000,  0.0000)
   4 Pd     4.245147    4.084895   10.000000    ( 0.0000,  0.0000,  0.0000)
   5 Pt     7.075245    4.084895   10.000000    ( 0.0000,  0.0000,  0.0000)
   6 Pd     2.830098    6.535832   10.000000    ( 0.0000,  0.0000,  0.0000)
   7 Ag     5.660196    6.535832   10.000000    ( 0.0000,  0.0000,  0.0000)
   8 Pd     8.490294    6.535832   10.000000    ( 0.0000,  0.0000,  0.0000)
   9 Ag     0.000000    0.000000   12.310765    ( 0.0000,  0.0000,  0.0000)
  10 Ru     2.830098    0.000000   12.310765    ( 0.0000,  0.0000,  0.0000)
  11 Ru     5.660196    0.000000   12.310765    ( 0.0000,  0.0000,  0.0000)
  12 Pd     1.415049    2.450937   12.310765    ( 0.0000,  0.0000,  0.0000)
  13 Ru     4.245147    2.450937   12.310765    ( 0.0000,  0.0000,  0.0000)
  14 Ag     7.075245    2.450937   12.310765    ( 0.0000,  0.0000,  0.0000)
  15 Pd     2.830098    4.901874   12.310765    ( 0.0000,  0.0000,  0.0000)
  16 Ag     5.660196    4.901874   12.310765    ( 0.0000,  0.0000,  0.0000)
  17 Pd     8.490294    4.901874   12.310765    ( 0.0000,  0.0000,  0.0000)
  18 Ag     1.421235    0.838219   14.687331    ( 0.0000,  0.0000,  0.0000)
  19 Ag     4.224780    0.834111   14.670919    ( 0.0000,  0.0000,  0.0000)
  20 Pt     6.999017    0.828797   14.668217    ( 0.0000,  0.0000,  0.0000)
  21 Ag     2.849529    3.275935   14.702248    ( 0.0000,  0.0000,  0.0000)
  22 Ag     5.610384    3.275109   14.714477    ( 0.0000,  0.0000,  0.0000)
  23 Ag     8.408032    3.281164   14.705132    ( 0.0000,  0.0000,  0.0000)
  24 Pd     4.227131    5.665563   14.787019    ( 0.0000,  0.0000,  0.0000)
  25 Pd     7.028188    5.722486   14.702877    ( 0.0000,  0.0000,  0.0000)
  26 Ag     9.809792    5.687294   14.691941    ( 0.0000,  0.0000,  0.0000)
  27 Pt     0.019667    1.656312   17.034517    ( 0.0000,  0.0000,  0.0000)
  28 Pd     2.869005    1.654841   17.065019    ( 0.0000,  0.0000,  0.0000)
  29 Pd     5.588633    1.659128   17.074778    ( 0.0000,  0.0000,  0.0000)
  30 Pd     1.454770    4.059580   17.092528    ( 0.0000,  0.0000,  0.0000)
  31 Ru     4.289813    4.065019   17.297113    ( 0.0000,  0.0000,  0.0000)
  32 Pt     6.980531    4.085939   17.096273    ( 0.0000,  0.0000,  0.0000)
  33 Ag     2.797502    6.509526   17.079509    ( 0.0000,  0.0000,  0.0000)
  34 Pt     5.634689    6.449222   17.067794    ( 0.0000,  0.0000,  0.0000)
  35 Ru     8.296397    6.443279   17.198862    ( 0.0000,  0.0000,  0.0000)
  36 Pd     0.045310   -0.010363   19.459882    ( 0.0000,  0.0000,  0.0000)
  37 Ru     2.825270   -0.037540   19.402750    ( 0.0000,  0.0000,  0.0000)
  38 Pd     5.592056   -0.001823   19.420358    ( 0.0000,  0.0000,  0.0000)
  39 Pt     1.450983    2.506516   19.460884    ( 0.0000,  0.0000,  0.0000)
  40 Pd     4.235902    2.437475   19.452108    ( 0.0000,  0.0000,  0.0000)
  41 Pd     7.043624    2.498949   19.409174    ( 0.0000,  0.0000,  0.0000)
  42 Pt     2.791769    4.833752   19.364511    ( 0.0000,  0.0000,  0.0000)
  43 Pd     5.674124    4.854580   19.508571    ( 0.0000,  0.0000,  0.0000)
  44 Ru     8.418285    4.998035   19.192307    ( 0.0000,  0.0000,  0.0000)
  45 O      1.627853    0.821462   20.585330    ( 0.0000,  0.0000,  0.0000)

Unit cell:
           periodic     x           y           z      points  spacing
  1. axis:    yes    8.379498    0.000000    0.000000    35     0.2073
  2. axis:    yes    4.189749    7.256858    0.000000    35     0.2073
  3. axis:    no     0.000000    0.000000   29.243062   135     0.2166

  Lengths:   8.379498   8.379498  29.243062
  Angles:   90.000000  90.000000  60.000000

Effective grid spacing dv^(1/3) = 0.2207

                     log10-error:    total        iterations:
           time      wfs    density  energy       fermi  poisson
iter:   1  03:04:36  -2.14   +inf  -185.895221    3             
iter:   2  03:05:52  -1.55  -1.96  -266.494687    37            
iter:   3  03:07:09  -1.85  -1.32  -183.354488    36            
iter:   4  03:08:24  -2.84  -2.27  -182.626716    3             
iter:   5  03:09:40  -3.76  -2.51  -182.560303    3             
iter:   6  03:10:55  -4.00  -2.65  -182.469588    3             
iter:   7  03:12:10  -4.46  -2.73  -182.427282    2             
iter:   8  03:13:25  -4.45  -3.01  -182.423624    3             
iter:   9  03:14:39  -4.76  -3.06  -182.424260    2             
iter:  10  03:15:54  -4.75  -2.94  -182.429125    2             
iter:  11  03:17:09  -4.97  -2.98  -182.419469    3             
iter:  12  03:18:24  -4.94  -3.06  -182.416005    2             
iter:  13  03:19:37  -5.23  -3.11  -182.398835    2             
iter:  14  03:20:52  -5.94  -3.54  -182.401779    2             
iter:  15  03:22:05  -5.81  -3.41  -182.399122    2             
iter:  16  03:23:20  -6.39  -3.75  -182.398818    2             
iter:  17  03:24:33  -5.97  -3.65  -182.398735    2             
iter:  18  03:25:45  -6.37  -3.86  -182.398628    2             
iter:  19  03:26:59  -6.31  -3.94  -182.398228    2             
iter:  20  03:28:13  -6.68  -3.86  -182.399393    2             
iter:  21  03:29:27  -6.81  -3.81  -182.398752    2             
iter:  22  03:30:40  -6.84  -4.11  -182.398099    2             
iter:  23  03:31:53  -7.16  -4.14  -182.398556    2             
iter:  24  03:33:07  -7.22  -4.26  -182.398423    2             
iter:  25  03:34:21  -7.39  -4.35  -182.398301    2             
iter:  26  03:35:35  -7.64  -4.24  -182.398424    2             

Converged after 26 iterations.

Dipole moment: (28.101898, 22.216712, -0.168718) |e|*Ang

Energy contributions relative to reference atoms: (reference = -9073453.423555)

Kinetic:       -169.639208
Potential:      +24.516401
External:        +0.000000
XC:             -31.826116
Entropy (-ST):   -1.990567
Local:           -4.454217
--------------------------
Free energy:   -183.393708
Extrapolated:  -182.398424

Fermi level: 0.85366

Showing only first 2 kpts
 Kpt  Band  Eigenvalues  Occupancy
  0   367      0.84173    0.13245
  0   368      0.87258    0.11321
  0   369      0.91074    0.09026
  0   370      0.94763    0.07024

  1   367      0.76776    0.17561
  1   368      0.78233    0.16778
  1   369      0.80204    0.15656
  1   370      0.84035    0.13330



Forces in eV/Ang:
  0 Pd    0.09520    0.50909   -0.42242
  1 Ag    0.10616    0.49633   -0.51992
  2 Pt   -0.23824    0.51184    0.84332
  3 Pd    0.10445    0.03686   -0.08377
  4 Pd    0.10380   -0.37917    0.21132
  5 Pt   -0.12486   -0.29555   -0.08148
  6 Pd   -0.17910   -0.40046   -0.05061
  7 Ag   -0.12712   -0.45345   -0.70845
  8 Pd   -0.24207   -0.30298    0.27916
  9 Ag    0.52636    0.21200    0.41541
 10 Ru    2.21343    1.27897    0.42066
 11 Ru   -1.85734    0.87867   -0.34949
 12 Pd    1.11343   -0.23480    0.01092
 13 Ru   -0.54001   -1.46624   -0.88904
 14 Ag   -0.43078    0.14281    0.27893
 15 Pd    0.18231   -0.59564    0.12226
 16 Ag   -0.17961   -0.37763    0.35944
 17 Pd   -0.36445    0.54068   -0.00956
 18 Ag   -0.00980    0.01356   -0.05707
 19 Ag    0.00781    0.01122   -0.00383
 20 Pt   -0.01292   -0.01006   -0.03976
 21 Ag   -0.00190    0.01616    0.03084
 22 Ag    0.00799    0.00419   -0.00519
 23 Ag    0.01581    0.02662   -0.00981
 24 Pd    0.01155   -0.01226    0.00458
 25 Pd    0.00270   -0.01193    0.00961
 26 Ag    0.00107   -0.02066    0.10920
 27 Pt    0.08015   -0.00925    0.12617
 28 Pd   -0.05729   -0.13918    0.14818
 29 Pd   -0.01445   -0.05334   -0.06203
 30 Pd   -0.03134   -0.08906   -0.05424
 31 Ru   -0.03441   -0.01808   -0.07428
 32 Pt   -0.00830   -0.01573   -0.09144
 33 Ag    0.02019   -0.04483   -0.08214
 34 Pt    0.10883    0.10100    0.20236
 35 Ru   -0.10887    0.06062    0.31769
 36 Pd   -0.52211   -0.08248   -0.16019
 37 Ru    0.73188   -0.45741   -0.47258
 38 Pd   -0.21699    0.06827    0.00035
 39 Pt   -0.29143    0.60196   -0.29983
 40 Pd    0.05971    0.04720   -0.08432
 41 Pd    0.07840   -0.11580   -0.01983
 42 Pt    0.01720    0.14197    0.07064
 43 Pd   -0.13621   -0.09493   -0.07290
 44 Ru   -0.21133    0.14321    0.08474
 45 O     0.38857   -0.04646    0.66238

System changes: positions 

Initializing position-dependent things.

Density initialized from wave functions
                                             
                                             
                                             
                                             
                                             
                                             
                 Pt     Pd                   
                               Ru            
            OPt   APd    PPd    Ru           
                     Ru                      
       Pd     Ru     Pd    Pt                
        Pt     Pd     Pd                     
                     Pd     Pd     Ag        
                Ag     Ag     Ag             
                                             
           Ag     Ag    APt    Pd            
                                             
            Pd     Ru     Ag     Pd          
       Ag    PRu    PRu    Pt                
                                             
        Pd     Ag     Pt                     
                                             
                                             
                                             
                                             
                                             

Positions:
   0 Pd     0.000000    1.633958   10.000000    ( 0.0000,  0.0000,  0.0000)
   1 Ag     2.830098    1.633958   10.000000    ( 0.0000,  0.0000,  0.0000)
   2 Pt     5.660196    1.633958   10.000000    ( 0.0000,  0.0000,  0.0000)
   3 Pd     1.415049    4.084895   10.000000    ( 0.0000,  0.0000,  0.0000)
   4 Pd     4.245147    4.084895   10.000000    ( 0.0000,  0.0000,  0.0000)
   5 Pt     7.075245    4.084895   10.000000    ( 0.0000,  0.0000,  0.0000)
   6 Pd     2.830098    6.535832   10.000000    ( 0.0000,  0.0000,  0.0000)
   7 Ag     5.660196    6.535832   10.000000    ( 0.0000,  0.0000,  0.0000)
   8 Pd     8.490294    6.535832   10.000000    ( 0.0000,  0.0000,  0.0000)
   9 Ag     0.000000    0.000000   12.310765    ( 0.0000,  0.0000,  0.0000)
  10 Ru     2.830098    0.000000   12.310765    ( 0.0000,  0.0000,  0.0000)
  11 Ru     5.660196    0.000000   12.310765    ( 0.0000,  0.0000,  0.0000)
  12 Pd     1.415049    2.450937   12.310765    ( 0.0000,  0.0000,  0.0000)
  13 Ru     4.245147    2.450937   12.310765    ( 0.0000,  0.0000,  0.0000)
  14 Ag     7.075245    2.450937   12.310765    ( 0.0000,  0.0000,  0.0000)
  15 Pd     2.830098    4.901874   12.310765    ( 0.0000,  0.0000,  0.0000)
  16 Ag     5.660196    4.901874   12.310765    ( 0.0000,  0.0000,  0.0000)
  17 Pd     8.490294    4.901874   12.310765    ( 0.0000,  0.0000,  0.0000)
  18 Ag     1.419599    0.839777   14.681961    ( 0.0000,  0.0000,  0.0000)
  19 Ag     4.224790    0.834915   14.671178    ( 0.0000,  0.0000,  0.0000)
  20 Pt     6.997550    0.826552   14.662504    ( 0.0000,  0.0000,  0.0000)
  21 Ag     2.849405    3.277702   14.706775    ( 0.0000,  0.0000,  0.0000)
  22 Ag     5.612055    3.275348   14.713918    ( 0.0000,  0.0000,  0.0000)
  23 Ag     8.409640    3.284314   14.705088    ( 0.0000,  0.0000,  0.0000)
  24 Pd     4.228825    5.664979   14.788934    ( 0.0000,  0.0000,  0.0000)
  25 Pd     7.029938    5.722453   14.705708    ( 0.0000,  0.0000,  0.0000)
  26 Ag     9.809471    5.685115   14.704806    ( 0.0000,  0.0000,  0.0000)
  27 Pt     0.026194    1.655185   17.043865    ( 0.0000,  0.0000,  0.0000)
  28 Pd     2.863581    1.637230   17.078081    ( 0.0000,  0.0000,  0.0000)
  29 Pd     5.588191    1.651714   17.067128    ( 0.0000,  0.0000,  0.0000)
  30 Pd     1.452002    4.045868   17.093120    ( 0.0000,  0.0000,  0.0000)
  31 Ru     4.286746    4.062417   17.288504    ( 0.0000,  0.0000,  0.0000)
  32 Pt     6.979905    4.081724   17.085634    ( 0.0000,  0.0000,  0.0000)
  33 Ag     2.800537    6.505978   17.070960    ( 0.0000,  0.0000,  0.0000)
  34 Pt     5.647072    6.460233   17.083625    ( 0.0000,  0.0000,  0.0000)
  35 Ru     8.289441    6.450459   17.228014    ( 0.0000,  0.0000,  0.0000)
  36 Pd    -0.010799   -0.020587   19.457830    ( 0.0000,  0.0000,  0.0000)
  37 Ru     2.885704   -0.081850   19.391959    ( 0.0000,  0.0000,  0.0000)
  38 Pd     5.566374    0.005730   19.419134    ( 0.0000,  0.0000,  0.0000)
  39 Pt     1.419037    2.566430   19.456620    ( 0.0000,  0.0000,  0.0000)
  40 Pd     4.246652    2.445245   19.440061    ( 0.0000,  0.0000,  0.0000)
  41 Pd     7.045014    2.488798   19.406391    ( 0.0000,  0.0000,  0.0000)
  42 Pt     2.790663    4.850645   19.368198    ( 0.0000,  0.0000,  0.0000)
  43 Pd     5.656032    4.838057   19.497508    ( 0.0000,  0.0000,  0.0000)
  44 Ru     8.394322    5.010938   19.202984    ( 0.0000,  0.0000,  0.0000)
  45 O      1.684612    0.825471   20.598438    ( 0.0000,  0.0000,  0.0000)

Unit cell:
           periodic     x           y           z      points  spacing
  1. axis:    yes    8.379498    0.000000    0.000000    35     0.2073
  2. axis:    yes    4.189749    7.256858    0.000000    35     0.2073
  3. axis:    no     0.000000    0.000000   29.243062   135     0.2166

  Lengths:   8.379498   8.379498  29.243062
  Angles:   90.000000  90.000000  60.000000

Effective grid spacing dv^(1/3) = 0.2207

                     log10-error:    total        iterations:
           time      wfs    density  energy       fermi  poisson
iter:   1  03:37:21  -2.03   +inf  -183.588416    3             
iter:   2  03:38:36  -2.65  -2.35  -184.688220    3             
iter:   3  03:39:50  -2.61  -2.05  -189.992002    3             
iter:   4  03:41:05  -2.98  -1.81  -182.645041    3             
iter:   5  03:42:19  -3.59  -2.67  -182.680706    3             
iter:   6  03:43:33  -4.10  -2.53  -182.560379    3             
iter:   7  03:44:46  -4.66  -2.76  -182.522257    3             
iter:   8  03:45:59  -4.93  -2.87  -182.491244    2             
iter:   9  03:47:14  -4.68  -3.15  -182.484309    2             
iter:  10  03:48:27  -4.44  -3.21  -182.492992    3             
iter:  11  03:49:41  -5.10  -3.12  -182.485135    2             
iter:  12  03:50:55  -5.59  -3.37  -182.480139    2             
iter:  13  03:52:09  -5.85  -3.51  -182.482830    2             
iter:  14  03:53:24  -5.79  -3.47  -182.482832    2             
iter:  15  03:54:38  -5.96  -3.56  -182.480820    2             
iter:  16  03:55:53  -6.48  -3.64  -182.480063    2             
iter:  17  03:57:07  -6.38  -3.79  -182.481098    2             
iter:  18  03:58:21  -6.11  -3.89  -182.480488    2             
iter:  19  03:59:36  -6.43  -3.74  -182.479882    2             
iter:  20  04:00:50  -6.59  -3.99  -182.480291    2             
iter:  21  04:02:05  -6.97  -4.18  -182.480390    2             
iter:  22  04:03:19  -6.95  -4.19  -182.479843    2             
iter:  23  04:04:33  -6.76  -4.05  -182.480657    2             
iter:  24  04:05:47  -7.37  -4.02  -182.480358    2             
iter:  25  04:06:59  -7.34  -4.40  -182.480110    2             
iter:  26  04:08:12  -7.58  -4.43  -182.480286    2             

Converged after 26 iterations.

Dipole moment: (35.254969, 24.529475, -0.203584) |e|*Ang

Energy contributions relative to reference atoms: (reference = -9073453.423555)

Kinetic:       -171.529362
Potential:      +26.046217
External:        +0.000000
XC:             -31.576755
Entropy (-ST):   -1.994295
Local:           -4.423238
--------------------------
Free energy:   -183.477433
Extrapolated:  -182.480286

Fermi level: 0.83597

Showing only first 2 kpts
 Kpt  Band  Eigenvalues  Occupancy
  0   367      0.82635    0.13101
  0   368      0.85901    0.11066
  0   369      0.88904    0.09259
  0   370      0.92830    0.07107

  1   367      0.75078    0.17524
  1   368      0.76538    0.16737
  1   369      0.78184    0.15803
  1   370      0.82323    0.13295



Forces in eV/Ang:
  0 Pd    0.09720    0.50639   -0.42109
  1 Ag    0.10594    0.49502   -0.52062
  2 Pt   -0.23860    0.51505    0.84176
  3 Pd    0.10464    0.03619   -0.08261
  4 Pd    0.10598   -0.37968    0.21170
  5 Pt   -0.12865   -0.29473   -0.08271
  6 Pd   -0.17525   -0.39946   -0.04837
  7 Ag   -0.12683   -0.45281   -0.70758
  8 Pd   -0.24511   -0.30322    0.28082
  9 Ag    0.53018    0.20490    0.40354
 10 Ru    2.21338    1.28214    0.42591
 11 Ru   -1.86074    0.86321   -0.32636
 12 Pd    1.11691   -0.23039    0.01222
 13 Ru   -0.54338   -1.46337   -0.87439
 14 Ag   -0.42907    0.14787    0.27910
 15 Pd    0.17773   -0.58830    0.14371
 16 Ag   -0.17597   -0.37346    0.36520
 17 Pd   -0.35711    0.55216    0.01128
 18 Ag   -0.00060    0.00093   -0.00571
 19 Ag   -0.01751    0.00726   -0.00496
 20 Pt    0.01001    0.00610   -0.01648
 21 Ag    0.01369   -0.01959    0.03165
 22 Ag   -0.00803   -0.00677   -0.02977
 23 Ag    0.00512   -0.02762   -0.01557
 24 Pd    0.04556    0.00491    0.02047
 25 Pd   -0.02025    0.01210    0.00930
 26 Ag   -0.00776   -0.00675    0.04865
 27 Pt    0.01942   -0.02820    0.07271
 28 Pd   -0.04862    0.01556    0.12325
 29 Pd    0.00610   -0.02470   -0.05018
 30 Pd   -0.03062    0.08301   -0.00006
 31 Ru   -0.04593    0.01631   -0.06380
 32 Pt    0.00770    0.00567   -0.02089
 33 Ag   -0.03465   -0.05717   -0.04794
 34 Pt   -0.08306   -0.01259    0.11210
 35 Ru    0.04017   -0.00606   -0.14074
 36 Pd    0.19099    0.15882    0.10733
 37 Ru   -0.25281    0.24186    0.34023
 38 Pd    0.01433    0.07067    0.02523
 39 Pt    0.02453   -0.23155    0.06779
 40 Pd   -0.17451    0.00168   -0.04981
 41 Pd   -0.01743   -0.06560   -0.04778
 42 Pt   -0.01970    0.08305   -0.03235
 43 Pd   -0.10900    0.05591   -0.04859
 44 Ru   -0.02012   -0.19531    0.13769
 45 O     0.19541   -0.18095   -0.60616

System changes: positions 

Initializing position-dependent things.

Density initialized from wave functions
                                             
                                             
                                             
                                             
                                             
                                             
                 Pt     Pd     Ru            
                                             
            Ot    APd    PPd    Ru           
       Pd            Ru                      
              Ru     Pd    Pt                
        Pt     Pd     Pd                     
                     Pd     Pd     Ag        
                Ag     Ag     Ag             
                                             
           Ag     Ag    APt    Pd            
                                             
            Pd     Ru     Ag     Pd          
       Ag    PRu    PRu    Pt                
                                             
        Pd     Ag     Pt                     
                                             
                                             
                                             
                                             
                                             

Positions:
   0 Pd     0.000000    1.633958   10.000000    ( 0.0000,  0.0000,  0.0000)
   1 Ag     2.830098    1.633958   10.000000    ( 0.0000,  0.0000,  0.0000)
   2 Pt     5.660196    1.633958   10.000000    ( 0.0000,  0.0000,  0.0000)
   3 Pd     1.415049    4.084895   10.000000    ( 0.0000,  0.0000,  0.0000)
   4 Pd     4.245147    4.084895   10.000000    ( 0.0000,  0.0000,  0.0000)
   5 Pt     7.075245    4.084895   10.000000    ( 0.0000,  0.0000,  0.0000)
   6 Pd     2.830098    6.535832   10.000000    ( 0.0000,  0.0000,  0.0000)
   7 Ag     5.660196    6.535832   10.000000    ( 0.0000,  0.0000,  0.0000)
   8 Pd     8.490294    6.535832   10.000000    ( 0.0000,  0.0000,  0.0000)
   9 Ag     0.000000    0.000000   12.310765    ( 0.0000,  0.0000,  0.0000)
  10 Ru     2.830098    0.000000   12.310765    ( 0.0000,  0.0000,  0.0000)
  11 Ru     5.660196    0.000000   12.310765    ( 0.0000,  0.0000,  0.0000)
  12 Pd     1.415049    2.450937   12.310765    ( 0.0000,  0.0000,  0.0000)
  13 Ru     4.245147    2.450937   12.310765    ( 0.0000,  0.0000,  0.0000)
  14 Ag     7.075245    2.450937   12.310765    ( 0.0000,  0.0000,  0.0000)
  15 Pd     2.830098    4.901874   12.310765    ( 0.0000,  0.0000,  0.0000)
  16 Ag     5.660196    4.901874   12.310765    ( 0.0000,  0.0000,  0.0000)
  17 Pd     8.490294    4.901874   12.310765    ( 0.0000,  0.0000,  0.0000)
  18 Ag     1.419178    0.840318   14.679675    ( 0.0000,  0.0000,  0.0000)
  19 Ag     4.223537    0.835849   14.670710    ( 0.0000,  0.0000,  0.0000)
  20 Pt     6.997924    0.826609   14.659693    ( 0.0000,  0.0000,  0.0000)
  21 Ag     2.850466    3.276642   14.710481    ( 0.0000,  0.0000,  0.0000)
  22 Ag     5.611740    3.274913   14.711311    ( 0.0000,  0.0000,  0.0000)
  23 Ag     8.410573    3.282973   14.703589    ( 0.0000,  0.0000,  0.0000)
  24 Pd     4.232953    5.665034   14.790871    ( 0.0000,  0.0000,  0.0000)
  25 Pd     7.028521    5.723168   14.706953    ( 0.0000,  0.0000,  0.0000)
  26 Ag     9.808842    5.683882   14.712440    ( 0.0000,  0.0000,  0.0000)
  27 Pt     0.030189    1.652586   17.053507    ( 0.0000,  0.0000,  0.0000)
  28 Pd     2.857825    1.633661   17.092689    ( 0.0000,  0.0000,  0.0000)
  29 Pd     5.588316    1.647771   17.060915    ( 0.0000,  0.0000,  0.0000)
  30 Pd     1.448539    4.049257   17.092043    ( 0.0000,  0.0000,  0.0000)
  31 Ru     4.281932    4.063072   17.280805    ( 0.0000,  0.0000,  0.0000)
  32 Pt     6.980310    4.081466   17.080880    ( 0.0000,  0.0000,  0.0000)
  33 Ag     2.798472    6.499990   17.064439    ( 0.0000,  0.0000,  0.0000)
  34 Pt     5.644043    6.462526   17.098827    ( 0.0000,  0.0000,  0.0000)
  35 Ru     8.289515    6.451986   17.226715    ( 0.0000,  0.0000,  0.0000)
  36 Pd    -0.012826   -0.010793   19.462537    ( 0.0000,  0.0000,  0.0000)
  37 Ru     2.887221   -0.076635   19.408273    ( 0.0000,  0.0000,  0.0000)
  38 Pd     5.560155    0.013709   19.421033    ( 0.0000,  0.0000,  0.0000)
  39 Pt     1.411513    2.567325   19.454841    ( 0.0000,  0.0000,  0.0000)
  40 Pd     4.234845    2.447183   19.432951    ( 0.0000,  0.0000,  0.0000)
  41 Pd     7.045409    2.479918   19.401758    ( 0.0000,  0.0000,  0.0000)
  42 Pt     2.789253    4.862164   19.367468    ( 0.0000,  0.0000,  0.0000)
  43 Pd     5.642356    4.838841   19.490836    ( 0.0000,  0.0000,  0.0000)
  44 Ru     8.385594    4.999632   19.217010    ( 0.0000,  0.0000,  0.0000)
  45 O      1.715322    0.809850   20.565121    ( 0.0000,  0.0000,  0.0000)

Unit cell:
           periodic     x           y           z      points  spacing
  1. axis:    yes    8.379498    0.000000    0.000000    35     0.2073
  2. axis:    yes    4.189749    7.256858    0.000000    35     0.2073
  3. axis:    no     0.000000    0.000000   29.243062   135     0.2166

  Lengths:   8.379498   8.379498  29.243062
  Angles:   90.000000  90.000000  60.000000

Effective grid spacing dv^(1/3) = 0.2207

                     log10-error:    total        iterations:
           time      wfs    density  energy       fermi  poisson
iter:   1  04:09:55  -2.77   +inf  -182.857814    3             
iter:   2  04:11:09  -3.11  -2.54  -182.927049    3             
iter:   3  04:12:21  -3.15  -2.43  -185.404215    3             
iter:   4  04:13:34  -3.34  -1.97  -182.698295    3             
iter:   5  04:14:48  -4.52  -2.57  -182.551382    3             
iter:   6  04:16:02  -4.64  -2.93  -182.509522    3             
iter:   7  04:17:15  -5.15  -3.15  -182.507201    2             
iter:   8  04:18:27  -5.47  -3.29  -182.506084    2             
iter:   9  04:19:40  -5.63  -3.25  -182.502791    2             
iter:  10  04:20:53  -5.29  -3.30  -182.500194    2             
iter:  11  04:22:06  -5.42  -3.66  -182.502176    2             
iter:  12  04:23:20  -5.96  -3.62  -182.499345    2             
iter:  13  04:24:33  -6.47  -3.88  -182.499206    2             
iter:  14  04:25:46  -6.73  -4.00  -182.500051    2             
iter:  15  04:26:59  -6.87  -3.93  -182.499469    2             
iter:  16  04:28:13  -6.94  -3.91  -182.499239    2             
iter:  17  04:29:27  -7.10  -4.13  -182.499733    2             
iter:  18  04:30:41  -7.26  -4.08  -182.499558    2             
iter:  19  04:31:54  -6.97  -4.28  -182.499327    2             
iter:  20  04:33:08  -6.92  -4.35  -182.499722    2             
iter:  21  04:34:22  -7.32  -4.31  -182.499756    2             
iter:  22  04:35:35  -7.48  -4.40  -182.499516    2             

Converged after 22 iterations.

Dipole moment: (35.718540, 23.449739, -0.175699) |e|*Ang

Energy contributions relative to reference atoms: (reference = -9073453.423555)

Kinetic:       -169.449890
Potential:      +24.272376
External:        +0.000000
XC:             -31.878418
Entropy (-ST):   -1.997024
Local:           -4.445072
--------------------------
Free energy:   -183.498028
Extrapolated:  -182.499516

Fermi level: 0.84780

Showing only first 2 kpts
 Kpt  Band  Eigenvalues  Occupancy
  0   367      0.83758    0.13138
  0   368      0.87272    0.10950
  0   369      0.90083    0.09261
  0   370      0.94113    0.07056

  1   367      0.76289    0.17509
  1   368      0.77760    0.16715
  1   369      0.79494    0.15729
  1   370      0.83738    0.13151



Forces in eV/Ang:
  0 Pd    0.09821    0.50643   -0.42736
  1 Ag    0.10495    0.49476   -0.52474
  2 Pt   -0.23741    0.51403    0.83433
  3 Pd    0.10474    0.03618   -0.08790
  4 Pd    0.10469   -0.37757    0.20541
  5 Pt   -0.12669   -0.29376   -0.09086
  6 Pd   -0.17445   -0.39934   -0.05566
  7 Ag   -0.12742   -0.45301   -0.71225
  8 Pd   -0.24298   -0.30444    0.27635
  9 Ag    0.53123    0.20133    0.39323
 10 Ru    2.21033    1.27926    0.41746
 11 Ru   -1.85961    0.85440   -0.32263
 12 Pd    1.12070   -0.22713    0.00444
 13 Ru   -0.54642   -1.45795   -0.87963
 14 Ag   -0.42865    0.15005    0.26625
 15 Pd    0.17600   -0.58739    0.15529
 16 Ag   -0.17524   -0.37193    0.35871
 17 Pd   -0.35542    0.55762    0.01700
 18 Ag    0.00261   -0.00600    0.04348
 19 Ag   -0.01804   -0.00485    0.00345
 20 Pt    0.00856   -0.00622   -0.00562
 21 Ag    0.00521   -0.01336    0.02713
 22 Ag    0.00505   -0.00836   -0.02715
 23 Ag   -0.00508   -0.02993   -0.00145
 24 Pd    0.02425    0.00760    0.01092
 25 Pd   -0.01518    0.00958    0.01573
 26 Ag   -0.00922    0.00390   -0.01651
 27 Pt   -0.01570   -0.03144   -0.00280
 28 Pd   -0.02647    0.03500    0.03031
 29 Pd   -0.00104    0.00237   -0.02518
 30 Pd   -0.03242    0.06210    0.02636
 31 Ru   -0.03772    0.00943   -0.04189
 32 Pt   -0.00198    0.02352    0.02492
 33 Ag   -0.01368    0.01463    0.00533
 34 Pt   -0.07274   -0.03283    0.03417
 35 Ru    0.01383   -0.09488   -0.01053
 36 Pd    0.09229    0.07512    0.03646
 37 Ru    0.16792   -0.07643   -0.13920
 38 Pd    0.04141   -0.01261   -0.00994
 39 Pt    0.05047   -0.08039    0.00613
 40 Pd   -0.11725    0.03662   -0.03239
 41 Pd   -0.08702    0.01919   -0.03084
 42 Pt   -0.04957    0.00945   -0.04727
 43 Pd   -0.04865    0.03142   -0.03702
 44 Ru    0.02564   -0.08969   -0.03832
 45 O    -0.20343    0.06682    0.32746

System changes: positions 

Initializing position-dependent things.

Density initialized from wave functions
                                             
                                             
                                             
                                             
                                             
                                             
                 Pt     Pd     Ru            
                                             
            Ot    APd    PPd    Ru           
       Pd            Ru                      
              Ru     Pd    Pt                
        Pt     Pd     Pd                     
                     Pd     Pd     Ag        
                Ag     Ag     Ag             
                                             
           Ag    PAg    APt    Pd            
                                             
            Pd     Ru     Ag     Pd          
       Ag    PRu    PRu    Pt                
                                             
        Pd     Ag     Pt                     
                                             
                                             
                                             
                                             
                                             

Positions:
   0 Pd     0.000000    1.633958   10.000000    ( 0.0000,  0.0000,  0.0000)
   1 Ag     2.830098    1.633958   10.000000    ( 0.0000,  0.0000,  0.0000)
   2 Pt     5.660196    1.633958   10.000000    ( 0.0000,  0.0000,  0.0000)
   3 Pd     1.415049    4.084895   10.000000    ( 0.0000,  0.0000,  0.0000)
   4 Pd     4.245147    4.084895   10.000000    ( 0.0000,  0.0000,  0.0000)
   5 Pt     7.075245    4.084895   10.000000    ( 0.0000,  0.0000,  0.0000)
   6 Pd     2.830098    6.535832   10.000000    ( 0.0000,  0.0000,  0.0000)
   7 Ag     5.660196    6.535832   10.000000    ( 0.0000,  0.0000,  0.0000)
   8 Pd     8.490294    6.535832   10.000000    ( 0.0000,  0.0000,  0.0000)
   9 Ag     0.000000    0.000000   12.310765    ( 0.0000,  0.0000,  0.0000)
  10 Ru     2.830098    0.000000   12.310765    ( 0.0000,  0.0000,  0.0000)
  11 Ru     5.660196    0.000000   12.310765    ( 0.0000,  0.0000,  0.0000)
  12 Pd     1.415049    2.450937   12.310765    ( 0.0000,  0.0000,  0.0000)
  13 Ru     4.245147    2.450937   12.310765    ( 0.0000,  0.0000,  0.0000)
  14 Ag     7.075245    2.450937   12.310765    ( 0.0000,  0.0000,  0.0000)
  15 Pd     2.830098    4.901874   12.310765    ( 0.0000,  0.0000,  0.0000)
  16 Ag     5.660196    4.901874   12.310765    ( 0.0000,  0.0000,  0.0000)
  17 Pd     8.490294    4.901874   12.310765    ( 0.0000,  0.0000,  0.0000)
  18 Ag     1.419608    0.839801   14.683226    ( 0.0000,  0.0000,  0.0000)
  19 Ag     4.221798    0.835679   14.670781    ( 0.0000,  0.0000,  0.0000)
  20 Pt     6.998862    0.826554   14.659345    ( 0.0000,  0.0000,  0.0000)
  21 Ag     2.851162    3.275051   14.712752    ( 0.0000,  0.0000,  0.0000)
  22 Ag     5.611750    3.274102   14.708527    ( 0.0000,  0.0000,  0.0000)
  23 Ag     8.410186    3.279805   14.703035    ( 0.0000,  0.0000,  0.0000)
  24 Pd     4.235559    5.665629   14.791731    ( 0.0000,  0.0000,  0.0000)
  25 Pd     7.026677    5.724090   14.707979    ( 0.0000,  0.0000,  0.0000)
  26 Ag     9.808098    5.684171   14.710724    ( 0.0000,  0.0000,  0.0000)
  27 Pt     0.028776    1.649774   17.054103    ( 0.0000,  0.0000,  0.0000)
  28 Pd     2.855313    1.638426   17.096463    ( 0.0000,  0.0000,  0.0000)
  29 Pd     5.588292    1.648096   17.058717    ( 0.0000,  0.0000,  0.0000)
  30 Pd     1.445608    4.056987   17.094312    ( 0.0000,  0.0000,  0.0000)
  31 Ru     4.278247    4.064304   17.277029    ( 0.0000,  0.0000,  0.0000)
  32 Pt     6.980551    4.084300   17.083648    ( 0.0000,  0.0000,  0.0000)
  33 Ag     2.796435    6.500327   17.065047    ( 0.0000,  0.0000,  0.0000)
  34 Pt     5.636224    6.458584   17.102764    ( 0.0000,  0.0000,  0.0000)
  35 Ru     8.291097    6.443485   17.222329    ( 0.0000,  0.0000,  0.0000)
  36 Pd     0.000025   -0.002979   19.464874    ( 0.0000,  0.0000,  0.0000)
  37 Ru     2.889492   -0.073319   19.404754    ( 0.0000,  0.0000,  0.0000)
  38 Pd     5.565938    0.013177   19.420620    ( 0.0000,  0.0000,  0.0000)
  39 Pt     1.419769    2.554631   19.453990    ( 0.0000,  0.0000,  0.0000)
  40 Pd     4.221013    2.449104   19.430728    ( 0.0000,  0.0000,  0.0000)
  41 Pd     7.037977    2.481174   19.398445    ( 0.0000,  0.0000,  0.0000)
  42 Pt     2.784618    4.862461   19.362740    ( 0.0000,  0.0000,  0.0000)
  43 Pd     5.638249    4.844069   19.488105    ( 0.0000,  0.0000,  0.0000)
  44 Ru     8.389223    4.988668   19.214828    ( 0.0000,  0.0000,  0.0000)
  45 O      1.701896    0.808537   20.580166    ( 0.0000,  0.0000,  0.0000)

Unit cell:
           periodic     x           y           z      points  spacing
  1. axis:    yes    8.379498    0.000000    0.000000    35     0.2073
  2. axis:    yes    4.189749    7.256858    0.000000    35     0.2073
  3. axis:    no     0.000000    0.000000   29.243062   135     0.2166

  Lengths:   8.379498   8.379498  29.243062
  Angles:   90.000000  90.000000  60.000000

Effective grid spacing dv^(1/3) = 0.2207

                     log10-error:    total        iterations:
           time      wfs    density  energy       fermi  poisson
iter:   1  04:37:20  -3.13   +inf  -182.645665    3             
iter:   2  04:38:33  -3.20  -2.67  -184.792790    3             
iter:   3  04:39:47  -3.40  -2.02  -182.749455    3             
iter:   4  04:41:00  -4.17  -2.54  -182.531564    3             
iter:   5  04:42:14  -4.95  -3.12  -182.524176    3             
iter:   6  04:43:30  -5.19  -3.04  -182.510342    2             
iter:   7  04:44:44  -5.65  -3.46  -182.511555    2             
iter:   8  04:45:58  -5.85  -3.61  -182.509450    2             
iter:   9  04:47:11  -6.33  -3.74  -182.509843    2             
iter:  10  04:48:23  -6.24  -3.72  -182.511331    2             
iter:  11  04:49:36  -5.86  -3.61  -182.512116    2             
iter:  12  04:50:49  -5.89  -3.35  -182.508730    2             
iter:  13  04:52:02  -6.47  -4.03  -182.509460    2             
iter:  14  04:53:14  -7.10  -4.01  -182.509297    2             
iter:  15  04:54:25  -7.28  -4.15  -182.508938    2             
iter:  16  04:55:37  -7.36  -4.31  -182.509243    2             
iter:  17  04:56:50  -6.98  -4.25  -182.509192    2             
iter:  18  04:58:03  -7.58  -4.43  -182.508896    2             

Converged after 18 iterations.

Dipole moment: (34.461865, 22.815133, -0.183085) |e|*Ang

Energy contributions relative to reference atoms: (reference = -9073453.423555)

Kinetic:       -170.679672
Potential:      +25.317233
External:        +0.000000
XC:             -31.708386
Entropy (-ST):   -1.998026
Local:           -4.439058
--------------------------
Free energy:   -183.507909
Extrapolated:  -182.508896

Fermi level: 0.84462

Showing only first 2 kpts
 Kpt  Band  Eigenvalues  Occupancy
  0   367      0.83258    0.13252
  0   368      0.86837    0.11023
  0   369      0.89811    0.09234
  0   370      0.93742    0.07083

  1   367      0.76023    0.17482
  1   368      0.77463    0.16704
  1   369      0.79269    0.15674
  1   370      0.83396    0.13166



Forces in eV/Ang:
  0 Pd    0.09868    0.50738   -0.42629
  1 Ag    0.10541    0.49506   -0.52358
  2 Pt   -0.23889    0.51378    0.83647
  3 Pd    0.10520    0.03507   -0.08500
  4 Pd    0.10417   -0.37873    0.20631
  5 Pt   -0.12626   -0.29364   -0.08931
  6 Pd   -0.17470   -0.39967   -0.05352
  7 Ag   -0.12666   -0.45259   -0.71146
  8 Pd   -0.24416   -0.30353    0.27862
  9 Ag    0.53480    0.20105    0.39662
 10 Ru    2.20856    1.28043    0.42010
 11 Ru   -1.86059    0.85381   -0.32472
 12 Pd    1.12574   -0.22831    0.01241
 13 Ru   -0.55307   -1.45987   -0.88264
 14 Ag   -0.42732    0.14964    0.25948
 15 Pd    0.17592   -0.59090    0.16062
 16 Ag   -0.17577   -0.36943    0.35545
 17 Pd   -0.35491    0.55664    0.01968
 18 Ag    0.00756   -0.00226    0.03487
 19 Ag   -0.00548   -0.00925    0.01661
 20 Pt   -0.01030   -0.01549   -0.00223
 21 Ag   -0.00994    0.00701    0.01629
 22 Ag    0.01242   -0.00454   -0.00673
 23 Ag    0.00176   -0.00030    0.01633
 24 Pd   -0.01267   -0.00559   -0.00452
 25 Pd    0.00338   -0.00369    0.01767
 26 Ag   -0.00024   -0.00583   -0.02161
 27 Pt   -0.02241    0.01821   -0.01894
 28 Pd    0.00550   -0.04885   -0.03182
 29 Pd   -0.02757    0.00476   -0.00430
 30 Pd   -0.02606   -0.03985   -0.03215
 31 Ru    0.00218   -0.01965   -0.03574
 32 Pt   -0.04117   -0.03359   -0.01471
 33 Ag   -0.01386    0.03961   -0.00468
 34 Pt    0.03404    0.00514   -0.00324
 35 Ru   -0.05276    0.01412    0.06338
 36 Pd   -0.00592    0.02279    0.03878
 37 Ru    0.05521   -0.05096    0.02979
 38 Pd   -0.03279   -0.01421   -0.01894
 39 Pt   -0.04768    0.00088    0.03077
 40 Pd    0.01489    0.00430   -0.00131
 41 Pd   -0.05741    0.02384   -0.01892
 42 Pt   -0.00928    0.02202    0.01130
 43 Pd   -0.02002   -0.00906   -0.01471
 44 Ru   -0.03464    0.05347    0.00604
 45 O     0.06444   -0.02340    0.06289

Timing:                                      incl.     excl.
-------------------------------------------------------------------
Density initialized from wave functions:    19.265    19.264   0.1% |
 Symmetrize density:                         0.000     0.000   0.0% |
Forces:                                    120.471   120.471   0.8% |
Hamiltonian:                                18.785     0.065   0.0% |
 Atomic:                                     5.320     2.772   0.0% |
  XC Correction:                             2.548     2.548   0.0% |
 Calculate atomic Hamiltonians:              5.085     5.085   0.0% |
 Communicate:                                0.590     0.590   0.0% |
 Initialize Hamiltonian:                     0.000     0.000   0.0% |
 Poisson:                                    0.031     0.031   0.0% |
 XC 3D grid:                                 7.694     7.694   0.1% |
LCAO initialization:                        61.095     2.670   0.0% |
 LCAO eigensolver:                           7.319     0.002   0.0% |
  Calculate projections:                     0.066     0.066   0.0% |
  DenseAtomicCorrection:                     0.061     0.061   0.0% |
  Distribute overlap matrix:                 0.550     0.550   0.0% |
  Orbital Layouts:                           0.641     0.641   0.0% |
  Potential matrix:                          5.948     5.948   0.0% |
  Sum over cells:                            0.050     0.050   0.0% |
 LCAO to grid:                              47.338    47.338   0.3% |
 Set positions (LCAO WFS):                   3.768     2.154   0.0% |
  Basic WFS set positions:                   0.003     0.003   0.0% |
  Basis functions set positions:             0.001     0.001   0.0% |
  P tci:                                     0.640     0.640   0.0% |
  ST tci:                                    0.725     0.725   0.0% |
  mktci:                                     0.246     0.246   0.0% |
PWDescriptor:                                0.045     0.045   0.0% |
Redistribute:                                0.033     0.033   0.0% |
SCF-cycle:                               14050.959   515.564   3.6% ||
 Davidson:                               12438.408  2899.849  20.2% |-------|
  Apply H:                                2062.472  2020.057  14.1% |-----|
   HMM T:                                   42.415    42.415   0.3% |
  Subspace diag:                          1736.771     0.057   0.0% |
   calc_h_matrix:                         1020.318   343.056   2.4% ||
    Apply H:                               677.262   662.531   4.6% |-|
     HMM T:                                 14.731    14.731   0.1% |
   diagonalize:                             75.949    75.949   0.5% |
   rotate_psi:                             640.447   640.447   4.5% |-|
  calc. matrices:                         3912.865  2569.365  17.9% |------|
   Apply H:                               1343.500  1315.130   9.2% |---|
    HMM T:                                  28.370    28.370   0.2% |
  diagonalize:                             570.597   570.597   4.0% |-|
  rotate_psi:                             1255.854  1255.854   8.8% |---|
 Density:                                  575.609     0.011   0.0% |
  Atomic density matrices:                   3.469     3.469   0.0% |
  Mix:                                     173.871   173.871   1.2% |
  Multipole moments:                         0.322     0.322   0.0% |
  Pseudo density:                          397.936   397.924   2.8% ||
   Symmetrize density:                       0.012     0.012   0.0% |
 Hamiltonian:                              475.213     1.719   0.0% |
  Atomic:                                  122.904    59.406   0.4% |
   XC Correction:                           63.498    63.498   0.4% |
  Calculate atomic Hamiltonians:           136.745   136.745   1.0% |
  Communicate:                              14.446    14.446   0.1% |
  Poisson:                                   0.853     0.853   0.0% |
  XC 3D grid:                              198.545   198.545   1.4% ||
 Orthonormalize:                            46.166     0.003   0.0% |
  calc_s_matrix:                             6.756     6.756   0.0% |
  inverse-cholesky:                          0.816     0.816   0.0% |
  projections:                              25.519    25.519   0.2% |
  rotate_psi_s:                             13.072    13.072   0.1% |
Set symmetry:                                0.002     0.002   0.0% |
Other:                                      53.855    53.855   0.4% |
-------------------------------------------------------------------
Total:                                             14324.511 100.0%

Date: Fri Mar  4 04:58:20 2022
