
  ___ ___ ___ _ _ _  
 |   |   |_  | | | | 
 | | | | | . | | | | 
 |__ |  _|___|_____|  1.5.1
 |___|_|             

User:   clausen@node249.cluster
Date:   Thu Mar  3 20:03:22 2022
Arch:   x86_64
Pid:    163041
Python: 3.6.12
gpaw:   /software/kemi/gpaw/1.5.1/gpaw
_gpaw:  /software/kemi/gpaw/1.5.1/bin/gpaw-python
ase:    /software/kemi/ase/3.17.0/ase (version 3.17.0)
numpy:  /opt/rh/rh-python36/root/usr/lib64/python3.6/site-packages/numpy (version 1.13.1)
scipy:  /opt/rh/rh-python36/root/usr/lib64/python3.6/site-packages/scipy (version 0.19.1)
units:  Angstrom and eV
cores:  16

Input parameters:
  kpts: [4 4 1]
  mode: {ecut: 400.0,
         gammacentered: False,
         name: pw}
  xc: RPBE

System changes: positions, numbers, cell, pbc, initial_charges, initial_magmoms 

Initialize ...

Ag-setup:
  name: Silver
  id: c05e55bab2c3858b3f9398f6d75cb77c
  Z: 47
  valence: 17
  core: 30
  charge: 0.0
  file: /software/kemi/gpaw-setups/0.9.20000/Ag.RPBE.gz
  cutoffs: 1.25(comp), 2.35(filt), 2.19(core), lmax=2
  valence states:
                energy  radius
    5s(1.00)    -4.277   1.286
    4p(6.00)   -58.523   1.328
    5p(0.00)    -0.755   1.328
    4d(10.00)    -7.386   1.180
    *s          22.934   1.286
    *d          19.826   1.180

  Using partial waves for Ag as LCAO basis

Ir-setup:
  name: Iridium
  id: 73b603359d1d5397a85ae3c2440f9033
  Z: 77
  valence: 15
  core: 62
  charge: 0.0
  file: /software/kemi/gpaw-setups/0.9.20000/Ir.RPBE.gz
  cutoffs: 1.26(comp), 2.40(filt), 2.36(core), lmax=2
  valence states:
                energy  radius
    6s(2.00)    -6.219   1.296
    5p(6.00)   -54.684   1.328
    6p(0.00)    -1.215   1.328
    5d(7.00)    -7.118   1.286
    *s          20.992   1.296
    *d          20.093   1.286

  Using partial waves for Ir as LCAO basis

Pt-setup:
  name: Platinum
  id: f04f522592575c47ad794f6b4a415b4b
  Z: 78
  valence: 16
  core: 62
  charge: 0.0
  file: /software/kemi/gpaw-setups/0.9.20000/Pt.RPBE.gz
  cutoffs: 1.29(comp), 2.26(filt), 2.26(core), lmax=2
  valence states:
                energy  radius
    6s(1.00)    -5.516   1.307
    5p(6.00)   -55.971   1.371
    6p(0.00)    -0.856   1.371
    5d(9.00)    -6.087   1.307
    *s          21.695   1.307
    *d          21.125   1.307

  Using partial waves for Pt as LCAO basis

Ru-setup:
  name: Ruthenium
  id: 76477906e28f51dc1b29884d53556fe9
  Z: 44
  valence: 16
  core: 28
  charge: 0.0
  file: /software/kemi/gpaw-setups/0.9.20000/Ru.RPBE.gz
  cutoffs: 1.23(comp), 2.16(filt), 1.30(core), lmax=2
  valence states:
                energy  radius
    4s(2.00)   -76.255   1.281
    5s(1.00)    -4.126   1.281
    4p(6.00)   -46.371   1.286
    5p(0.00)    -0.913   1.286
    4d(7.00)    -5.146   1.254
    *d          22.066   1.254

  Using partial waves for Ru as LCAO basis

O-setup:
  name: Oxygen
  id: 08071ca1eed670e7821b24b7eb4d558c
  Z: 8
  valence: 6
  core: 2
  charge: 0.0
  file: /software/kemi/gpaw-setups/0.9.20000/O.RPBE.gz
  cutoffs: 0.67(comp), 1.17(filt), 0.83(core), lmax=2
  valence states:
                energy  radius
    2s(2.00)   -24.041   0.688
    2p(4.00)    -8.984   0.598
    *s           3.170   0.688
    *p          18.228   0.598
    *d           0.000   0.619

  Using partial waves for O as LCAO basis

Reference energy: -16429278.754816

Spin-paired calculation

Occupation numbers:
  Fermi-Dirac: width=0.1000 eV

Convergence criteria:
  Maximum total energy change: 0.0005 eV / electron
  Maximum integral of absolute density change: 0.0001 electrons
  Maximum integral of absolute eigenstate change: 4e-08 eV^2
  Maximum number of iterations: 333

Symmetries present (total): 1

  ( 1  0  0)
  ( 0  1  0)
  ( 0  0  1)

16 k-points: 4 x 4 x 1 Monkhorst-Pack grid
8 k-points in the irreducible part of the Brillouin zone
       k-points in crystal coordinates                weights
   0:     0.12500000   -0.37500000    0.00000000          2/16
   1:     0.12500000   -0.12500000    0.00000000          2/16
   2:     0.12500000    0.12500000    0.00000000          2/16
   3:     0.12500000    0.37500000    0.00000000          2/16
   4:     0.37500000   -0.37500000    0.00000000          2/16
   5:     0.37500000   -0.12500000    0.00000000          2/16
   6:     0.37500000    0.12500000    0.00000000          2/16
   7:     0.37500000    0.37500000    0.00000000          2/16

Wave functions: Plane wave expansion
  Cutoff energy: 400.000 eV
  Number of coefficients (min, max): 32722, 32776
  Pulay-stress correction: 0.000000 eV/Ang^3 (de/decut=0.000000)
  Using FFTW library
  ScaLapack parameters: grid=1x1, blocksize=None
  Wavefunction extrapolation:
    Improved wavefunction reuse through dual PAW basis 

Eigensolver
   Davidson(niter=2, smin=None, normalize=True) 

Densities:
  Coarse grid: 35*35*135 grid
  Fine grid: 70*70*270 grid
  Total Charge: 0.000000 

Density mixing:
  Method: separate
  Backend: pulay
  Linear mixing parameter: 0.05
  Mixing with 5 old densities
  Damping of long wave oscillations: 50 

Hamiltonian:
  XC and Coulomb potentials evaluated on a 70*70*270 grid
  Using the RPBE Exchange-Correlation functional
 

XC parameters: RPBE with 2 nearest neighbor stencil

Memory estimate:
  Process memory now: 146.60 MiB
  Calculator: 540.22 MiB
    Density: 48.12 MiB
      Arrays: 16.41 MiB
      Localized functions: 25.35 MiB
      Mixer: 6.36 MiB
    Hamiltonian: 11.50 MiB
      Arrays: 10.73 MiB
      XC: 0.00 MiB
      Poisson: 0.00 MiB
      vbar: 0.77 MiB
    Wavefunctions: 480.60 MiB
      Arrays psit_nG: 217.55 MiB
      Eigensolver: 248.94 MiB
      Projections: 2.73 MiB
      Projectors: 4.75 MiB
      PW-descriptor: 6.62 MiB

Total number of cores used: 16
Parallelization over k-points: 8
Domain decomposition: 1 x 1 x 2

Number of atoms: 46
Number of atomic orbitals: 547
Number of bands in calculation: 435
Bands to converge: occupied states only
Number of valence electrons: 718

... initialized

Initializing position-dependent things.

Density initialized from atomic densities
Creating initial wave functions:
  435 bands from LCAO basis set

                                             
                                             
                                             
                                             
                                             
                                             
                               Ag            
                  Ir    Ir                   
            Ag           O                   
                  AIr     Pt    Ru           
       Ir    IIr    IPt    Pt                
                                             
         Ru    Ir    PIr    Ag     Ir        
                Ag     Ag     Ag             
                                             
           Ir    PPt    RPt    Ir            
                                             
            Ir    IAg    AAg    Pt           
       Ag     Ir     Ir                      
             Ir     Ir     Ir                
        Ag     Ag     Ir                     
                                             
                                             
                                             
                                             
                                             

Positions:
   0 Ag     0.000000    1.621936   10.000000    ( 0.0000,  0.0000,  0.0000)
   1 Ag     2.809275    1.621936   10.000000    ( 0.0000,  0.0000,  0.0000)
   2 Ir     5.618550    1.621936   10.000000    ( 0.0000,  0.0000,  0.0000)
   3 Ir     1.404638    4.054840   10.000000    ( 0.0000,  0.0000,  0.0000)
   4 Ir     4.213913    4.054840   10.000000    ( 0.0000,  0.0000,  0.0000)
   5 Ir     7.023188    4.054840   10.000000    ( 0.0000,  0.0000,  0.0000)
   6 Ir     2.809275    6.487743   10.000000    ( 0.0000,  0.0000,  0.0000)
   7 Ag     5.618550    6.487743   10.000000    ( 0.0000,  0.0000,  0.0000)
   8 Pt     8.427826    6.487743   10.000000    ( 0.0000,  0.0000,  0.0000)
   9 Ag     0.000000    0.000000   12.293764    ( 0.0000,  0.0000,  0.0000)
  10 Ir     2.809275    0.000000   12.293764    ( 0.0000,  0.0000,  0.0000)
  11 Ir     5.618550    0.000000   12.293764    ( 0.0000,  0.0000,  0.0000)
  12 Ir     1.404638    2.432904   12.293764    ( 0.0000,  0.0000,  0.0000)
  13 Ag     4.213913    2.432904   12.293764    ( 0.0000,  0.0000,  0.0000)
  14 Ag     7.023188    2.432904   12.293764    ( 0.0000,  0.0000,  0.0000)
  15 Pt     2.809275    4.865807   12.293764    ( 0.0000,  0.0000,  0.0000)
  16 Ru     5.618550    4.865807   12.293764    ( 0.0000,  0.0000,  0.0000)
  17 Ir     8.427826    4.865807   12.293764    ( 0.0000,  0.0000,  0.0000)
  18 Ir     1.441638    0.791118   14.593247    ( 0.0000,  0.0000,  0.0000)
  19 Pt     4.193480    0.729862   14.611205    ( 0.0000,  0.0000,  0.0000)
  20 Pt     7.034823    0.803600   14.634811    ( 0.0000,  0.0000,  0.0000)
  21 Ag     2.789574    3.267050   14.608106    ( 0.0000,  0.0000,  0.0000)
  22 Ag     5.614143    3.230616   14.629701    ( 0.0000,  0.0000,  0.0000)
  23 Ag     8.464759    3.239382   14.607930    ( 0.0000,  0.0000,  0.0000)
  24 Pt     4.237230    5.675263   14.599690    ( 0.0000,  0.0000,  0.0000)
  25 Ag     7.020289    5.624637   14.588938    ( 0.0000,  0.0000,  0.0000)
  26 Ir     9.810296    5.749034   14.534386    ( 0.0000,  0.0000,  0.0000)
  27 Ru     0.088724    1.655821   16.925664    ( 0.0000,  0.0000,  0.0000)
  28 Ir     2.745717    1.627778   16.875164    ( 0.0000,  0.0000,  0.0000)
  29 Ir     5.551846    1.597836   16.889230    ( 0.0000,  0.0000,  0.0000)
  30 Ir     1.358794    4.007324   17.013226    ( 0.0000,  0.0000,  0.0000)
  31 Ir     4.198339    3.977911   16.957702    ( 0.0000,  0.0000,  0.0000)
  32 Pt     7.125382    4.056246   16.998429    ( 0.0000,  0.0000,  0.0000)
  33 Ag     2.759687    6.474835   16.802442    ( 0.0000,  0.0000,  0.0000)
  34 Ir     5.663661    6.563267   16.864024    ( 0.0000,  0.0000,  0.0000)
  35 Ru     8.399575    6.483077   16.866623    ( 0.0000,  0.0000,  0.0000)
  36 Ir     0.015859   -0.055829   18.998154    ( 0.0000,  0.0000,  0.0000)
  37 Ir     2.776668   -0.025110   18.984491    ( 0.0000,  0.0000,  0.0000)
  38 Pt     5.623976   -0.052286   19.132338    ( 0.0000,  0.0000,  0.0000)
  39 Ag     1.411190    2.424549   19.550242    ( 0.0000,  0.0000,  0.0000)
  40 Ir     4.228423    2.403175   19.018562    ( 0.0000,  0.0000,  0.0000)
  41 Pt     6.964575    2.313754   19.128521    ( 0.0000,  0.0000,  0.0000)
  42 Ir     2.920544    4.885225   19.043791    ( 0.0000,  0.0000,  0.0000)
  43 Ir     5.524960    4.949858   19.026821    ( 0.0000,  0.0000,  0.0000)
  44 Ag     8.407084    4.876484   19.535850    ( 0.0000,  0.0000,  0.0000)
  45 O      7.016564    0.735213   20.850242    ( 0.0000,  0.0000,  0.0000)

Unit cell:
           periodic     x           y           z      points  spacing
  1. axis:    yes    8.445283    0.000000    0.000000    35     0.2090
  2. axis:    yes    4.222641    7.313829    0.000000    35     0.2090
  3. axis:    no     0.000000    0.000000   29.175054   135     0.2161

  Lengths:   8.445283   8.445283  29.175054
  Angles:   90.000000  90.000000  60.000000

Effective grid spacing dv^(1/3) = 0.2217

                     log10-error:    total        iterations:
           time      wfs    density  energy       fermi  poisson
iter:   1  20:05:35  +0.17   +inf  -295.780020    2             
iter:   2  20:06:35  -1.10  -1.37  -293.775430    36            
iter:   3  20:07:36  -1.38  -1.32  -326.423583    34            
iter:   4  20:08:35  -1.76  -1.26  -274.496817    3             
iter:   5  20:09:38  -2.25  -1.49  -268.996482    32            
iter:   6  20:10:41  -2.55  -1.55  -267.373737    2             
iter:   7  20:11:45  -2.30  -1.60  -265.517548    3             
iter:   8  20:12:45  -2.32  -1.72  -264.206331    3             
iter:   9  20:13:45  -2.64  -1.92  -264.330166    3             
iter:  10  20:14:45  -2.74  -2.05  -265.180239    3             
iter:  11  20:15:49  -3.09  -2.00  -264.757719    3             
iter:  12  20:16:52  -3.57  -2.10  -264.484567    3             
iter:  13  20:17:54  -3.71  -2.19  -264.365557    3             
iter:  14  20:18:54  -3.70  -2.23  -264.314869    3             
iter:  15  20:19:54  -3.57  -2.33  -264.286533    2             
iter:  16  20:20:54  -3.69  -2.39  -264.277752    3             
iter:  17  20:21:57  -3.88  -2.41  -264.426559    3             
iter:  18  20:23:01  -3.70  -2.32  -264.262294    3             
iter:  19  20:24:01  -3.97  -2.44  -264.154628    3             
iter:  20  20:25:01  -3.84  -2.63  -264.120814    2             
iter:  21  20:26:01  -4.38  -2.71  -264.112221    3             
iter:  22  20:27:02  -4.49  -2.74  -264.108439    3             
iter:  23  20:28:05  -4.37  -2.77  -264.144582    3             
iter:  24  20:29:09  -4.38  -2.69  -264.121087    3             
iter:  25  20:30:09  -4.65  -2.76  -264.104317    3             
iter:  26  20:31:08  -5.16  -2.94  -264.102132    2             
iter:  27  20:32:08  -5.48  -3.00  -264.099337    2             
iter:  28  20:33:09  -5.35  -3.06  -264.099173    2             
iter:  29  20:34:13  -5.27  -3.12  -264.109623    3             
iter:  30  20:35:16  -5.53  -3.01  -264.096870    2             
iter:  31  20:36:16  -5.84  -3.14  -264.097387    2             
iter:  32  20:37:16  -5.78  -3.21  -264.096312    3             
iter:  33  20:38:16  -5.44  -3.25  -264.093767    2             
iter:  34  20:39:18  -5.52  -3.36  -264.094583    2             
iter:  35  20:40:23  -5.96  -3.39  -264.096206    2             
iter:  36  20:41:24  -6.18  -3.35  -264.093216    2             
iter:  37  20:42:25  -5.92  -3.41  -264.094589    2             
iter:  38  20:43:24  -5.97  -3.45  -264.094566    2             
iter:  39  20:44:24  -5.86  -3.50  -264.093415    2             
iter:  40  20:45:28  -6.35  -3.61  -264.093859    2             
iter:  41  20:46:32  -6.34  -3.61  -264.094050    2             
iter:  42  20:47:33  -6.13  -3.62  -264.093052    2             
iter:  43  20:48:33  -6.11  -3.45  -264.092981    2             
iter:  44  20:49:33  -6.47  -3.80  -264.092872    2             
iter:  45  20:50:33  -6.98  -3.89  -264.092534    2             
iter:  46  20:51:36  -7.33  -3.93  -264.092705    2             
iter:  47  20:52:40  -6.71  -3.97  -264.092571    2             
iter:  48  20:53:40  -6.80  -4.04  -264.092241    2             
iter:  49  20:54:40  -7.15  -3.85  -264.092587    2             
iter:  50  20:55:41  -7.58  -4.14  -264.092600    2             

Converged after 50 iterations.

Dipole moment: (22.118880, 17.552761, -0.269326) |e|*Ang

Energy contributions relative to reference atoms: (reference = -16429278.754816)

Kinetic:       -162.411965
Potential:     +104.347271
External:        +0.000000
XC:            -198.839153
Entropy (-ST):   -2.067035
Local:           -6.155236
--------------------------
Free energy:   -265.126118
Extrapolated:  -264.092600

Fermi level: 1.22333

Showing only first 2 kpts
 Kpt  Band  Eigenvalues  Occupancy
  0   357      1.20710    0.13512
  0   358      1.23215    0.11949
  0   359      1.28075    0.09007
  0   360      1.31635    0.07072

  1   357      1.10205    0.19270
  1   358      1.15257    0.16747
  1   359      1.16237    0.16196
  1   360      1.19082    0.14514



Forces in eV/Ang:
  0 Ag   -0.41383    0.15672   -1.05581
  1 Ag    0.24702    0.23044   -0.87215
  2 Ir    0.49762   -0.17173    0.02481
  3 Ir   -0.09730    1.22514    1.36834
  4 Ir    0.41302    0.40586    0.88539
  5 Ir   -0.32735   -0.01882    1.19275
  6 Ir   -1.71659   -0.50535    0.73514
  7 Ag   -0.12025   -0.33970   -0.95696
  8 Pt    1.05808   -0.38398    0.47505
  9 Ag    0.13047    0.02003    0.15896
 10 Ir   -0.00479   -0.44095    0.99928
 11 Ir   -0.63233   -0.77606   -0.53584
 12 Ir    0.37918    0.14358    0.17564
 13 Ag   -0.00825   -0.03098    0.14990
 14 Ag    0.05116    0.08332    0.13190
 15 Pt   -0.14048   -0.03539   -0.61734
 16 Ru    0.63371    0.44645   -1.39158
 17 Ir    0.11181    0.28833   -1.26882
 18 Ir   -0.03309    0.07897   -0.01666
 19 Pt   -0.00868    0.02164    0.01155
 20 Pt    0.02712    0.00984    0.04029
 21 Ag    0.00783    0.00753    0.03329
 22 Ag    0.01804    0.00784    0.02441
 23 Ag   -0.00800    0.01221   -0.01358
 24 Pt    0.04110    0.00193    0.06664
 25 Ag    0.00149   -0.07412   -0.06204
 26 Ir   -0.00333   -0.04757    0.00191
 27 Ru    0.04465   -0.07516   -0.13574
 28 Ir    0.05938    0.01208    0.08422
 29 Ir   -0.04050   -0.00907   -0.21169
 30 Ir   -0.00347   -0.01518    0.06230
 31 Ir   -0.04631    0.02938    0.09024
 32 Pt   -0.10507   -0.25574    0.30899
 33 Ag    0.00373   -0.04339   -0.06526
 34 Ir   -0.22695   -0.06460    0.09805
 35 Ru    0.26052    0.10444    0.33674
 36 Ir   -0.14386    0.46289    1.28093
 37 Ir    0.05505   -0.02014    0.00162
 38 Pt   -0.13274   -0.15426    0.80266
 39 Ag    0.08254    0.03098   -0.01789
 40 Ir   -0.37455    0.14983   -0.02746
 41 Pt    0.35155   -0.05782    0.94927
 42 Ir    0.01588   -0.37416   -0.11384
 43 Ir   -0.02426   -0.00014   -0.03539
 44 Ag   -0.03560   -0.03068   -0.01557
 45 O     0.25158    0.06863   -3.10911

System changes: positions 

Initializing position-dependent things.

Density initialized from wave functions
                                             
                                             
                                             
                                             
                                             
                                             
                               Ag            
                  Ir    Ir                   
            Ag           OPt    Ru           
                  AIr                        
       Ir    IIr    IPt    Pt                
                                             
         Ru    Ir    PIr    Ag     Ir        
                Ag     Ag     Ag             
                                             
           Ir    PPt    RPt    Ir            
                                             
            Ir    IAg    AAg    Pt           
       Ag     Ir     Ir                      
             Ir     Ir     Ir                
        Ag     Ag     Ir                     
                                             
                                             
                                             
                                             
                                             

Positions:
   0 Ag     0.000000    1.621936   10.000000    ( 0.0000,  0.0000,  0.0000)
   1 Ag     2.809275    1.621936   10.000000    ( 0.0000,  0.0000,  0.0000)
   2 Ir     5.618550    1.621936   10.000000    ( 0.0000,  0.0000,  0.0000)
   3 Ir     1.404638    4.054840   10.000000    ( 0.0000,  0.0000,  0.0000)
   4 Ir     4.213913    4.054840   10.000000    ( 0.0000,  0.0000,  0.0000)
   5 Ir     7.023188    4.054840   10.000000    ( 0.0000,  0.0000,  0.0000)
   6 Ir     2.809275    6.487743   10.000000    ( 0.0000,  0.0000,  0.0000)
   7 Ag     5.618550    6.487743   10.000000    ( 0.0000,  0.0000,  0.0000)
   8 Pt     8.427826    6.487743   10.000000    ( 0.0000,  0.0000,  0.0000)
   9 Ag     0.000000    0.000000   12.293764    ( 0.0000,  0.0000,  0.0000)
  10 Ir     2.809275    0.000000   12.293764    ( 0.0000,  0.0000,  0.0000)
  11 Ir     5.618550    0.000000   12.293764    ( 0.0000,  0.0000,  0.0000)
  12 Ir     1.404638    2.432904   12.293764    ( 0.0000,  0.0000,  0.0000)
  13 Ag     4.213913    2.432904   12.293764    ( 0.0000,  0.0000,  0.0000)
  14 Ag     7.023188    2.432904   12.293764    ( 0.0000,  0.0000,  0.0000)
  15 Pt     2.809275    4.865807   12.293764    ( 0.0000,  0.0000,  0.0000)
  16 Ru     5.618550    4.865807   12.293764    ( 0.0000,  0.0000,  0.0000)
  17 Ir     8.427826    4.865807   12.293764    ( 0.0000,  0.0000,  0.0000)
  18 Ir     1.439517    0.796180   14.592179    ( 0.0000,  0.0000,  0.0000)
  19 Pt     4.192923    0.731250   14.611945    ( 0.0000,  0.0000,  0.0000)
  20 Pt     7.036562    0.804231   14.637394    ( 0.0000,  0.0000,  0.0000)
  21 Ag     2.790076    3.267532   14.610240    ( 0.0000,  0.0000,  0.0000)
  22 Ag     5.615299    3.231119   14.631266    ( 0.0000,  0.0000,  0.0000)
  23 Ag     8.464246    3.240165   14.607059    ( 0.0000,  0.0000,  0.0000)
  24 Pt     4.239864    5.675386   14.603962    ( 0.0000,  0.0000,  0.0000)
  25 Ag     7.020385    5.619886   14.584961    ( 0.0000,  0.0000,  0.0000)
  26 Ir     9.810083    5.745985   14.534508    ( 0.0000,  0.0000,  0.0000)
  27 Ru     0.091587    1.651003   16.916963    ( 0.0000,  0.0000,  0.0000)
  28 Ir     2.749523    1.628552   16.880563    ( 0.0000,  0.0000,  0.0000)
  29 Ir     5.549250    1.597254   16.875660    ( 0.0000,  0.0000,  0.0000)
  30 Ir     1.358571    4.006351   17.017220    ( 0.0000,  0.0000,  0.0000)
  31 Ir     4.195370    3.979794   16.963487    ( 0.0000,  0.0000,  0.0000)
  32 Pt     7.118646    4.039852   17.018236    ( 0.0000,  0.0000,  0.0000)
  33 Ag     2.759926    6.472054   16.798259    ( 0.0000,  0.0000,  0.0000)
  34 Ir     5.649113    6.559126   16.870309    ( 0.0000,  0.0000,  0.0000)
  35 Ru     8.416274    6.489772   16.888209    ( 0.0000,  0.0000,  0.0000)
  36 Ir     0.006637   -0.026157   19.080265    ( 0.0000,  0.0000,  0.0000)
  37 Ir     2.780197   -0.026401   18.984595    ( 0.0000,  0.0000,  0.0000)
  38 Pt     5.615466   -0.062174   19.183790    ( 0.0000,  0.0000,  0.0000)
  39 Ag     1.416481    2.426535   19.549096    ( 0.0000,  0.0000,  0.0000)
  40 Ir     4.204413    2.412779   19.016802    ( 0.0000,  0.0000,  0.0000)
  41 Pt     6.987110    2.310047   19.189371    ( 0.0000,  0.0000,  0.0000)
  42 Ir     2.921562    4.861240   19.036494    ( 0.0000,  0.0000,  0.0000)
  43 Ir     5.523405    4.949849   19.024552    ( 0.0000,  0.0000,  0.0000)
  44 Ag     8.404802    4.874517   19.534852    ( 0.0000,  0.0000,  0.0000)
  45 O      7.032691    0.739612   20.650942    ( 0.0000,  0.0000,  0.0000)

Unit cell:
           periodic     x           y           z      points  spacing
  1. axis:    yes    8.445283    0.000000    0.000000    35     0.2090
  2. axis:    yes    4.222641    7.313829    0.000000    35     0.2090
  3. axis:    no     0.000000    0.000000   29.175054   135     0.2161

  Lengths:   8.445283   8.445283  29.175054
  Angles:   90.000000  90.000000  60.000000

Effective grid spacing dv^(1/3) = 0.2217

                     log10-error:    total        iterations:
           time      wfs    density  energy       fermi  poisson
iter:   1  20:57:09  -1.99   +inf  -272.163454    32            
iter:   2  20:58:12  -1.28  -1.78  -353.881863    33            
iter:   3  20:59:15  -1.40  -1.25  -290.616311    36            
iter:   4  21:00:14  -2.43  -1.52  -265.908757    35            
iter:   5  21:01:14  -2.97  -2.17  -265.491670    3             
iter:   6  21:02:14  -3.72  -2.25  -264.969205    3             
iter:   7  21:03:16  -3.94  -2.59  -264.904792    2             
iter:   8  21:04:20  -4.01  -2.67  -264.909056    2             
iter:   9  21:05:21  -4.15  -2.57  -264.825742    2             
iter:  10  21:06:21  -4.13  -2.90  -264.808736    3             
iter:  11  21:07:20  -4.22  -2.90  -264.800847    3             
iter:  12  21:08:20  -4.88  -3.08  -264.788800    3             
iter:  13  21:09:18  -5.34  -3.18  -264.787420    3             
iter:  14  21:10:17  -5.53  -3.34  -264.784993    2             
iter:  15  21:11:19  -5.72  -3.32  -264.790118    2             
iter:  16  21:12:21  -5.59  -3.27  -264.784959    2             
iter:  17  21:13:23  -5.67  -3.58  -264.785545    2             
iter:  18  21:14:26  -5.71  -3.65  -264.785423    3             
iter:  19  21:15:28  -5.80  -3.54  -264.785439    3             
iter:  20  21:16:30  -6.31  -3.76  -264.784175    2             
iter:  21  21:17:33  -6.57  -3.77  -264.785520    2             
iter:  22  21:18:35  -6.82  -3.76  -264.784456    2             
iter:  23  21:19:38  -6.74  -4.05  -264.784374    2             
iter:  24  21:20:40  -6.49  -4.15  -264.784227    2             
iter:  25  21:21:42  -7.03  -4.16  -264.784533    2             
iter:  26  21:22:44  -7.20  -4.11  -264.784120    2             
iter:  27  21:23:47  -7.31  -4.33  -264.784609    2             
iter:  28  21:24:49  -7.61  -4.14  -264.784269    2             

Converged after 28 iterations.

Dipole moment: (22.303274, 16.721755, -0.133246) |e|*Ang

Energy contributions relative to reference atoms: (reference = -16429278.754816)

Kinetic:       -157.448929
Potential:      +99.719247
External:        +0.000000
XC:            -199.680318
Entropy (-ST):   -2.063044
Local:           -6.342747
--------------------------
Free energy:   -265.815791
Extrapolated:  -264.784269

Fermi level: 1.28861

Showing only first 2 kpts
 Kpt  Band  Eigenvalues  Occupancy
  0   357      1.25708    0.14455
  0   358      1.30024    0.11775
  0   359      1.34107    0.09295
  0   360      1.37439    0.07445

  1   357      1.16191    0.19506
  1   358      1.20630    0.17373
  1   359      1.22779    0.16189
  1   360      1.25387    0.14650



Forces in eV/Ang:
  0 Ag   -0.41207    0.15630   -1.05347
  1 Ag    0.24794    0.22988   -0.87092
  2 Ir    0.49810   -0.17257    0.03240
  3 Ir   -0.10356    1.22438    1.38509
  4 Ir    0.41310    0.41271    0.90030
  5 Ir   -0.32676   -0.01805    1.19913
  6 Ir   -1.71548   -0.50538    0.74154
  7 Ag   -0.11906   -0.33975   -0.95583
  8 Pt    1.05754   -0.38829    0.47334
  9 Ag    0.12664    0.01315    0.16815
 10 Ir    0.00833   -0.43522    1.02260
 11 Ir   -0.63858   -0.78201   -0.52050
 12 Ir    0.39462    0.14719    0.15942
 13 Ag   -0.00877   -0.02848    0.15606
 14 Ag    0.04831    0.07801    0.13164
 15 Pt   -0.13295   -0.03077   -0.60714
 16 Ru    0.62182    0.44105   -1.38333
 17 Ir    0.12567    0.29117   -1.26031
 18 Ir   -0.03591    0.03899    0.09071
 19 Pt   -0.03084   -0.03889    0.01639
 20 Pt    0.01967   -0.01534    0.01853
 21 Ag    0.00896    0.00943    0.02591
 22 Ag    0.01214    0.02953    0.00457
 23 Ag   -0.01724    0.01188    0.04232
 24 Pt    0.02742    0.00843   -0.00288
 25 Ag    0.02322    0.00216    0.08239
 26 Ir   -0.00189   -0.00994   -0.01459
 27 Ru    0.01094   -0.02861   -0.08059
 28 Ir   -0.01442   -0.10789    0.03473
 29 Ir    0.01675   -0.00414    0.03203
 30 Ir   -0.07513    0.00837   -0.00002
 31 Ir    0.08762    0.04168   -0.08835
 32 Pt   -0.04827   -0.27340    0.28236
 33 Ag    0.07839    0.05463    0.29341
 34 Ir   -0.12545    0.00366    0.20424
 35 Ru    0.05137    0.05938    0.24536
 36 Ir   -0.04521    0.04277    0.57084
 37 Ir    0.04415   -0.00735   -0.00015
 38 Pt   -0.44207   -0.27622    0.01986
 39 Ag    0.07816    0.03200    0.00646
 40 Ir   -0.14171    0.05254   -0.00466
 41 Pt    0.06811    0.44767    0.07552
 42 Ir   -0.01121   -0.15482    0.06985
 43 Ir   -0.09115    0.10000    0.02102
 44 Ag   -0.05826   -0.03809   -0.00857
 45 O     0.59306   -0.26754   -1.41293

System changes: positions 

Initializing position-dependent things.

Density initialized from wave functions
                                             
                                             
                                             
                                             
                                             
                                             
                               Ag            
                  Ir    Ir                   
            Ag    AIr    OPt    Ru           
                                             
       Ir    IIr    IPt    Pt                
         Ru                                  
               Ir    PIr    Ag     Ir        
                Ag     Ag     Ag             
                                             
           Ir    PPt    RPt    Ir            
                                             
            Ir    IAg    AAg    Pt           
       Ag    IIr    IIr    Ir                
                                             
        Ag     Ag     Ir                     
                                             
                                             
                                             
                                             
                                             

Positions:
   0 Ag     0.000000    1.621936   10.000000    ( 0.0000,  0.0000,  0.0000)
   1 Ag     2.809275    1.621936   10.000000    ( 0.0000,  0.0000,  0.0000)
   2 Ir     5.618550    1.621936   10.000000    ( 0.0000,  0.0000,  0.0000)
   3 Ir     1.404638    4.054840   10.000000    ( 0.0000,  0.0000,  0.0000)
   4 Ir     4.213913    4.054840   10.000000    ( 0.0000,  0.0000,  0.0000)
   5 Ir     7.023188    4.054840   10.000000    ( 0.0000,  0.0000,  0.0000)
   6 Ir     2.809275    6.487743   10.000000    ( 0.0000,  0.0000,  0.0000)
   7 Ag     5.618550    6.487743   10.000000    ( 0.0000,  0.0000,  0.0000)
   8 Pt     8.427826    6.487743   10.000000    ( 0.0000,  0.0000,  0.0000)
   9 Ag     0.000000    0.000000   12.293764    ( 0.0000,  0.0000,  0.0000)
  10 Ir     2.809275    0.000000   12.293764    ( 0.0000,  0.0000,  0.0000)
  11 Ir     5.618550    0.000000   12.293764    ( 0.0000,  0.0000,  0.0000)
  12 Ir     1.404638    2.432904   12.293764    ( 0.0000,  0.0000,  0.0000)
  13 Ag     4.213913    2.432904   12.293764    ( 0.0000,  0.0000,  0.0000)
  14 Ag     7.023188    2.432904   12.293764    ( 0.0000,  0.0000,  0.0000)
  15 Pt     2.809275    4.865807   12.293764    ( 0.0000,  0.0000,  0.0000)
  16 Ru     5.618550    4.865807   12.293764    ( 0.0000,  0.0000,  0.0000)
  17 Ir     8.427826    4.865807   12.293764    ( 0.0000,  0.0000,  0.0000)
  18 Ir     1.434948    0.801202   14.603579    ( 0.0000,  0.0000,  0.0000)
  19 Pt     4.189028    0.726382   14.614025    ( 0.0000,  0.0000,  0.0000)
  20 Pt     7.039076    0.802313   14.639785    ( 0.0000,  0.0000,  0.0000)
  21 Ag     2.791216    3.268730   14.613550    ( 0.0000,  0.0000,  0.0000)
  22 Ag     5.616854    3.234848   14.631875    ( 0.0000,  0.0000,  0.0000)
  23 Ag     8.462064    3.241677   14.612369    ( 0.0000,  0.0000,  0.0000)
  24 Pt     4.243374    5.676450   14.603693    ( 0.0000,  0.0000,  0.0000)
  25 Ag     7.023312    5.620054   14.595248    ( 0.0000,  0.0000,  0.0000)
  26 Ir     9.809841    5.744667   14.532674    ( 0.0000,  0.0000,  0.0000)
  27 Ru     0.093028    1.647293   16.906622    ( 0.0000,  0.0000,  0.0000)
  28 Ir     2.747792    1.614982   16.885055    ( 0.0000,  0.0000,  0.0000)
  29 Ir     5.551303    1.596720   16.879395    ( 0.0000,  0.0000,  0.0000)
  30 Ir     1.349105    4.007384   17.017305    ( 0.0000,  0.0000,  0.0000)
  31 Ir     4.206339    3.985085   16.952489    ( 0.0000,  0.0000,  0.0000)
  32 Pt     7.112419    4.005062   17.054231    ( 0.0000,  0.0000,  0.0000)
  33 Ag     2.769803    6.478871   16.835117    ( 0.0000,  0.0000,  0.0000)
  34 Ir     5.632995    6.559496   16.896168    ( 0.0000,  0.0000,  0.0000)
  35 Ru     8.423111    6.497397   16.919583    ( 0.0000,  0.0000,  0.0000)
  36 Ir     0.000741   -0.020118   19.153959    ( 0.0000,  0.0000,  0.0000)
  37 Ir     2.785834   -0.027355   18.984579    ( 0.0000,  0.0000,  0.0000)
  38 Pt     5.559608   -0.097177   19.187424    ( 0.0000,  0.0000,  0.0000)
  39 Ag     1.426440    2.430608   19.549885    ( 0.0000,  0.0000,  0.0000)
  40 Ir     4.186039    2.419606   19.016177    ( 0.0000,  0.0000,  0.0000)
  41 Pt     6.996183    2.366342   19.200221    ( 0.0000,  0.0000,  0.0000)
  42 Ir     2.920173    4.841215   19.045129    ( 0.0000,  0.0000,  0.0000)
  43 Ir     5.511892    4.962443   19.027150    ( 0.0000,  0.0000,  0.0000)
  44 Ag     8.397415    4.869677   19.533751    ( 0.0000,  0.0000,  0.0000)
  45 O      7.107731    0.706017   20.468623    ( 0.0000,  0.0000,  0.0000)

Unit cell:
           periodic     x           y           z      points  spacing
  1. axis:    yes    8.445283    0.000000    0.000000    35     0.2090
  2. axis:    yes    4.222641    7.313829    0.000000    35     0.2090
  3. axis:    no     0.000000    0.000000   29.175054   135     0.2161

  Lengths:   8.445283   8.445283  29.175054
  Angles:   90.000000  90.000000  60.000000

Effective grid spacing dv^(1/3) = 0.2217

                     log10-error:    total        iterations:
           time      wfs    density  energy       fermi  poisson
iter:   1  21:26:19  -1.90   +inf  -280.065140    4             
iter:   2  21:27:21  -0.59  -1.59  -525.739105    39            
iter:   3  21:28:23  -1.21  -1.03  -274.981486    38            
iter:   4  21:29:26  -2.12  -1.70  -265.492610    35            
iter:   5  21:30:28  -3.10  -2.43  -265.757588    3             
iter:   6  21:31:30  -3.46  -2.22  -265.387256    3             
iter:   7  21:32:33  -3.99  -2.40  -265.157168    3             
iter:   8  21:33:35  -4.01  -2.72  -265.116156    2             
iter:   9  21:34:37  -4.60  -2.78  -265.099844    3             
iter:  10  21:35:40  -4.37  -2.89  -265.098098    2             
iter:  11  21:36:42  -4.07  -2.84  -265.189130    3             
iter:  12  21:37:44  -4.50  -2.62  -265.084773    3             
iter:  13  21:38:46  -4.89  -2.94  -265.070974    2             
iter:  14  21:39:48  -5.51  -3.30  -265.069464    2             
iter:  15  21:40:50  -5.66  -3.36  -265.069088    2             
iter:  16  21:41:53  -5.39  -3.39  -265.067866    3             
iter:  17  21:42:55  -5.75  -3.38  -265.071854    2             
iter:  18  21:43:57  -5.85  -3.38  -265.067815    2             
iter:  19  21:44:59  -6.12  -3.42  -265.067631    2             
iter:  20  21:46:01  -6.06  -3.69  -265.068073    2             
iter:  21  21:47:04  -6.19  -3.77  -265.067962    2             
iter:  22  21:48:06  -6.55  -3.88  -265.067670    2             
iter:  23  21:49:08  -6.47  -3.92  -265.069511    2             
iter:  24  21:50:11  -6.63  -3.61  -265.067442    2             
iter:  25  21:51:14  -6.73  -3.97  -265.067761    2             
iter:  26  21:52:16  -6.72  -4.04  -265.068192    2             
iter:  27  21:53:18  -7.03  -3.86  -265.067974    2             
iter:  28  21:54:21  -7.29  -3.96  -265.067914    2             
iter:  29  21:55:23  -7.15  -3.97  -265.068226    2             
iter:  30  21:56:25  -6.76  -3.89  -265.067256    2             
iter:  31  21:57:28  -7.27  -4.06  -265.067538    2             
iter:  32  21:58:30  -7.85  -4.44  -265.067707    2             

Converged after 32 iterations.

Dipole moment: (22.638686, 17.813170, -0.052072) |e|*Ang

Energy contributions relative to reference atoms: (reference = -16429278.754816)

Kinetic:       -150.256397
Potential:      +93.564552
External:        +0.000000
XC:            -200.965147
Entropy (-ST):   -2.068107
Local:           -6.376661
--------------------------
Free energy:   -266.101760
Extrapolated:  -265.067707

Fermi level: 1.33133

Showing only first 2 kpts
 Kpt  Band  Eigenvalues  Occupancy
  0   357      1.31284    0.13652
  0   358      1.34619    0.11573
  0   359      1.38405    0.09279
  0   360      1.41274    0.07675

  1   357      1.20729    0.19391
  1   358      1.24020    0.17831
  1   359      1.27202    0.16102
  1   360      1.28717    0.15216



Forces in eV/Ang:
  0 Ag   -0.41312    0.15627   -1.05192
  1 Ag    0.24890    0.22889   -0.86571
  2 Ir    0.50061   -0.17295    0.02940
  3 Ir   -0.10649    1.23270    1.41030
  4 Ir    0.41178    0.41613    0.90559
  5 Ir   -0.32645   -0.01577    1.20065
  6 Ir   -1.72241   -0.50990    0.73611
  7 Ag   -0.11876   -0.34125   -0.95227
  8 Pt    1.06252   -0.39538    0.47574
  9 Ag    0.13496    0.01674    0.18756
 10 Ir    0.00088   -0.42500    1.05211
 11 Ir   -0.64686   -0.78146   -0.50424
 12 Ir    0.40775    0.13944    0.16897
 13 Ag   -0.01475   -0.03533    0.17290
 14 Ag    0.05273    0.07498    0.14900
 15 Pt   -0.12798   -0.02599   -0.59926
 16 Ru    0.63377    0.45974   -1.35325
 17 Ir    0.12280    0.29433   -1.22193
 18 Ir    0.00142   -0.02878    0.10500
 19 Pt    0.00217   -0.01952    0.04066
 20 Pt   -0.03780   -0.09490    0.07534
 21 Ag   -0.00571   -0.01567    0.03695
 22 Ag    0.02380   -0.01878    0.00134
 23 Ag   -0.02270    0.03062    0.03480
 24 Pt   -0.03262    0.04202    0.05935
 25 Ag   -0.00516    0.00753    0.17158
 26 Ir    0.05885    0.02203    0.11133
 27 Ru    0.00503    0.02493   -0.06219
 28 Ir   -0.00517   -0.00754   -0.04627
 29 Ir   -0.01795   -0.02017    0.01557
 30 Ir    0.00063    0.04236    0.00378
 31 Ir    0.00953    0.04777    0.07787
 32 Pt   -0.00876    0.06964   -0.12400
 33 Ag    0.04203    0.05320    0.06294
 34 Ir    0.01838   -0.04405   -0.07363
 35 Ru   -0.06453   -0.09534   -0.08459
 36 Ir    0.48441   -0.23563   -0.23580
 37 Ir   -0.09353    0.01052    0.12853
 38 Pt   -0.25179    0.03378   -0.23620
 39 Ag    0.02484    0.02710   -0.00655
 40 Ir   -0.00994    0.03478   -0.04324
 41 Pt   -0.16712    0.31797   -0.21206
 42 Ir   -0.11795   -0.16027    0.02137
 43 Ir   -0.04375    0.03856    0.07781
 44 Ag   -0.06895   -0.09854    0.10016
 45 O     0.07245   -0.41956    0.35024

System changes: positions 

Initializing position-dependent things.

Density initialized from wave functions
                                             
                                             
                                             
                                             
                                             
                                             
                               Ag            
                  Ir    Ir                   
            Ag    AIr    OPt    Ru           
                                             
       Ir    IIr    IPt    Pt                
         Ru                                  
               Ir    PIr    Ag     Ir        
                Ag     Ag     Ag             
                                             
           Ir    PPt    RPt    Ir            
                                             
            Ir    IAg    AAg    Pt           
       Ag    IIr    IIr    Ir                
                                             
        Ag     Ag     Ir                     
                                             
                                             
                                             
                                             
                                             

Positions:
   0 Ag     0.000000    1.621936   10.000000    ( 0.0000,  0.0000,  0.0000)
   1 Ag     2.809275    1.621936   10.000000    ( 0.0000,  0.0000,  0.0000)
   2 Ir     5.618550    1.621936   10.000000    ( 0.0000,  0.0000,  0.0000)
   3 Ir     1.404638    4.054840   10.000000    ( 0.0000,  0.0000,  0.0000)
   4 Ir     4.213913    4.054840   10.000000    ( 0.0000,  0.0000,  0.0000)
   5 Ir     7.023188    4.054840   10.000000    ( 0.0000,  0.0000,  0.0000)
   6 Ir     2.809275    6.487743   10.000000    ( 0.0000,  0.0000,  0.0000)
   7 Ag     5.618550    6.487743   10.000000    ( 0.0000,  0.0000,  0.0000)
   8 Pt     8.427826    6.487743   10.000000    ( 0.0000,  0.0000,  0.0000)
   9 Ag     0.000000    0.000000   12.293764    ( 0.0000,  0.0000,  0.0000)
  10 Ir     2.809275    0.000000   12.293764    ( 0.0000,  0.0000,  0.0000)
  11 Ir     5.618550    0.000000   12.293764    ( 0.0000,  0.0000,  0.0000)
  12 Ir     1.404638    2.432904   12.293764    ( 0.0000,  0.0000,  0.0000)
  13 Ag     4.213913    2.432904   12.293764    ( 0.0000,  0.0000,  0.0000)
  14 Ag     7.023188    2.432904   12.293764    ( 0.0000,  0.0000,  0.0000)
  15 Pt     2.809275    4.865807   12.293764    ( 0.0000,  0.0000,  0.0000)
  16 Ru     5.618550    4.865807   12.293764    ( 0.0000,  0.0000,  0.0000)
  17 Ir     8.427826    4.865807   12.293764    ( 0.0000,  0.0000,  0.0000)
  18 Ir     1.434621    0.799522   14.613308    ( 0.0000,  0.0000,  0.0000)
  19 Pt     4.189054    0.724725   14.617945    ( 0.0000,  0.0000,  0.0000)
  20 Pt     7.035940    0.793628   14.647229    ( 0.0000,  0.0000,  0.0000)
  21 Ag     2.790799    3.267392   14.617394    ( 0.0000,  0.0000,  0.0000)
  22 Ag     5.619280    3.233277   14.632282    ( 0.0000,  0.0000,  0.0000)
  23 Ag     8.459837    3.244668   14.615535    ( 0.0000,  0.0000,  0.0000)
  24 Pt     4.240890    5.680369   14.609902    ( 0.0000,  0.0000,  0.0000)
  25 Ag     7.022910    5.619931   14.610595    ( 0.0000,  0.0000,  0.0000)
  26 Ir     9.815229    5.746145   14.542930    ( 0.0000,  0.0000,  0.0000)
  27 Ru     0.094015    1.648686   16.899174    ( 0.0000,  0.0000,  0.0000)
  28 Ir     2.747938    1.614151   16.881809    ( 0.0000,  0.0000,  0.0000)
  29 Ir     5.549238    1.594748   16.878560    ( 0.0000,  0.0000,  0.0000)
  30 Ir     1.348937    4.011144   17.018346    ( 0.0000,  0.0000,  0.0000)
  31 Ir     4.206923    3.989923   16.960454    ( 0.0000,  0.0000,  0.0000)
  32 Pt     7.110322    4.007960   17.046931    ( 0.0000,  0.0000,  0.0000)
  33 Ag     2.773919    6.483435   16.840933    ( 0.0000,  0.0000,  0.0000)
  34 Ir     5.631855    6.554723   16.890977    ( 0.0000,  0.0000,  0.0000)
  35 Ru     8.420181    6.489911   16.916136    ( 0.0000,  0.0000,  0.0000)
  36 Ir     0.043721   -0.036606   19.147869    ( 0.0000,  0.0000,  0.0000)
  37 Ir     2.777927   -0.026627   18.996454    ( 0.0000,  0.0000,  0.0000)
  38 Pt     5.533795   -0.096466   19.174601    ( 0.0000,  0.0000,  0.0000)
  39 Ag     1.429845    2.433533   19.549097    ( 0.0000,  0.0000,  0.0000)
  40 Ir     4.180605    2.424611   19.011871    ( 0.0000,  0.0000,  0.0000)
  41 Pt     6.984842    2.396157   19.191394    ( 0.0000,  0.0000,  0.0000)
  42 Ir     2.909439    4.821883   19.046011    ( 0.0000,  0.0000,  0.0000)
  43 Ir     5.507358    4.966250   19.033988    ( 0.0000,  0.0000,  0.0000)
  44 Ag     8.390512    4.860149   19.542797    ( 0.0000,  0.0000,  0.0000)
  45 O      7.118697    0.667401   20.462847    ( 0.0000,  0.0000,  0.0000)

Unit cell:
           periodic     x           y           z      points  spacing
  1. axis:    yes    8.445283    0.000000    0.000000    35     0.2090
  2. axis:    yes    4.222641    7.313829    0.000000    35     0.2090
  3. axis:    no     0.000000    0.000000   29.175054   135     0.2161

  Lengths:   8.445283   8.445283  29.175054
  Angles:   90.000000  90.000000  60.000000

Effective grid spacing dv^(1/3) = 0.2217

                     log10-error:    total        iterations:
           time      wfs    density  energy       fermi  poisson
iter:   1  22:00:01  -2.51   +inf  -265.532723    3             
iter:   2  22:01:03  -3.06  -2.42  -266.857012    3             
iter:   3  22:02:05  -3.11  -2.01  -266.310365    3             
iter:   4  22:03:07  -3.74  -2.09  -265.165375    3             
iter:   5  22:04:10  -4.33  -2.82  -265.132376    3             
iter:   6  22:05:12  -4.77  -2.97  -265.120370    3             
iter:   7  22:06:14  -4.94  -3.12  -265.114588    2             
iter:   8  22:07:16  -4.71  -3.26  -265.110582    2             
iter:   9  22:08:18  -4.93  -3.45  -265.134402    2             
iter:  10  22:09:21  -5.23  -2.96  -265.110498    2             
iter:  11  22:10:22  -5.63  -3.31  -265.109940    3             
iter:  12  22:11:24  -6.07  -3.56  -265.110079    2             
iter:  13  22:12:26  -6.17  -3.59  -265.109125    2             
iter:  14  22:13:29  -6.26  -3.73  -265.109215    2             
iter:  15  22:14:30  -6.47  -3.80  -265.109757    2             
iter:  16  22:15:32  -6.26  -3.74  -265.109141    2             
iter:  17  22:16:34  -6.39  -3.47  -265.108967    2             
iter:  18  22:17:36  -6.50  -3.87  -265.109077    2             
iter:  19  22:18:38  -6.69  -3.99  -265.108615    2             
iter:  20  22:19:40  -6.92  -3.95  -265.108726    2             
iter:  21  22:20:42  -7.04  -4.16  -265.108815    2             
iter:  22  22:21:44  -7.18  -4.34  -265.108554    2             
iter:  23  22:22:46  -6.70  -4.03  -265.109218    2             
iter:  24  22:23:48  -7.24  -4.08  -265.109045    2             
iter:  25  22:24:50  -7.84  -4.32  -265.108803    2             

Converged after 25 iterations.

Dipole moment: (20.083922, 17.915755, -0.062666) |e|*Ang

Energy contributions relative to reference atoms: (reference = -16429278.754816)

Kinetic:       -151.279731
Potential:      +94.290784
External:        +0.000000
XC:            -200.727388
Entropy (-ST):   -2.074062
Local:           -6.355437
--------------------------
Free energy:   -266.145834
Extrapolated:  -265.108803

Fermi level: 1.32479

Showing only first 2 kpts
 Kpt  Band  Eigenvalues  Occupancy
  0   357      1.30683    0.13620
  0   358      1.34721    0.11105
  0   359      1.37552    0.09396
  0   360      1.41155    0.07394

  1   357      1.20161    0.19353
  1   358      1.23946    0.17531
  1   359      1.26589    0.16079
  1   360      1.27941    0.15289



Forces in eV/Ang:
  0 Ag   -0.41424    0.15700   -1.05114
  1 Ag    0.24809    0.22942   -0.86191
  2 Ir    0.50237   -0.17280    0.03273
  3 Ir   -0.10567    1.23119    1.40884
  4 Ir    0.41259    0.41396    0.90391
  5 Ir   -0.32671   -0.01359    1.20941
  6 Ir   -1.72205   -0.50931    0.73539
  7 Ag   -0.11978   -0.34140   -0.95263
  8 Pt    1.06345   -0.39570    0.47899
  9 Ag    0.13860    0.02145    0.21137
 10 Ir   -0.00379   -0.44014    1.08273
 11 Ir   -0.65408   -0.79923   -0.49264
 12 Ir    0.40989    0.13556    0.18415
 13 Ag   -0.01963   -0.03995    0.18689
 14 Ag    0.05947    0.06345    0.16903
 15 Pt   -0.13154   -0.02466   -0.57143
 16 Ru    0.64632    0.47333   -1.32599
 17 Ir    0.11542    0.30928   -1.18680
 18 Ir   -0.00287   -0.01877    0.01299
 19 Pt   -0.00749   -0.01407    0.00077
 20 Pt   -0.00681    0.01832   -0.00193
 21 Ag    0.00958    0.00418    0.01042
 22 Ag   -0.01601   -0.01219   -0.00082
 23 Ag   -0.00113   -0.00512   -0.02330
 24 Pt   -0.00960   -0.02299    0.01105
 25 Ag   -0.00041   -0.00111    0.00080
 26 Ir   -0.00360   -0.01159    0.06589
 27 Ru   -0.01044    0.02158    0.02476
 28 Ir    0.01881   -0.02093    0.00879
 29 Ir   -0.00094    0.00098    0.04919
 30 Ir   -0.01668    0.02567   -0.01643
 31 Ir    0.01266    0.01588   -0.08729
 32 Pt   -0.00784    0.11591   -0.12897
 33 Ag    0.01573    0.02070    0.16398
 34 Ir    0.08647   -0.00349    0.01320
 35 Ru   -0.06396   -0.05099   -0.06863
 36 Ir   -0.09078    0.04075    0.02879
 37 Ir   -0.07256   -0.02692   -0.05467
 38 Pt    0.06097    0.08990   -0.07121
 39 Ag   -0.05391   -0.02371   -0.00008
 40 Ir    0.04779   -0.05627    0.05213
 41 Pt   -0.14195   -0.21109    0.03236
 42 Ir   -0.11346    0.04620    0.03008
 43 Ir    0.05550   -0.10647    0.04607
 44 Ag   -0.04455   -0.02455    0.09084
 45 O     0.16691   -0.15233   -0.18700

System changes: positions 

Initializing position-dependent things.

Density initialized from wave functions
                                             
                                             
                                             
                                             
                                             
                                             
                               Ag            
                  Ir    Ir                   
            Ag    AIr    OPt    Ru           
                                             
       Ir    IIr    IPt    Pt                
         Ru    Ir                            
                     PIr    Ag     Ir        
                Ag     Ag     Ag             
                                             
           Ir    PPt    RPt    Ir            
                                             
            Ir    IAg    AAg    Pt           
       Ag    IIr    IIr    Ir                
                                             
        Ag     Ag     Ir                     
                                             
                                             
                                             
                                             
                                             

Positions:
   0 Ag     0.000000    1.621936   10.000000    ( 0.0000,  0.0000,  0.0000)
   1 Ag     2.809275    1.621936   10.000000    ( 0.0000,  0.0000,  0.0000)
   2 Ir     5.618550    1.621936   10.000000    ( 0.0000,  0.0000,  0.0000)
   3 Ir     1.404638    4.054840   10.000000    ( 0.0000,  0.0000,  0.0000)
   4 Ir     4.213913    4.054840   10.000000    ( 0.0000,  0.0000,  0.0000)
   5 Ir     7.023188    4.054840   10.000000    ( 0.0000,  0.0000,  0.0000)
   6 Ir     2.809275    6.487743   10.000000    ( 0.0000,  0.0000,  0.0000)
   7 Ag     5.618550    6.487743   10.000000    ( 0.0000,  0.0000,  0.0000)
   8 Pt     8.427826    6.487743   10.000000    ( 0.0000,  0.0000,  0.0000)
   9 Ag     0.000000    0.000000   12.293764    ( 0.0000,  0.0000,  0.0000)
  10 Ir     2.809275    0.000000   12.293764    ( 0.0000,  0.0000,  0.0000)
  11 Ir     5.618550    0.000000   12.293764    ( 0.0000,  0.0000,  0.0000)
  12 Ir     1.404638    2.432904   12.293764    ( 0.0000,  0.0000,  0.0000)
  13 Ag     4.213913    2.432904   12.293764    ( 0.0000,  0.0000,  0.0000)
  14 Ag     7.023188    2.432904   12.293764    ( 0.0000,  0.0000,  0.0000)
  15 Pt     2.809275    4.865807   12.293764    ( 0.0000,  0.0000,  0.0000)
  16 Ru     5.618550    4.865807   12.293764    ( 0.0000,  0.0000,  0.0000)
  17 Ir     8.427826    4.865807   12.293764    ( 0.0000,  0.0000,  0.0000)
  18 Ir     1.434123    0.796878   14.619297    ( 0.0000,  0.0000,  0.0000)
  19 Pt     4.188249    0.722445   14.619861    ( 0.0000,  0.0000,  0.0000)
  20 Pt     7.033824    0.791454   14.650490    ( 0.0000,  0.0000,  0.0000)
  21 Ag     2.791596    3.267215   14.620267    ( 0.0000,  0.0000,  0.0000)
  22 Ag     5.618785    3.231360   14.632386    ( 0.0000,  0.0000,  0.0000)
  23 Ag     8.458664    3.245544   14.614704    ( 0.0000,  0.0000,  0.0000)
  24 Pt     4.238801    5.679851   14.613868    ( 0.0000,  0.0000,  0.0000)
  25 Ag     7.022725    5.619790   14.617937    ( 0.0000,  0.0000,  0.0000)
  26 Ir     9.817348    5.745644   14.554355    ( 0.0000,  0.0000,  0.0000)
  27 Ru     0.093412    1.651502   16.898156    ( 0.0000,  0.0000,  0.0000)
  28 Ir     2.749877    1.611430   16.881242    ( 0.0000,  0.0000,  0.0000)
  29 Ir     5.548234    1.593932   16.883320    ( 0.0000,  0.0000,  0.0000)
  30 Ir     1.347022    4.015517   17.017130    ( 0.0000,  0.0000,  0.0000)
  31 Ir     4.208661    3.993843   16.955040    ( 0.0000,  0.0000,  0.0000)
  32 Pt     7.108502    4.020696   17.030829    ( 0.0000,  0.0000,  0.0000)
  33 Ag     2.777566    6.487767   16.860898    ( 0.0000,  0.0000,  0.0000)
  34 Ir     5.639988    6.552192   16.890268    ( 0.0000,  0.0000,  0.0000)
  35 Ru     8.412314    6.481329   16.907886    ( 0.0000,  0.0000,  0.0000)
  36 Ir     0.054281   -0.040145   19.148608    ( 0.0000,  0.0000,  0.0000)
  37 Ir     2.766943   -0.029041   18.996364    ( 0.0000,  0.0000,  0.0000)
  38 Pt     5.527320   -0.087431   19.161184    ( 0.0000,  0.0000,  0.0000)
  39 Ag     1.426037    2.432515   19.548744    ( 0.0000,  0.0000,  0.0000)
  40 Ir     4.182833    2.421232   19.015197    ( 0.0000,  0.0000,  0.0000)
  41 Pt     6.965141    2.389253   19.190433    ( 0.0000,  0.0000,  0.0000)
  42 Ir     2.892890    4.817507   19.049652    ( 0.0000,  0.0000,  0.0000)
  43 Ir     5.510761    4.957339   19.041892    ( 0.0000,  0.0000,  0.0000)
  44 Ag     8.382688    4.853187   19.556224    ( 0.0000,  0.0000,  0.0000)
  45 O      7.141782    0.633524   20.439570    ( 0.0000,  0.0000,  0.0000)

Unit cell:
           periodic     x           y           z      points  spacing
  1. axis:    yes    8.445283    0.000000    0.000000    35     0.2090
  2. axis:    yes    4.222641    7.313829    0.000000    35     0.2090
  3. axis:    no     0.000000    0.000000   29.175054   135     0.2161

  Lengths:   8.445283   8.445283  29.175054
  Angles:   90.000000  90.000000  60.000000

Effective grid spacing dv^(1/3) = 0.2217

                     log10-error:    total        iterations:
           time      wfs    density  energy       fermi  poisson
iter:   1  22:26:21  -2.85   +inf  -265.701591    3             
iter:   2  22:27:23  -2.33  -2.28  -284.997671    3             
iter:   3  22:28:25  -2.60  -1.50  -265.197413    3             
iter:   4  22:29:28  -3.76  -2.73  -265.181840    3             
iter:   5  22:30:30  -4.73  -2.77  -265.143489    3             
iter:   6  22:31:32  -4.90  -2.99  -265.132749    2             
iter:   7  22:32:34  -5.08  -3.13  -265.124537    2             
iter:   8  22:33:37  -5.56  -3.41  -265.129479    2             
iter:   9  22:34:38  -5.37  -3.22  -265.123383    2             
iter:  10  22:35:41  -5.70  -3.31  -265.121558    2             
iter:  11  22:36:43  -5.66  -3.58  -265.121654    2             
iter:  12  22:37:45  -5.98  -3.63  -265.121211    2             
iter:  13  22:38:47  -6.47  -3.74  -265.121089    2             
iter:  14  22:39:49  -6.48  -3.75  -265.122249    2             
iter:  15  22:40:51  -6.84  -3.77  -265.121151    2             
iter:  16  22:41:53  -6.68  -3.88  -265.121360    2             
iter:  17  22:42:55  -6.95  -4.07  -265.121456    2             
iter:  18  22:43:58  -6.62  -4.12  -265.121496    2             
iter:  19  22:45:00  -7.26  -4.22  -265.121263    2             
iter:  20  22:46:02  -7.36  -4.40  -265.121613    2             
iter:  21  22:47:04  -7.57  -4.18  -265.121129    2             

Converged after 21 iterations.

Dipole moment: (19.807875, 17.268944, -0.048859) |e|*Ang

Energy contributions relative to reference atoms: (reference = -16429278.754816)

Kinetic:       -151.499553
Potential:      +94.487150
External:        +0.000000
XC:            -200.711608
Entropy (-ST):   -2.079282
Local:           -6.357476
--------------------------
Free energy:   -266.160770
Extrapolated:  -265.121129

Fermi level: 1.33038

Showing only first 2 kpts
 Kpt  Band  Eigenvalues  Occupancy
  0   357      1.31287    0.13592
  0   358      1.35606    0.10904
  0   359      1.38090    0.09408
  0   360      1.41630    0.07438

  1   357      1.20766    0.19333
  1   358      1.24589    0.17488
  1   359      1.27061    0.16129
  1   360      1.28657    0.15196



Forces in eV/Ang:
  0 Ag   -0.41547    0.15752   -1.05110
  1 Ag    0.24873    0.22926   -0.85933
  2 Ir    0.50189   -0.17189    0.03376
  3 Ir   -0.10580    1.23223    1.41142
  4 Ir    0.41506    0.41337    0.90057
  5 Ir   -0.32886   -0.00877    1.21697
  6 Ir   -1.72228   -0.51113    0.73529
  7 Ag   -0.12014   -0.34385   -0.95186
  8 Pt    1.06462   -0.39714    0.48278
  9 Ag    0.14286    0.01922    0.23167
 10 Ir   -0.00860   -0.45171    1.10078
 11 Ir   -0.66296   -0.82287   -0.47551
 12 Ir    0.41618    0.13191    0.19305
 13 Ag   -0.02414   -0.04124    0.19212
 14 Ag    0.05988    0.05999    0.17196
 15 Pt   -0.14176   -0.02099   -0.55608
 16 Ru    0.64835    0.48303   -1.30966
 17 Ir    0.11970    0.32498   -1.16767
 18 Ir   -0.01239    0.00127   -0.04613
 19 Pt    0.00105    0.00270   -0.02247
 20 Pt    0.00865    0.01619    0.01348
 21 Ag   -0.00701   -0.01093   -0.02098
 22 Ag   -0.02257   -0.01803   -0.01835
 23 Ag    0.02059   -0.03064   -0.04614
 24 Pt   -0.01135   -0.01697    0.01024
 25 Ag   -0.01481   -0.01119   -0.15138
 26 Ir   -0.01349   -0.00512    0.02580
 27 Ru   -0.00670    0.02149    0.03294
 28 Ir    0.02454    0.00097    0.03032
 29 Ir    0.00677    0.02688   -0.00338
 30 Ir   -0.02126    0.00049   -0.00816
 31 Ir   -0.02183   -0.01916    0.08960
 32 Pt   -0.01098   -0.01728    0.05170
 33 Ag    0.01783    0.02352    0.00284
 34 Ir    0.00706   -0.02240    0.01626
 35 Ru    0.00544    0.02240   -0.00942
 36 Ir    0.01145   -0.07229   -0.09424
 37 Ir    0.04277   -0.02923   -0.02586
 38 Pt   -0.02092   -0.09211   -0.01742
 39 Ag   -0.07566   -0.02939   -0.00622
 40 Ir   -0.03327    0.02857   -0.00420
 41 Pt   -0.00915   -0.07149   -0.03440
 42 Ir    0.06935    0.01532   -0.04156
 43 Ir   -0.08708   -0.08817   -0.05722
 44 Ag   -0.02948    0.02217    0.04860
 45 O    -0.06965    0.04714    0.10798

System changes: positions 

Initializing position-dependent things.

Density initialized from wave functions
                                             
                                             
                                             
                                             
                                             
                                             
                               Ag            
                  Ir    Ir                   
            Ag    AIr    OPt    Ru           
                                             
       Ir    IIr    IPt    Pt                
         Ru    Ir                            
                     PIr    Ag     Ir        
                Ag     Ag     Ag             
                                             
           Ir    PPt    RPt    Ir            
                                             
            Ir    IAg    AAg    Pt           
       Ag    IIr    IIr    Ir                
                                             
        Ag     Ag     Ir                     
                                             
                                             
                                             
                                             
                                             

Positions:
   0 Ag     0.000000    1.621936   10.000000    ( 0.0000,  0.0000,  0.0000)
   1 Ag     2.809275    1.621936   10.000000    ( 0.0000,  0.0000,  0.0000)
   2 Ir     5.618550    1.621936   10.000000    ( 0.0000,  0.0000,  0.0000)
   3 Ir     1.404638    4.054840   10.000000    ( 0.0000,  0.0000,  0.0000)
   4 Ir     4.213913    4.054840   10.000000    ( 0.0000,  0.0000,  0.0000)
   5 Ir     7.023188    4.054840   10.000000    ( 0.0000,  0.0000,  0.0000)
   6 Ir     2.809275    6.487743   10.000000    ( 0.0000,  0.0000,  0.0000)
   7 Ag     5.618550    6.487743   10.000000    ( 0.0000,  0.0000,  0.0000)
   8 Pt     8.427826    6.487743   10.000000    ( 0.0000,  0.0000,  0.0000)
   9 Ag     0.000000    0.000000   12.293764    ( 0.0000,  0.0000,  0.0000)
  10 Ir     2.809275    0.000000   12.293764    ( 0.0000,  0.0000,  0.0000)
  11 Ir     5.618550    0.000000   12.293764    ( 0.0000,  0.0000,  0.0000)
  12 Ir     1.404638    2.432904   12.293764    ( 0.0000,  0.0000,  0.0000)
  13 Ag     4.213913    2.432904   12.293764    ( 0.0000,  0.0000,  0.0000)
  14 Ag     7.023188    2.432904   12.293764    ( 0.0000,  0.0000,  0.0000)
  15 Pt     2.809275    4.865807   12.293764    ( 0.0000,  0.0000,  0.0000)
  16 Ru     5.618550    4.865807   12.293764    ( 0.0000,  0.0000,  0.0000)
  17 Ir     8.427826    4.865807   12.293764    ( 0.0000,  0.0000,  0.0000)
  18 Ir     1.433149    0.796544   14.615451    ( 0.0000,  0.0000,  0.0000)
  19 Pt     4.188248    0.722495   14.617953    ( 0.0000,  0.0000,  0.0000)
  20 Pt     7.034398    0.793336   14.651361    ( 0.0000,  0.0000,  0.0000)
  21 Ag     2.791215    3.266422   14.618660    ( 0.0000,  0.0000,  0.0000)
  22 Ag     5.616562    3.229616   14.630872    ( 0.0000,  0.0000,  0.0000)
  23 Ag     8.460384    3.242884   14.610344    ( 0.0000,  0.0000,  0.0000)
  24 Pt     4.237675    5.677916   14.614818    ( 0.0000,  0.0000,  0.0000)
  25 Ag     7.021476    5.618856   14.605255    ( 0.0000,  0.0000,  0.0000)
  26 Ir     9.816089    5.744983   14.557635    ( 0.0000,  0.0000,  0.0000)
  27 Ru     0.092617    1.653713   16.901636    ( 0.0000,  0.0000,  0.0000)
  28 Ir     2.752280    1.611339   16.883859    ( 0.0000,  0.0000,  0.0000)
  29 Ir     5.548758    1.596167   16.883984    ( 0.0000,  0.0000,  0.0000)
  30 Ir     1.345137    4.015994   17.016120    ( 0.0000,  0.0000,  0.0000)
  31 Ir     4.206945    3.992440   16.960536    ( 0.0000,  0.0000,  0.0000)
  32 Pt     7.107595    4.022234   17.031867    ( 0.0000,  0.0000,  0.0000)
  33 Ag     2.779074    6.489878   16.863720    ( 0.0000,  0.0000,  0.0000)
  34 Ir     5.642626    6.550388   16.891492    ( 0.0000,  0.0000,  0.0000)
  35 Ru     8.411396    6.482101   16.905247    ( 0.0000,  0.0000,  0.0000)
  36 Ir     0.052624   -0.044892   19.140516    ( 0.0000,  0.0000,  0.0000)
  37 Ir     2.768953   -0.031954   18.992930    ( 0.0000,  0.0000,  0.0000)
  38 Pt     5.528365   -0.092412   19.158574    ( 0.0000,  0.0000,  0.0000)
  39 Ag     1.418586    2.429530   19.548239    ( 0.0000,  0.0000,  0.0000)
  40 Ir     4.181524    2.422179   19.016020    ( 0.0000,  0.0000,  0.0000)
  41 Pt     6.961567    2.377555   19.188396    ( 0.0000,  0.0000,  0.0000)
  42 Ir     2.896380    4.820377   19.046731    ( 0.0000,  0.0000,  0.0000)
  43 Ir     5.505165    4.947732   19.038043    ( 0.0000,  0.0000,  0.0000)
  44 Ag     8.379650    4.854733   19.561866    ( 0.0000,  0.0000,  0.0000)
  45 O      7.138061    0.635530   20.447499    ( 0.0000,  0.0000,  0.0000)

Unit cell:
           periodic     x           y           z      points  spacing
  1. axis:    yes    8.445283    0.000000    0.000000    35     0.2090
  2. axis:    yes    4.222641    7.313829    0.000000    35     0.2090
  3. axis:    no     0.000000    0.000000   29.175054   135     0.2161

  Lengths:   8.445283   8.445283  29.175054
  Angles:   90.000000  90.000000  60.000000

Effective grid spacing dv^(1/3) = 0.2217

                     log10-error:    total        iterations:
           time      wfs    density  energy       fermi  poisson
iter:   1  22:48:34  -3.37   +inf  -265.450429    3             
iter:   2  22:49:37  -2.57  -2.42  -277.657514    3             
iter:   3  22:50:39  -2.86  -1.58  -265.143676    3             
iter:   4  22:51:41  -4.13  -3.05  -265.138379    3             
iter:   5  22:52:43  -5.09  -3.20  -265.131776    3             
iter:   6  22:53:45  -5.54  -3.39  -265.129907    3             
iter:   7  22:54:47  -5.66  -3.57  -265.129172    2             
iter:   8  22:55:49  -5.70  -3.70  -265.130608    2             
iter:   9  22:56:51  -6.17  -3.57  -265.128451    2             
iter:  10  22:57:53  -6.09  -3.55  -265.129054    2             
iter:  11  22:58:55  -6.31  -3.87  -265.128780    2             
iter:  12  22:59:57  -6.51  -3.95  -265.128791    2             
iter:  13  23:00:59  -6.87  -4.00  -265.128505    2             
iter:  14  23:02:02  -7.39  -4.17  -265.128635    2             
iter:  15  23:03:04  -6.97  -4.12  -265.127987    2             
iter:  16  23:04:06  -7.15  -3.86  -265.128341    2             
iter:  17  23:05:08  -7.19  -4.36  -265.128324    2             
iter:  18  23:06:10  -7.59  -4.44  -265.128350    2             

Converged after 18 iterations.

Dipole moment: (20.198180, 17.886644, -0.051993) |e|*Ang

Energy contributions relative to reference atoms: (reference = -16429278.754816)

Kinetic:       -150.872407
Potential:      +93.925473
External:        +0.000000
XC:            -200.783737
Entropy (-ST):   -2.075276
Local:           -6.360041
--------------------------
Free energy:   -266.165988
Extrapolated:  -265.128350

Fermi level: 1.32928

Showing only first 2 kpts
 Kpt  Band  Eigenvalues  Occupancy
  0   357      1.31042    0.13675
  0   358      1.35379    0.10976
  0   359      1.38030    0.09379
  0   360      1.41561    0.07416

  1   357      1.20590    0.19362
  1   358      1.24461    0.17497
  1   359      1.26862    0.16179
  1   360      1.28519    0.15212



Forces in eV/Ang:
  0 Ag   -0.41481    0.15662   -1.05265
  1 Ag    0.24861    0.22918   -0.86362
  2 Ir    0.50146   -0.16962    0.03444
  3 Ir   -0.10431    1.23265    1.40458
  4 Ir    0.41465    0.41052    0.89800
  5 Ir   -0.32899   -0.01193    1.21410
  6 Ir   -1.72094   -0.51029    0.73580
  7 Ag   -0.12061   -0.34160   -0.95475
  8 Pt    1.06469   -0.39599    0.47958
  9 Ag    0.13254    0.01479    0.23391
 10 Ir   -0.00505   -0.43889    1.07523
 11 Ir   -0.65434   -0.82600   -0.46411
 12 Ir    0.41717    0.13063    0.18129
 13 Ag   -0.02295   -0.04261    0.18389
 14 Ag    0.05501    0.05329    0.16486
 15 Pt   -0.14797   -0.01332   -0.54930
 16 Ru    0.62866    0.47204   -1.33376
 17 Ir    0.14133    0.31870   -1.19555
 18 Ir   -0.00680   -0.00190    0.01796
 19 Pt    0.00179    0.00470    0.00284
 20 Pt    0.00274   -0.01764    0.01454
 21 Ag   -0.00296   -0.01143    0.01136
 22 Ag   -0.00703   -0.00026    0.01062
 23 Ag   -0.00484   -0.00868    0.00718
 24 Pt   -0.01954    0.00634    0.02779
 25 Ag   -0.01253   -0.01092   -0.02773
 26 Ir    0.01025    0.00608    0.01547
 27 Ru    0.03156    0.00152   -0.01075
 28 Ir   -0.03628   -0.00832   -0.01413
 29 Ir   -0.00216    0.00273   -0.01846
 30 Ir   -0.00976   -0.00483    0.00512
 31 Ir   -0.03598   -0.02894   -0.09197
 32 Pt    0.01353   -0.03124    0.02515
 33 Ag    0.00084    0.01639   -0.07834
 34 Ir   -0.00479   -0.00784   -0.06056
 35 Ru    0.01343   -0.00045   -0.02616
 36 Ir   -0.04539    0.01599    0.08068
 37 Ir    0.01502   -0.01760    0.03295
 38 Pt   -0.00827   -0.06341    0.01989
 39 Ag   -0.03107   -0.00699   -0.02349
 40 Ir   -0.04467   -0.02942    0.03048
 41 Pt    0.03825   -0.00407   -0.03460
 42 Ir   -0.06774   -0.02522    0.03148
 43 Ir    0.03083   -0.01653    0.02908
 44 Ag   -0.04022   -0.02183    0.02050
 45 O     0.03773   -0.08203   -0.02461

System changes: positions 

Initializing position-dependent things.

Density initialized from wave functions
                                             
                                             
                                             
                                             
                                             
                                             
                               Ag            
                  Ir    Ir                   
            Ag    AIr    OPt    Ru           
                                             
       Ir    IIr    IPt    Pt                
         Ru    Ir                            
                     PIr    Ag     Ir        
                Ag     Ag     Ag             
                                             
           Ir    PPt    RPt    Ir            
                                             
            Ir    IAg    AAg    Pt           
       Ag    IIr    IIr    Ir                
                                             
        Ag     Ag     Ir                     
                                             
                                             
                                             
                                             
                                             

Positions:
   0 Ag     0.000000    1.621936   10.000000    ( 0.0000,  0.0000,  0.0000)
   1 Ag     2.809275    1.621936   10.000000    ( 0.0000,  0.0000,  0.0000)
   2 Ir     5.618550    1.621936   10.000000    ( 0.0000,  0.0000,  0.0000)
   3 Ir     1.404638    4.054840   10.000000    ( 0.0000,  0.0000,  0.0000)
   4 Ir     4.213913    4.054840   10.000000    ( 0.0000,  0.0000,  0.0000)
   5 Ir     7.023188    4.054840   10.000000    ( 0.0000,  0.0000,  0.0000)
   6 Ir     2.809275    6.487743   10.000000    ( 0.0000,  0.0000,  0.0000)
   7 Ag     5.618550    6.487743   10.000000    ( 0.0000,  0.0000,  0.0000)
   8 Pt     8.427826    6.487743   10.000000    ( 0.0000,  0.0000,  0.0000)
   9 Ag     0.000000    0.000000   12.293764    ( 0.0000,  0.0000,  0.0000)
  10 Ir     2.809275    0.000000   12.293764    ( 0.0000,  0.0000,  0.0000)
  11 Ir     5.618550    0.000000   12.293764    ( 0.0000,  0.0000,  0.0000)
  12 Ir     1.404638    2.432904   12.293764    ( 0.0000,  0.0000,  0.0000)
  13 Ag     4.213913    2.432904   12.293764    ( 0.0000,  0.0000,  0.0000)
  14 Ag     7.023188    2.432904   12.293764    ( 0.0000,  0.0000,  0.0000)
  15 Pt     2.809275    4.865807   12.293764    ( 0.0000,  0.0000,  0.0000)
  16 Ru     5.618550    4.865807   12.293764    ( 0.0000,  0.0000,  0.0000)
  17 Ir     8.427826    4.865807   12.293764    ( 0.0000,  0.0000,  0.0000)
  18 Ir     1.431922    0.796172   14.615299    ( 0.0000,  0.0000,  0.0000)
  19 Pt     4.188389    0.722845   14.617276    ( 0.0000,  0.0000,  0.0000)
  20 Pt     7.034865    0.792424   14.653540    ( 0.0000,  0.0000,  0.0000)
  21 Ag     2.790699    3.264878   14.618903    ( 0.0000,  0.0000,  0.0000)
  22 Ag     5.614780    3.228540   14.630940    ( 0.0000,  0.0000,  0.0000)
  23 Ag     8.460852    3.240701   14.608637    ( 0.0000,  0.0000,  0.0000)
  24 Pt     4.235204    5.677570   14.618110    ( 0.0000,  0.0000,  0.0000)
  25 Ag     7.019633    5.617337   14.596100    ( 0.0000,  0.0000,  0.0000)
  26 Ir     9.816511    5.745213   14.561295    ( 0.0000,  0.0000,  0.0000)
  27 Ru     0.095018    1.655156   16.902265    ( 0.0000,  0.0000,  0.0000)
  28 Ir     2.750442    1.610430   16.884021    ( 0.0000,  0.0000,  0.0000)
  29 Ir     5.548802    1.597634   16.882655    ( 0.0000,  0.0000,  0.0000)
  30 Ir     1.343096    4.015988   17.016051    ( 0.0000,  0.0000,  0.0000)
  31 Ir     4.202841    3.989288   16.956086    ( 0.0000,  0.0000,  0.0000)
  32 Pt     7.108124    4.020010   17.034901    ( 0.0000,  0.0000,  0.0000)
  33 Ag     2.780292    6.492820   16.858740    ( 0.0000,  0.0000,  0.0000)
  34 Ir     5.643421    6.548411   16.886799    ( 0.0000,  0.0000,  0.0000)
  35 Ru     8.412067    6.482320   16.901582    ( 0.0000,  0.0000,  0.0000)
  36 Ir     0.049787   -0.047123   19.143082    ( 0.0000,  0.0000,  0.0000)
  37 Ir     2.771283   -0.035161   18.994480    ( 0.0000,  0.0000,  0.0000)
  38 Pt     5.526437   -0.101413   19.158298    ( 0.0000,  0.0000,  0.0000)
  39 Ag     1.411761    2.427358   19.545829    ( 0.0000,  0.0000,  0.0000)
  40 Ir     4.176306    2.420527   19.018902    ( 0.0000,  0.0000,  0.0000)
  41 Pt     6.962627    2.372565   19.183678    ( 0.0000,  0.0000,  0.0000)
  42 Ir     2.892140    4.818689   19.047856    ( 0.0000,  0.0000,  0.0000)
  43 Ir     5.504162    4.941065   19.038599    ( 0.0000,  0.0000,  0.0000)
  44 Ag     8.373981    4.853271   19.567274    ( 0.0000,  0.0000,  0.0000)
  45 O      7.140037    0.627615   20.448715    ( 0.0000,  0.0000,  0.0000)

Unit cell:
           periodic     x           y           z      points  spacing
  1. axis:    yes    8.445283    0.000000    0.000000    35     0.2090
  2. axis:    yes    4.222641    7.313829    0.000000    35     0.2090
  3. axis:    no     0.000000    0.000000   29.175054   135     0.2161

  Lengths:   8.445283   8.445283  29.175054
  Angles:   90.000000  90.000000  60.000000

Effective grid spacing dv^(1/3) = 0.2217

                     log10-error:    total        iterations:
           time      wfs    density  energy       fermi  poisson
iter:   1  23:07:40  -3.44   +inf  -265.403728    3             
iter:   2  23:08:42  -2.66  -2.42  -274.584804    3             
iter:   3  23:09:44  -2.90  -1.67  -265.180856    3             
iter:   4  23:10:46  -4.19  -2.80  -265.140778    3             
iter:   5  23:11:48  -5.38  -3.23  -265.132632    3             
iter:   6  23:12:50  -5.87  -3.59  -265.132130    2             
iter:   7  23:13:52  -5.61  -3.67  -265.131424    2             
iter:   8  23:14:54  -5.81  -3.83  -265.133425    2             
iter:   9  23:15:55  -6.22  -3.59  -265.130968    2             
iter:  10  23:16:57  -6.57  -3.73  -265.131185    2             
iter:  11  23:17:59  -6.64  -4.10  -265.130981    2             
iter:  12  23:19:01  -7.15  -4.18  -265.131132    2             
iter:  13  23:20:03  -7.30  -4.26  -265.131045    2             
iter:  14  23:21:05  -7.43  -4.35  -265.131126    2             

Converged after 14 iterations.

Dipole moment: (20.885181, 18.415465, -0.054314) |e|*Ang

Energy contributions relative to reference atoms: (reference = -16429278.754816)

Kinetic:       -151.804567
Potential:      +94.734372
External:        +0.000000
XC:            -200.662105
Entropy (-ST):   -2.075146
Local:           -6.361253
--------------------------
Free energy:   -266.168699
Extrapolated:  -265.131126

Fermi level: 1.32824

Showing only first 2 kpts
 Kpt  Band  Eigenvalues  Occupancy
  0   357      1.30856    0.13726
  0   358      1.35184    0.11032
  0   359      1.37924    0.09380
  0   360      1.41414    0.07439

  1   357      1.20415    0.19393
  1   358      1.24379    0.17486
  1   359      1.26777    0.16168
  1   360      1.28486    0.15169



Forces in eV/Ang:
  0 Ag   -0.41391    0.15711   -1.05281
  1 Ag    0.24816    0.22890   -0.86320
  2 Ir    0.50173   -0.16824    0.03807
  3 Ir   -0.10387    1.23532    1.40661
  4 Ir    0.41499    0.40924    0.89966
  5 Ir   -0.32921   -0.01270    1.21715
  6 Ir   -1.72209   -0.51177    0.73914
  7 Ag   -0.12012   -0.34159   -0.95372
  8 Pt    1.06503   -0.39659    0.48305
  9 Ag    0.13111    0.01012    0.24121
 10 Ir   -0.00689   -0.42970    1.06758
 11 Ir   -0.65394   -0.83220   -0.45800
 12 Ir    0.42135    0.13153    0.18226
 13 Ag   -0.02424   -0.04079    0.18456
 14 Ag    0.05235    0.05050    0.17101
 15 Pt   -0.15180   -0.01378   -0.53674
 16 Ru    0.61317    0.46554   -1.34388
 17 Ir    0.15758    0.31437   -1.20086
 18 Ir    0.01090   -0.00761   -0.00926
 19 Pt   -0.00902   -0.00946   -0.00266
 20 Pt   -0.00609    0.02425   -0.03730
 21 Ag   -0.01430   -0.00856   -0.01497
 22 Ag    0.01504    0.00991   -0.00267
 23 Ag   -0.01958    0.01681    0.01735
 24 Pt    0.00723   -0.01476   -0.03423
 25 Ag    0.00923   -0.00580    0.05045
 26 Ir   -0.02198   -0.01495   -0.02443
 27 Ru    0.00741   -0.02856    0.00541
 28 Ir   -0.00231   -0.03144    0.02082
 29 Ir   -0.03608   -0.00665    0.03148
 30 Ir    0.00701    0.01612    0.00503
 31 Ir   -0.01443   -0.00315    0.05822
 32 Pt   -0.00653    0.01234   -0.02412
 33 Ag    0.00877   -0.01992    0.04601
 34 Ir    0.01295   -0.02248    0.06449
 35 Ru   -0.02244   -0.00875   -0.01130
 36 Ir    0.04544   -0.05896   -0.02424
 37 Ir   -0.05190   -0.02310   -0.03433
 38 Pt    0.00937    0.00968    0.01161
 39 Ag   -0.00408   -0.01138   -0.01224
 40 Ir    0.00032   -0.01344   -0.02802
 41 Pt   -0.01909   -0.04031    0.03119
 42 Ir    0.00089   -0.02504   -0.03415
 43 Ir   -0.04988    0.04256   -0.03274
 44 Ag   -0.02798   -0.03397    0.02644
 45 O     0.00264   -0.01929    0.00161

Timing:                                      incl.     excl.
-------------------------------------------------------------------
Density initialized from wave functions:    15.242    15.242   0.1% |
 Symmetrize density:                         0.000     0.000   0.0% |
Forces:                                    102.950   102.950   0.9% |
Hamiltonian:                                16.934     0.051   0.0% |
 Atomic:                                     4.982     2.585   0.0% |
  XC Correction:                             2.397     2.397   0.0% |
 Calculate atomic Hamiltonians:              4.732     4.732   0.0% |
 Communicate:                                0.105     0.105   0.0% |
 Initialize Hamiltonian:                     0.001     0.001   0.0% |
 Poisson:                                    0.033     0.033   0.0% |
 XC 3D grid:                                 7.030     7.030   0.1% |
LCAO initialization:                        51.498     3.027   0.0% |
 LCAO eigensolver:                           6.203     0.002   0.0% |
  Calculate projections:                     0.050     0.050   0.0% |
  DenseAtomicCorrection:                     0.053     0.053   0.0% |
  Distribute overlap matrix:                 0.249     0.249   0.0% |
  Orbital Layouts:                           0.405     0.405   0.0% |
  Potential matrix:                          5.403     5.403   0.0% |
  Sum over cells:                            0.041     0.041   0.0% |
 LCAO to grid:                              40.279    40.279   0.3% |
 Set positions (LCAO WFS):                   1.990     0.743   0.0% |
  Basic WFS set positions:                   0.002     0.002   0.0% |
  Basis functions set positions:             0.000     0.000   0.0% |
  P tci:                                     0.525     0.525   0.0% |
  ST tci:                                    0.534     0.534   0.0% |
  mktci:                                     0.185     0.185   0.0% |
PWDescriptor:                                0.033     0.033   0.0% |
Redistribute:                                0.028     0.028   0.0% |
SCF-cycle:                               11638.817    98.589   0.8% |
 Davidson:                               10613.552  2599.602  21.9% |--------|
  Apply H:                                1533.076  1488.353  12.5% |----|
   HMM T:                                   44.723    44.723   0.4% |
  Subspace diag:                          1522.452     0.044   0.0% |
   calc_h_matrix:                          836.718   326.663   2.7% ||
    Apply H:                               510.055   495.102   4.2% |-|
     HMM T:                                 14.953    14.953   0.1% |
   diagonalize:                             24.806    24.806   0.2% |
   rotate_psi:                             660.885   660.885   5.6% |-|
  calc. matrices:                         3251.772  2232.248  18.8% |-------|
   Apply H:                               1019.523   989.744   8.3% |--|
    HMM T:                                  29.780    29.780   0.3% |
  diagonalize:                             385.750   385.750   3.2% ||
  rotate_psi:                             1320.900  1320.900  11.1% |---|
 Density:                                  461.820     0.008   0.0% |
  Atomic density matrices:                   2.590     2.590   0.0% |
  Mix:                                     150.125   150.125   1.3% ||
  Multipole moments:                         0.229     0.229   0.0% |
  Pseudo density:                          308.868   308.860   2.6% ||
   Symmetrize density:                       0.008     0.008   0.0% |
 Hamiltonian:                              421.668     1.357   0.0% |
  Atomic:                                  114.261    52.609   0.4% |
   XC Correction:                           61.651    61.651   0.5% |
  Calculate atomic Hamiltonians:           121.815   121.815   1.0% |
  Communicate:                               2.100     2.100   0.0% |
  Poisson:                                   0.884     0.884   0.0% |
  XC 3D grid:                              181.250   181.250   1.5% ||
 Orthonormalize:                            43.189     0.002   0.0% |
  calc_s_matrix:                             6.301     6.301   0.1% |
  inverse-cholesky:                          0.487     0.487   0.0% |
  projections:                              23.470    23.470   0.2% |
  rotate_psi_s:                             12.928    12.928   0.1% |
Set symmetry:                                0.002     0.002   0.0% |
Other:                                      53.757    53.757   0.5% |
-------------------------------------------------------------------
Total:                                             11879.262 100.0%

Date: Thu Mar  3 23:21:21 2022
