
  ___ ___ ___ _ _ _  
 |   |   |_  | | | | 
 | | | | | . | | | | 
 |__ |  _|___|_____|  1.5.1
 |___|_|             

User:   clausen@node053.cluster
Date:   Thu Mar  3 14:34:08 2022
Arch:   x86_64
Pid:    55712
Python: 3.6.12
gpaw:   /software/kemi/gpaw/1.5.1/gpaw
_gpaw:  /software/kemi/gpaw/1.5.1/bin/gpaw-python
ase:    /software/kemi/ase/3.17.0/ase (version 3.17.0)
numpy:  /opt/rh/rh-python36/root/usr/lib64/python3.6/site-packages/numpy (version 1.13.1)
scipy:  /opt/rh/rh-python36/root/usr/lib64/python3.6/site-packages/scipy (version 0.19.1)
units:  Angstrom and eV
cores:  16

Input parameters:
  kpts: [4 4 1]
  mode: {ecut: 400.0,
         gammacentered: False,
         name: pw}
  xc: RPBE

System changes: positions, numbers, cell, pbc, initial_charges, initial_magmoms 

Initialize ...

Pd-setup:
  name: Palladium
  id: 6da19bfba079f22767af9506641940b9
  Z: 46
  valence: 16
  core: 30
  charge: 0.0
  file: /software/kemi/gpaw-setups/0.9.20000/Pd.RPBE.gz
  cutoffs: 1.19(comp), 2.38(filt), 2.28(core), lmax=2
  valence states:
                energy  radius
    5s(0.00)    -3.225   1.228
    4p(6.00)   -51.131   1.360
    5p(0.00)    -0.373   1.360
    4d(10.00)    -3.964   1.228
    *s          23.987   1.228
    *d          23.247   1.228

  Using partial waves for Pd as LCAO basis

Ir-setup:
  name: Iridium
  id: 73b603359d1d5397a85ae3c2440f9033
  Z: 77
  valence: 15
  core: 62
  charge: 0.0
  file: /software/kemi/gpaw-setups/0.9.20000/Ir.RPBE.gz
  cutoffs: 1.26(comp), 2.40(filt), 2.36(core), lmax=2
  valence states:
                energy  radius
    6s(2.00)    -6.219   1.296
    5p(6.00)   -54.684   1.328
    6p(0.00)    -1.215   1.328
    5d(7.00)    -7.118   1.286
    *s          20.992   1.296
    *d          20.093   1.286

  Using partial waves for Ir as LCAO basis

Ru-setup:
  name: Ruthenium
  id: 76477906e28f51dc1b29884d53556fe9
  Z: 44
  valence: 16
  core: 28
  charge: 0.0
  file: /software/kemi/gpaw-setups/0.9.20000/Ru.RPBE.gz
  cutoffs: 1.23(comp), 2.16(filt), 1.30(core), lmax=2
  valence states:
                energy  radius
    4s(2.00)   -76.255   1.281
    5s(1.00)    -4.126   1.281
    4p(6.00)   -46.371   1.286
    5p(0.00)    -0.913   1.286
    4d(7.00)    -5.146   1.254
    *d          22.066   1.254

  Using partial waves for Ru as LCAO basis

Pt-setup:
  name: Platinum
  id: f04f522592575c47ad794f6b4a415b4b
  Z: 78
  valence: 16
  core: 62
  charge: 0.0
  file: /software/kemi/gpaw-setups/0.9.20000/Pt.RPBE.gz
  cutoffs: 1.29(comp), 2.26(filt), 2.26(core), lmax=2
  valence states:
                energy  radius
    6s(1.00)    -5.516   1.307
    5p(6.00)   -55.971   1.371
    6p(0.00)    -0.856   1.371
    5d(9.00)    -6.087   1.307
    *s          21.695   1.307
    *d          21.125   1.307

  Using partial waves for Pt as LCAO basis

Ag-setup:
  name: Silver
  id: c05e55bab2c3858b3f9398f6d75cb77c
  Z: 47
  valence: 17
  core: 30
  charge: 0.0
  file: /software/kemi/gpaw-setups/0.9.20000/Ag.RPBE.gz
  cutoffs: 1.25(comp), 2.35(filt), 2.19(core), lmax=2
  valence states:
                energy  radius
    5s(1.00)    -4.277   1.286
    4p(6.00)   -58.523   1.328
    5p(0.00)    -0.755   1.328
    4d(10.00)    -7.386   1.180
    *s          22.934   1.286
    *d          19.826   1.180

  Using partial waves for Ag as LCAO basis

O-setup:
  name: Oxygen
  id: 08071ca1eed670e7821b24b7eb4d558c
  Z: 8
  valence: 6
  core: 2
  charge: 0.0
  file: /software/kemi/gpaw-setups/0.9.20000/O.RPBE.gz
  cutoffs: 0.67(comp), 1.17(filt), 0.83(core), lmax=2
  valence states:
                energy  radius
    2s(2.00)   -24.041   0.688
    2p(4.00)    -8.984   0.598
    *s           3.170   0.688
    *p          18.228   0.598
    *d           0.000   0.619

  Using partial waves for O as LCAO basis

Reference energy: -12877847.605335

Spin-paired calculation

Occupation numbers:
  Fermi-Dirac: width=0.1000 eV

Convergence criteria:
  Maximum total energy change: 0.0005 eV / electron
  Maximum integral of absolute density change: 0.0001 electrons
  Maximum integral of absolute eigenstate change: 4e-08 eV^2
  Maximum number of iterations: 333

Symmetries present (total): 1

  ( 1  0  0)
  ( 0  1  0)
  ( 0  0  1)

16 k-points: 4 x 4 x 1 Monkhorst-Pack grid
8 k-points in the irreducible part of the Brillouin zone
       k-points in crystal coordinates                weights
   0:     0.12500000   -0.37500000    0.00000000          2/16
   1:     0.12500000   -0.12500000    0.00000000          2/16
   2:     0.12500000    0.12500000    0.00000000          2/16
   3:     0.12500000    0.37500000    0.00000000          2/16
   4:     0.37500000   -0.37500000    0.00000000          2/16
   5:     0.37500000   -0.12500000    0.00000000          2/16
   6:     0.37500000    0.12500000    0.00000000          2/16
   7:     0.37500000    0.37500000    0.00000000          2/16

Wave functions: Plane wave expansion
  Cutoff energy: 400.000 eV
  Number of coefficients (min, max): 32894, 32940
  Pulay-stress correction: 0.000000 eV/Ang^3 (de/decut=0.000000)
  Using FFTW library
  ScaLapack parameters: grid=1x1, blocksize=None
  Wavefunction extrapolation:
    Improved wavefunction reuse through dual PAW basis 

Eigensolver
   Davidson(niter=2, smin=None, normalize=True) 

Densities:
  Coarse grid: 35*35*135 grid
  Fine grid: 70*70*270 grid
  Total Charge: 0.000000 

Density mixing:
  Method: separate
  Backend: pulay
  Linear mixing parameter: 0.05
  Mixing with 5 old densities
  Damping of long wave oscillations: 50 

Hamiltonian:
  XC and Coulomb potentials evaluated on a 70*70*270 grid
  Using the RPBE Exchange-Correlation functional
 

XC parameters: RPBE with 2 nearest neighbor stencil

Memory estimate:
  Process memory now: 155.09 MiB
  Calculator: 549.89 MiB
    Density: 51.27 MiB
      Arrays: 16.41 MiB
      Localized functions: 28.50 MiB
      Mixer: 6.36 MiB
    Hamiltonian: 11.63 MiB
      Arrays: 10.73 MiB
      XC: 0.00 MiB
      Poisson: 0.00 MiB
      vbar: 0.90 MiB
    Wavefunctions: 487.00 MiB
      Arrays psit_nG: 220.15 MiB
      Eigensolver: 251.95 MiB
      Projections: 2.75 MiB
      Projectors: 5.53 MiB
      PW-descriptor: 6.62 MiB

Total number of cores used: 16
Parallelization over k-points: 8
Domain decomposition: 1 x 1 x 2

Number of atoms: 46
Number of atomic orbitals: 550
Number of bands in calculation: 438
Bands to converge: occupied states only
Number of valence electrons: 723

... initialized

Initializing position-dependent things.

Density initialized from atomic densities
Creating initial wave functions:
  438 bands from LCAO basis set

                                             
                                             
                                             
                                             
                                             
                                             
                  Ag    O                    
                         Ir    Ir            
            Pd      Pd     Ir                
                   Ru     Pd     Ir          
        Ir    Pt    PAg    Pd                
                                             
        Ir     Pd    IAg    Ir     Pt        
                Ag     Ru     Pd             
                                             
           Pt     Ag    PPd    Ir            
                                             
            Pt     Pt    PPt    Ru           
       Ag     Ag     Ag                      
              Ru    Ir     Pt                
         Pd    Ir     Ru                     
                                             
                                             
                                             
                                             
                                             

Positions:
   0 Pd     0.000000    1.624086   10.000000    ( 0.0000,  0.0000,  0.0000)
   1 Ir     2.812999    1.624086   10.000000    ( 0.0000,  0.0000,  0.0000)
   2 Ru     5.625998    1.624086   10.000000    ( 0.0000,  0.0000,  0.0000)
   3 Ru     1.406500    4.060215   10.000000    ( 0.0000,  0.0000,  0.0000)
   4 Ir     4.219499    4.060215   10.000000    ( 0.0000,  0.0000,  0.0000)
   5 Pt     7.032498    4.060215   10.000000    ( 0.0000,  0.0000,  0.0000)
   6 Pd     2.812999    6.496343   10.000000    ( 0.0000,  0.0000,  0.0000)
   7 Pd     5.625998    6.496343   10.000000    ( 0.0000,  0.0000,  0.0000)
   8 Ru     8.438997    6.496343   10.000000    ( 0.0000,  0.0000,  0.0000)
   9 Ag     0.000000    0.000000   12.296804    ( 0.0000,  0.0000,  0.0000)
  10 Ag     2.812999    0.000000   12.296804    ( 0.0000,  0.0000,  0.0000)
  11 Ag     5.625998    0.000000   12.296804    ( 0.0000,  0.0000,  0.0000)
  12 Pt     1.406500    2.436129   12.296804    ( 0.0000,  0.0000,  0.0000)
  13 Pt     4.219499    2.436129   12.296804    ( 0.0000,  0.0000,  0.0000)
  14 Pt     7.032498    2.436129   12.296804    ( 0.0000,  0.0000,  0.0000)
  15 Ru     2.812999    4.872257   12.296804    ( 0.0000,  0.0000,  0.0000)
  16 Pt     5.625998    4.872257   12.296804    ( 0.0000,  0.0000,  0.0000)
  17 Ir     8.438997    4.872257   12.296804    ( 0.0000,  0.0000,  0.0000)
  18 Pt     1.331112    0.739375   14.657283    ( 0.0000,  0.0000,  0.0000)
  19 Ag     4.181622    0.793852   14.645499    ( 0.0000,  0.0000,  0.0000)
  20 Pd     7.001587    0.862206   14.620346    ( 0.0000,  0.0000,  0.0000)
  21 Ag     2.800841    3.198617   14.645984    ( 0.0000,  0.0000,  0.0000)
  22 Ru     5.661352    3.374873   14.464570    ( 0.0000,  0.0000,  0.0000)
  23 Pd     8.454364    3.209063   14.568969    ( 0.0000,  0.0000,  0.0000)
  24 Ir     4.203312    5.613553   14.568997    ( 0.0000,  0.0000,  0.0000)
  25 Ir     7.031881    5.578044   14.561300    ( 0.0000,  0.0000,  0.0000)
  26 Pt     9.857688    5.665883   14.596939    ( 0.0000,  0.0000,  0.0000)
  27 Ir    -0.077764    1.506761   16.938800    ( 0.0000,  0.0000,  0.0000)
  28 Pd     2.746751    1.593087   16.991368    ( 0.0000,  0.0000,  0.0000)
  29 Ag     5.532334    1.594992   16.918159    ( 0.0000,  0.0000,  0.0000)
  30 Pd     1.401555    4.031321   16.973309    ( 0.0000,  0.0000,  0.0000)
  31 Pd     4.186062    4.107308   16.892321    ( 0.0000,  0.0000,  0.0000)
  32 Pd     7.007491    3.969527   16.736476    ( 0.0000,  0.0000,  0.0000)
  33 Ru     2.845276    6.541012   16.753610    ( 0.0000,  0.0000,  0.0000)
  34 Pd     5.662228    6.450069   16.794393    ( 0.0000,  0.0000,  0.0000)
  35 Ir     8.552515    6.378355   16.920371    ( 0.0000,  0.0000,  0.0000)
  36 Ir     0.061963   -0.029589   18.981657    ( 0.0000,  0.0000,  0.0000)
  37 Pt     2.802470   -0.097062   19.141410    ( 0.0000,  0.0000,  0.0000)
  38 Ag     5.661265    0.013033   19.406409    ( 0.0000,  0.0000,  0.0000)
  39 Pd     1.350042    2.376862   19.278970    ( 0.0000,  0.0000,  0.0000)
  40 Pd     4.315258    2.518491   19.256067    ( 0.0000,  0.0000,  0.0000)
  41 Ir     7.173708    2.513849   19.018418    ( 0.0000,  0.0000,  0.0000)
  42 Ag     2.809713    4.893314   19.379442    ( 0.0000,  0.0000,  0.0000)
  43 Ir     5.700233    4.913916   19.039342    ( 0.0000,  0.0000,  0.0000)
  44 Ir     8.278779    4.849064   19.000358    ( 0.0000,  0.0000,  0.0000)
  45 O      5.729733    3.315419   20.706409    ( 0.0000,  0.0000,  0.0000)

Unit cell:
           periodic     x           y           z      points  spacing
  1. axis:    yes    8.465341    0.000000    0.000000    35     0.2095
  2. axis:    yes    4.232670    7.331200    0.000000    35     0.2095
  3. axis:    no     0.000000    0.000000   29.187217   135     0.2162

  Lengths:   8.465341   8.465341  29.187217
  Angles:   90.000000  90.000000  60.000000

Effective grid spacing dv^(1/3) = 0.2221

                     log10-error:    total        iterations:
           time      wfs    density  energy       fermi  poisson
iter:   1  14:36:13  +0.32   +inf  -321.382959    3             
iter:   2  14:37:14  -0.55  -1.16  -407.658161    37            
iter:   3  14:38:14  -0.66  -1.07  -338.046252    35            
iter:   4  14:39:14  -1.31  -1.16  -266.355156    37            
iter:   5  14:40:13  -1.77  -1.35  -245.638015    36            
iter:   6  14:41:13  -2.06  -1.46  -241.981117    3             
iter:   7  14:42:13  -2.18  -1.51  -239.522497    3             
iter:   8  14:43:13  -2.18  -1.58  -236.950857    3             
iter:   9  14:44:13  -1.77  -1.72  -241.622367    3             
iter:  10  14:45:13  -2.29  -1.69  -237.536764    3             
iter:  11  14:46:13  -2.99  -1.89  -235.433968    3             
iter:  12  14:47:12  -3.46  -2.11  -235.294192    3             
iter:  13  14:48:11  -3.55  -2.17  -235.296110    3             
iter:  14  14:49:11  -3.40  -2.22  -235.245522    2             
iter:  15  14:50:05  -3.67  -2.33  -235.179762    3             
iter:  16  14:50:58  -3.67  -2.40  -235.184132    3             
iter:  17  14:51:54  -3.58  -2.43  -235.366392    3             
iter:  18  14:52:49  -3.89  -2.31  -235.049748    2             
iter:  19  14:53:43  -4.06  -2.64  -235.023187    2             
iter:  20  14:54:38  -4.20  -2.73  -235.021544    2             
iter:  21  14:55:31  -4.47  -2.71  -235.001229    2             
iter:  22  14:56:27  -4.36  -2.81  -234.992333    2             
iter:  23  14:57:22  -4.81  -2.86  -235.016004    2             
iter:  24  14:58:20  -4.64  -2.75  -234.986362    2             
iter:  25  14:59:16  -4.78  -2.96  -234.988803    2             
iter:  26  15:00:12  -4.91  -2.98  -234.986109    2             
iter:  27  15:01:13  -5.16  -3.03  -234.985892    2             
iter:  28  15:02:15  -5.59  -3.11  -234.985497    2             
iter:  29  15:03:16  -5.12  -3.11  -234.998821    2             
iter:  30  15:04:18  -5.31  -2.98  -234.982212    2             
iter:  31  15:05:20  -5.62  -3.28  -234.983615    2             
iter:  32  15:06:21  -5.89  -3.26  -234.980920    2             
iter:  33  15:07:24  -6.12  -3.35  -234.981059    2             
iter:  34  15:08:25  -5.92  -3.38  -234.980517    2             
iter:  35  15:09:27  -5.51  -3.40  -234.983159    2             
iter:  36  15:10:28  -5.93  -3.35  -234.979591    2             
iter:  37  15:11:30  -6.15  -3.55  -234.980111    2             
iter:  38  15:12:31  -6.41  -3.51  -234.979241    2             
iter:  39  15:13:32  -6.32  -3.61  -234.979434    2             
iter:  40  15:14:34  -6.45  -3.64  -234.979225    2             
iter:  41  15:15:36  -6.36  -3.67  -234.979653    2             
iter:  42  15:16:37  -6.77  -3.66  -234.979061    2             
iter:  43  15:17:39  -6.57  -3.76  -234.979392    2             
iter:  44  15:18:41  -6.48  -3.70  -234.978815    2             
iter:  45  15:19:43  -6.79  -3.79  -234.978953    2             
iter:  46  15:20:44  -7.20  -3.87  -234.978773    2             
iter:  47  15:21:46  -6.87  -3.94  -234.978901    2             
iter:  48  15:22:48  -6.85  -3.92  -234.978569    2             
iter:  49  15:23:50  -6.84  -4.07  -234.978758    2             
iter:  50  15:24:52  -7.04  -3.97  -234.978522    2             
iter:  51  15:25:54  -7.66  -4.14  -234.978656    2             

Converged after 51 iterations.

Dipole moment: (24.096205, 16.210937, -0.240139) |e|*Ang

Energy contributions relative to reference atoms: (reference = -12877847.605335)

Kinetic:       -240.324838
Potential:     +114.493627
External:        +0.000000
XC:            -101.260115
Entropy (-ST):   -2.219507
Local:           -6.777575
--------------------------
Free energy:   -236.088409
Extrapolated:  -234.978656

Fermi level: 0.94115

Showing only first 2 kpts
 Kpt  Band  Eigenvalues  Occupancy
  0   359      0.92914    0.13250
  0   360      0.95020    0.11934
  0   361      0.98186    0.09990
  0   362      0.99041    0.09482

  1   359      0.83670    0.18493
  1   360      0.86626    0.16973
  1   361      0.88596    0.15864
  1   362      0.91119    0.14359



Forces in eV/Ang:
  0 Pd   -0.11961    0.32206   -0.34816
  1 Ir    0.95206    0.68044    0.59958
  2 Ru   -1.07496    0.28482    0.68351
  3 Ru    0.42615    0.27936    1.62260
  4 Ir   -0.56710   -0.78311    1.16360
  5 Pt    0.15275    0.16150    0.05210
  6 Pd   -0.49960   -0.41734   -0.25239
  7 Pd    0.38201   -0.26716   -0.57583
  8 Ru    0.34551   -0.15442    0.54986
  9 Ag   -0.24478   -0.09728    0.05570
 10 Ag   -0.02179   -0.10109    0.03740
 11 Ag    0.08191   -0.16593   -0.13667
 12 Pt    0.07314    0.80008   -0.56693
 13 Pt    0.12796    0.56286   -0.71507
 14 Pt   -0.10903    0.18994   -0.18324
 15 Ru   -0.38334   -0.72694   -0.95714
 16 Pt   -0.41286    0.17949   -0.11879
 17 Ir    0.91456   -0.09838   -1.04554
 18 Pt    0.08721    0.02053   -0.26561
 19 Ag   -0.02301   -0.04105    0.03533
 20 Pd    0.01738   -0.02893    0.04059
 21 Ag    0.00013   -0.02588    0.00205
 22 Ru    0.00985   -0.03042   -0.00056
 23 Pd   -0.04260   -0.04824    0.04830
 24 Ir    0.00771    0.02810    0.00153
 25 Ir   -0.03838   -0.00512    0.06646
 26 Pt    0.00704   -0.00374   -0.00842
 27 Ir   -0.06556   -0.04632    0.11169
 28 Pd    0.08850    0.00274    0.08948
 29 Ag   -0.02303   -0.02228   -0.08931
 30 Pd   -0.00850   -0.01348   -0.00560
 31 Pd   -0.00287    0.03360   -0.17978
 32 Pd    0.07910   -0.02413   -0.08283
 33 Ru   -0.00938   -0.05832    0.01745
 34 Pd    0.06760   -0.14581    0.21829
 35 Ir   -0.02198   -0.05959    0.07254
 36 Ir    0.05892   -0.16285   -0.11432
 37 Pt    0.00437   -0.09619   -0.14951
 38 Ag    0.02680   -0.11168   -0.03066
 39 Pd   -0.07219   -0.04718   -0.12232
 40 Pd   -0.14344   -0.15744    0.54285
 41 Ir   -0.53973    0.19608    1.28067
 42 Ag   -0.16807    0.02448   -0.04293
 43 Ir   -0.26423   -0.51867    1.68171
 44 Ir    0.47094    0.20232   -0.15323
 45 O     0.54383    0.53511   -2.70162

System changes: positions 

Initializing position-dependent things.

Density initialized from wave functions
                                             
                                             
                                             
                                             
                                             
                                             
                  Ag    O                    
                         Ir    Ir            
            Pd     RPd    PIr    Ir          
                     Ag                      
        Ir    Pt    Pd     Pd                
               Pd                            
        Ir           IAg    Ir     Pt        
                Ag     Ru     Pd             
                                             
           Pt     Ag    PPd    Ir            
                                             
            Pt     Pt    PPt    Ru           
       Ag     Ag    IAg    Pt                
                                             
         Pd    Ir     Ru                     
                                             
                                             
                                             
                                             
                                             

Positions:
   0 Pd     0.000000    1.624086   10.000000    ( 0.0000,  0.0000,  0.0000)
   1 Ir     2.812999    1.624086   10.000000    ( 0.0000,  0.0000,  0.0000)
   2 Ru     5.625998    1.624086   10.000000    ( 0.0000,  0.0000,  0.0000)
   3 Ru     1.406500    4.060215   10.000000    ( 0.0000,  0.0000,  0.0000)
   4 Ir     4.219499    4.060215   10.000000    ( 0.0000,  0.0000,  0.0000)
   5 Pt     7.032498    4.060215   10.000000    ( 0.0000,  0.0000,  0.0000)
   6 Pd     2.812999    6.496343   10.000000    ( 0.0000,  0.0000,  0.0000)
   7 Pd     5.625998    6.496343   10.000000    ( 0.0000,  0.0000,  0.0000)
   8 Ru     8.438997    6.496343   10.000000    ( 0.0000,  0.0000,  0.0000)
   9 Ag     0.000000    0.000000   12.296804    ( 0.0000,  0.0000,  0.0000)
  10 Ag     2.812999    0.000000   12.296804    ( 0.0000,  0.0000,  0.0000)
  11 Ag     5.625998    0.000000   12.296804    ( 0.0000,  0.0000,  0.0000)
  12 Pt     1.406500    2.436129   12.296804    ( 0.0000,  0.0000,  0.0000)
  13 Pt     4.219499    2.436129   12.296804    ( 0.0000,  0.0000,  0.0000)
  14 Pt     7.032498    2.436129   12.296804    ( 0.0000,  0.0000,  0.0000)
  15 Ru     2.812999    4.872257   12.296804    ( 0.0000,  0.0000,  0.0000)
  16 Pt     5.625998    4.872257   12.296804    ( 0.0000,  0.0000,  0.0000)
  17 Ir     8.438997    4.872257   12.296804    ( 0.0000,  0.0000,  0.0000)
  18 Pt     1.337325    0.740837   14.638361    ( 0.0000,  0.0000,  0.0000)
  19 Ag     4.179983    0.790927   14.648016    ( 0.0000,  0.0000,  0.0000)
  20 Pd     7.002825    0.860145   14.623238    ( 0.0000,  0.0000,  0.0000)
  21 Ag     2.800850    3.196773   14.646130    ( 0.0000,  0.0000,  0.0000)
  22 Ru     5.662054    3.372706   14.464530    ( 0.0000,  0.0000,  0.0000)
  23 Pd     8.451329    3.205626   14.572409    ( 0.0000,  0.0000,  0.0000)
  24 Ir     4.203862    5.615555   14.569106    ( 0.0000,  0.0000,  0.0000)
  25 Ir     7.029147    5.577679   14.566035    ( 0.0000,  0.0000,  0.0000)
  26 Pt     9.858190    5.665616   14.596339    ( 0.0000,  0.0000,  0.0000)
  27 Ir    -0.082435    1.503461   16.946757    ( 0.0000,  0.0000,  0.0000)
  28 Pd     2.753056    1.593282   16.997743    ( 0.0000,  0.0000,  0.0000)
  29 Ag     5.530693    1.593405   16.911796    ( 0.0000,  0.0000,  0.0000)
  30 Pd     1.400950    4.030361   16.972911    ( 0.0000,  0.0000,  0.0000)
  31 Pd     4.185858    4.109702   16.879512    ( 0.0000,  0.0000,  0.0000)
  32 Pd     7.013126    3.967808   16.730575    ( 0.0000,  0.0000,  0.0000)
  33 Ru     2.844607    6.536858   16.754853    ( 0.0000,  0.0000,  0.0000)
  34 Pd     5.667044    6.439680   16.809945    ( 0.0000,  0.0000,  0.0000)
  35 Ir     8.550949    6.374110   16.925539    ( 0.0000,  0.0000,  0.0000)
  36 Ir     0.066161   -0.041191   18.973513    ( 0.0000,  0.0000,  0.0000)
  37 Pt     2.802781   -0.103914   19.130759    ( 0.0000,  0.0000,  0.0000)
  38 Ag     5.663174    0.005076   19.404226    ( 0.0000,  0.0000,  0.0000)
  39 Pd     1.344899    2.373500   19.270256    ( 0.0000,  0.0000,  0.0000)
  40 Pd     4.305039    2.507275   19.294741    ( 0.0000,  0.0000,  0.0000)
  41 Ir     7.135256    2.527818   19.109658    ( 0.0000,  0.0000,  0.0000)
  42 Ag     2.797739    4.895059   19.376384    ( 0.0000,  0.0000,  0.0000)
  43 Ir     5.681408    4.876964   19.159153    ( 0.0000,  0.0000,  0.0000)
  44 Ir     8.312331    4.863478   18.989442    ( 0.0000,  0.0000,  0.0000)
  45 O      5.768477    3.353542   20.513937    ( 0.0000,  0.0000,  0.0000)

Unit cell:
           periodic     x           y           z      points  spacing
  1. axis:    yes    8.465341    0.000000    0.000000    35     0.2095
  2. axis:    yes    4.232670    7.331200    0.000000    35     0.2095
  3. axis:    no     0.000000    0.000000   29.187217   135     0.2162

  Lengths:   8.465341   8.465341  29.187217
  Angles:   90.000000  90.000000  60.000000

Effective grid spacing dv^(1/3) = 0.2221

                     log10-error:    total        iterations:
           time      wfs    density  energy       fermi  poisson
iter:   1  15:27:22  -1.78   +inf  -242.551553    36            
iter:   2  15:28:24  -1.36  -1.85  -288.593695    35            
iter:   3  15:29:26  -1.42  -1.40  -276.895612    36            
iter:   4  15:30:28  -2.25  -1.46  -237.198851    37            
iter:   5  15:31:30  -3.09  -2.13  -236.873158    3             
iter:   6  15:32:31  -3.31  -2.18  -236.245053    3             
iter:   7  15:33:33  -3.51  -2.34  -235.980788    2             
iter:   8  15:34:35  -3.75  -2.52  -235.811220    3             
iter:   9  15:35:37  -4.02  -2.75  -235.765473    2             
iter:  10  15:36:39  -4.16  -2.87  -235.864683    2             
iter:  11  15:37:40  -3.83  -2.54  -235.746391    2             
iter:  12  15:38:42  -4.20  -2.84  -235.758367    3             
iter:  13  15:39:44  -4.21  -2.81  -235.714418    3             
iter:  14  15:40:46  -5.06  -3.10  -235.708827    2             
iter:  15  15:41:48  -5.56  -3.31  -235.707064    2             
iter:  16  15:42:56  -5.65  -3.39  -235.709198    2             
iter:  17  15:43:56  -5.37  -3.25  -235.707630    2             
iter:  18  15:44:52  -5.76  -3.30  -235.706794    2             
iter:  19  15:45:48  -5.51  -3.49  -235.705185    2             
iter:  20  15:46:49  -5.82  -3.53  -235.705501    2             
iter:  21  15:47:49  -5.62  -3.61  -235.705535    2             
iter:  22  15:48:51  -5.99  -3.57  -235.704811    2             
iter:  23  15:49:52  -6.50  -3.80  -235.704766    2             
iter:  24  15:50:54  -6.11  -3.84  -235.705713    2             
iter:  25  15:51:55  -6.67  -3.78  -235.704605    2             
iter:  26  15:52:57  -6.70  -4.09  -235.704866    2             
iter:  27  15:53:59  -7.24  -4.21  -235.704735    2             
iter:  28  15:55:01  -7.04  -4.35  -235.704830    2             
iter:  29  15:56:02  -7.23  -4.11  -235.704771    2             
iter:  30  15:57:01  -7.47  -4.54  -235.704752    2             

Converged after 30 iterations.

Dipole moment: (24.794481, 17.040271, -0.092784) |e|*Ang

Energy contributions relative to reference atoms: (reference = -12877847.605335)

Kinetic:       -229.449971
Potential:     +104.371378
External:        +0.000000
XC:            -102.648946
Entropy (-ST):   -2.201222
Local:           -6.876602
--------------------------
Free energy:   -236.805363
Extrapolated:  -235.704752

Fermi level: 1.01711

Showing only first 2 kpts
 Kpt  Band  Eigenvalues  Occupancy
  0   359      0.99265    0.14021
  0   360      1.02137    0.12234
  0   361      1.04865    0.10545
  0   362      1.07167    0.09172

  1   359      0.91757    0.18254
  1   360      0.94261    0.16952
  1   361      0.96133    0.15898
  1   362      0.98512    0.14482



Forces in eV/Ang:
  0 Pd   -0.12254    0.31975   -0.35947
  1 Ir    0.95537    0.68291    0.59571
  2 Ru   -1.07385    0.29029    0.68282
  3 Ru    0.42520    0.26915    1.63761
  4 Ir   -0.56544   -0.79054    1.16500
  5 Pt    0.15173    0.15632    0.05284
  6 Pd   -0.49990   -0.41470   -0.24338
  7 Pd    0.38622   -0.26202   -0.57387
  8 Ru    0.33523   -0.15489    0.56528
  9 Ag   -0.27301   -0.10714    0.02573
 10 Ag    0.00242   -0.11812    0.02648
 11 Ag    0.08267   -0.16500   -0.12860
 12 Pt    0.07481    0.80650   -0.56223
 13 Pt    0.12778    0.56071   -0.71080
 14 Pt   -0.10937    0.18317   -0.17417
 15 Ru   -0.38845   -0.71771   -0.95708
 16 Pt   -0.41176    0.17710   -0.10267
 17 Ir    0.91406   -0.08987   -1.03024
 18 Pt    0.04868   -0.03454   -0.02529
 19 Ag   -0.00611   -0.04093    0.00540
 20 Pd    0.02312   -0.02808    0.02130
 21 Ag   -0.01096   -0.01761   -0.01351
 22 Ru    0.00283   -0.01534    0.01988
 23 Pd   -0.00043   -0.02675    0.03165
 24 Ir    0.02590    0.02139    0.01995
 25 Ir   -0.02545   -0.03064    0.01035
 26 Pt   -0.01177   -0.02642   -0.02108
 27 Ir   -0.13668   -0.02555    0.18860
 28 Pd   -0.01217   -0.01125   -0.00431
 29 Ag    0.07956    0.06613    0.11366
 30 Pd    0.00741   -0.09327   -0.08076
 31 Pd    0.09721    0.03386    0.02292
 32 Pd    0.03912   -0.07379    0.22253
 33 Ru    0.05859    0.01559   -0.01240
 34 Pd    0.00155   -0.12827    0.10935
 35 Ir   -0.00016    0.00018   -0.06341
 36 Ir    0.00060   -0.13307    0.12477
 37 Pt   -0.11003   -0.25810   -0.05967
 38 Ag    0.04269   -0.07716   -0.03253
 39 Pd   -0.26296   -0.06521   -0.15664
 40 Pd   -0.82698   -0.59669   -0.22632
 41 Ir    0.24817   -0.04940    0.26977
 42 Ag   -0.15783   -0.00188   -0.06204
 43 Ir    0.03754    0.53224    0.39356
 44 Ir    0.11805    0.01290    0.00151
 45 O     0.77683    0.44830   -0.70073

System changes: positions 

Initializing position-dependent things.

Density initialized from wave functions
                                             
                                             
                                             
                                             
                                             
                                             
                 Ag     OIr                  
                               Ir            
            Pd     Pd     PIr    Ir          
                     Ag                      
        Ir    Pt    Pd     Pd                
        Ir     Pd     Ag                     
                     Ir     Ir     Pt        
                Ag      Ru    Pd             
                                             
           Pt     Ag    PPd    Ir            
                                             
             Pt    Pt    PPt    Ru           
        Ag    Ag    IAg    Pt                
                                             
         Pd    Ir     Ru                     
                                             
                                             
                                             
                                             
                                             

Positions:
   0 Pd     0.000000    1.624086   10.000000    ( 0.0000,  0.0000,  0.0000)
   1 Ir     2.812999    1.624086   10.000000    ( 0.0000,  0.0000,  0.0000)
   2 Ru     5.625998    1.624086   10.000000    ( 0.0000,  0.0000,  0.0000)
   3 Ru     1.406500    4.060215   10.000000    ( 0.0000,  0.0000,  0.0000)
   4 Ir     4.219499    4.060215   10.000000    ( 0.0000,  0.0000,  0.0000)
   5 Pt     7.032498    4.060215   10.000000    ( 0.0000,  0.0000,  0.0000)
   6 Pd     2.812999    6.496343   10.000000    ( 0.0000,  0.0000,  0.0000)
   7 Pd     5.625998    6.496343   10.000000    ( 0.0000,  0.0000,  0.0000)
   8 Ru     8.438997    6.496343   10.000000    ( 0.0000,  0.0000,  0.0000)
   9 Ag     0.000000    0.000000   12.296804    ( 0.0000,  0.0000,  0.0000)
  10 Ag     2.812999    0.000000   12.296804    ( 0.0000,  0.0000,  0.0000)
  11 Ag     5.625998    0.000000   12.296804    ( 0.0000,  0.0000,  0.0000)
  12 Pt     1.406500    2.436129   12.296804    ( 0.0000,  0.0000,  0.0000)
  13 Pt     4.219499    2.436129   12.296804    ( 0.0000,  0.0000,  0.0000)
  14 Pt     7.032498    2.436129   12.296804    ( 0.0000,  0.0000,  0.0000)
  15 Ru     2.812999    4.872257   12.296804    ( 0.0000,  0.0000,  0.0000)
  16 Pt     5.625998    4.872257   12.296804    ( 0.0000,  0.0000,  0.0000)
  17 Ir     8.438997    4.872257   12.296804    ( 0.0000,  0.0000,  0.0000)
  18 Pt     1.345529    0.736854   14.629184    ( 0.0000,  0.0000,  0.0000)
  19 Ag     4.178684    0.784748   14.649498    ( 0.0000,  0.0000,  0.0000)
  20 Pd     7.006186    0.855889   14.626882    ( 0.0000,  0.0000,  0.0000)
  21 Ag     2.799443    3.193931   14.644438    ( 0.0000,  0.0000,  0.0000)
  22 Ru     5.662638    3.370054   14.467073    ( 0.0000,  0.0000,  0.0000)
  23 Pd     8.450324    3.201111   14.577557    ( 0.0000,  0.0000,  0.0000)
  24 Ir     4.207365    5.618932   14.571706    ( 0.0000,  0.0000,  0.0000)
  25 Ir     7.025018    5.573625   14.568848    ( 0.0000,  0.0000,  0.0000)
  26 Pt     9.856834    5.662136   14.593441    ( 0.0000,  0.0000,  0.0000)
  27 Ir    -0.101472    1.499143   16.973500    ( 0.0000,  0.0000,  0.0000)
  28 Pd     2.753465    1.591896   16.999185    ( 0.0000,  0.0000,  0.0000)
  29 Ag     5.540410    1.601411   16.924419    ( 0.0000,  0.0000,  0.0000)
  30 Pd     1.401713    4.018067   16.962402    ( 0.0000,  0.0000,  0.0000)
  31 Pd     4.198294    4.114805   16.878449    ( 0.0000,  0.0000,  0.0000)
  32 Pd     7.019920    3.957781   16.757342    ( 0.0000,  0.0000,  0.0000)
  33 Ru     2.851932    6.537562   16.753648    ( 0.0000,  0.0000,  0.0000)
  34 Pd     5.668751    6.419934   16.828874    ( 0.0000,  0.0000,  0.0000)
  35 Ir     8.550438    6.372804   16.919003    ( 0.0000,  0.0000,  0.0000)
  36 Ir     0.067551   -0.061934   18.987006    ( 0.0000,  0.0000,  0.0000)
  37 Pt     2.788730   -0.139248   19.119751    ( 0.0000,  0.0000,  0.0000)
  38 Ag     5.669261   -0.007337   19.399359    ( 0.0000,  0.0000,  0.0000)
  39 Pd     1.309476    2.364062   19.247385    ( 0.0000,  0.0000,  0.0000)
  40 Pd     4.195501    2.427037   19.277748    ( 0.0000,  0.0000,  0.0000)
  41 Ir     7.155128    2.525840   19.172913    ( 0.0000,  0.0000,  0.0000)
  42 Ag     2.773695    4.895363   19.367449    ( 0.0000,  0.0000,  0.0000)
  43 Ir     5.680341    4.933835   19.247271    ( 0.0000,  0.0000,  0.0000)
  44 Ir     8.338015    4.869650   18.986219    ( 0.0000,  0.0000,  0.0000)
  45 O      5.880497    3.423123   20.363571    ( 0.0000,  0.0000,  0.0000)

Unit cell:
           periodic     x           y           z      points  spacing
  1. axis:    yes    8.465341    0.000000    0.000000    35     0.2095
  2. axis:    yes    4.232670    7.331200    0.000000    35     0.2095
  3. axis:    no     0.000000    0.000000   29.187217   135     0.2162

  Lengths:   8.465341   8.465341  29.187217
  Angles:   90.000000  90.000000  60.000000

Effective grid spacing dv^(1/3) = 0.2221

                     log10-error:    total        iterations:
           time      wfs    density  energy       fermi  poisson
iter:   1  15:58:23  -1.64   +inf  -252.870661    35            
iter:   2  15:59:18  -0.18  -1.56  -567.319066    38            
iter:   3  16:00:19  -1.03  -0.95  -255.344015    38            
iter:   4  16:01:19  -1.82  -1.61  -237.590182    37            
iter:   5  16:02:19  -2.71  -2.15  -236.708898    3             
iter:   6  16:03:19  -3.38  -2.25  -236.316825    3             
iter:   7  16:04:18  -3.47  -2.45  -236.110548    3             
iter:   8  16:05:18  -3.20  -2.49  -236.673396    3             
iter:   9  16:06:18  -3.94  -2.20  -235.912932    2             
iter:  10  16:07:17  -4.05  -2.69  -235.865021    3             
iter:  11  16:08:18  -4.34  -2.85  -235.848186    3             
iter:  12  16:09:18  -4.10  -2.91  -235.837759    3             
iter:  13  16:10:18  -4.31  -3.01  -235.828845    3             
iter:  14  16:11:19  -4.75  -3.13  -235.826843    3             
iter:  15  16:12:18  -4.94  -3.19  -235.821491    3             
iter:  16  16:13:19  -4.98  -3.32  -235.830344    2             
iter:  17  16:14:17  -5.45  -3.08  -235.821679    2             
iter:  18  16:15:17  -5.34  -3.36  -235.820208    2             
iter:  19  16:16:17  -5.69  -3.42  -235.819375    2             
iter:  20  16:17:16  -6.06  -3.65  -235.819596    2             
iter:  21  16:18:17  -6.04  -3.73  -235.819326    1             
iter:  22  16:19:17  -6.11  -3.64  -235.821408    2             
iter:  23  16:20:16  -6.09  -3.52  -235.820068    2             
iter:  24  16:21:16  -6.49  -3.62  -235.819400    2             
iter:  25  16:22:16  -6.53  -3.79  -235.819575    2             
iter:  26  16:23:15  -6.50  -3.78  -235.819690    2             
iter:  27  16:24:15  -6.46  -3.78  -235.819597    2             
iter:  28  16:25:15  -5.99  -3.76  -235.823019    2             
iter:  29  16:26:16  -6.22  -3.50  -235.819763    2             
iter:  30  16:27:16  -6.98  -3.91  -235.819488    2             
iter:  31  16:28:16  -7.44  -4.00  -235.819546    2             

Converged after 31 iterations.

Dipole moment: (27.937687, 19.377889, -0.002494) |e|*Ang

Energy contributions relative to reference atoms: (reference = -12877847.605335)

Kinetic:       -218.901017
Potential:      +95.465613
External:        +0.000000
XC:            -104.316380
Entropy (-ST):   -2.198283
Local:           -6.968621
--------------------------
Free energy:   -236.918687
Extrapolated:  -235.819546

Fermi level: 1.06126

Showing only first 2 kpts
 Kpt  Band  Eigenvalues  Occupancy
  0   359      1.03525    0.14117
  0   360      1.06254    0.12420
  0   361      1.09479    0.10424
  0   362      1.11791    0.09051

  1   359      0.96547    0.18068
  1   360      0.98989    0.16781
  1   361      1.00160    0.16122
  1   362      1.03405    0.14190



Forces in eV/Ang:
  0 Pd   -0.12293    0.31777   -0.35627
  1 Ir    0.94994    0.68452    0.61287
  2 Ru   -1.07054    0.29508    0.69536
  3 Ru    0.41813    0.27030    1.64236
  4 Ir   -0.55693   -0.78826    1.16535
  5 Pt    0.15119    0.15750    0.05371
  6 Pd   -0.49603   -0.41344   -0.23959
  7 Pd    0.38672   -0.26019   -0.57042
  8 Ru    0.32926   -0.16312    0.57703
  9 Ag   -0.28132   -0.11070    0.01905
 10 Ag    0.00881   -0.13298    0.02153
 11 Ag    0.08675   -0.16002   -0.11710
 12 Pt    0.06920    0.78469   -0.55189
 13 Pt    0.12929    0.55270   -0.69075
 14 Pt   -0.10531    0.17916   -0.14700
 15 Ru   -0.38780   -0.71334   -0.95246
 16 Pt   -0.42084    0.15848   -0.07843
 17 Ir    0.91183   -0.08900   -1.00680
 18 Pt   -0.01544   -0.06322    0.22588
 19 Ag    0.05124    0.00345    0.03687
 20 Pd    0.00804   -0.00170    0.03015
 21 Ag    0.03413   -0.00077    0.00070
 22 Ru    0.02746   -0.00282    0.05604
 23 Pd   -0.02446   -0.01984    0.04965
 24 Ir    0.02466   -0.01513    0.01912
 25 Ir    0.00299   -0.06562    0.05327
 26 Pt    0.00773   -0.01350    0.00821
 27 Ir    0.02498   -0.11362   -0.09664
 28 Pd   -0.10338   -0.12498   -0.16533
 29 Ag   -0.00730    0.02557    0.13409
 30 Pd    0.02096   -0.03843   -0.10220
 31 Pd    0.01717   -0.07349    0.13711
 32 Pd    0.05624   -0.00539    0.04713
 33 Ru   -0.01221   -0.03184   -0.04669
 34 Pd   -0.04692    0.08465   -0.13993
 35 Ir    0.04947   -0.02529   -0.09033
 36 Ir   -0.07727   -0.04400    0.20713
 37 Pt    0.11979    0.11068    0.05915
 38 Ag   -0.00496    0.01509   -0.00845
 39 Pd   -0.05440   -0.03885   -0.02071
 40 Pd   -0.21752   -0.10705   -0.03379
 41 Ir    0.62958   -0.49196   -0.51014
 42 Ag   -0.02722   -0.13763   -0.05245
 43 Ir   -0.28158    1.27660   -1.05484
 44 Ir    0.10374   -0.02476    0.09307
 45 O    -0.49019   -0.81567    1.13722

System changes: positions 

Initializing position-dependent things.

Density initialized from wave functions
                                             
                                             
                                             
                                             
                                             
                                             
                 Ag     OIr                  
                               Ir            
            Pd     Pd     PIr    Ir          
                     Ag                      
        Ir    Pt    Pd     Pd                
        Ir     Pd     Ag                     
                     Ir     Ir     Pt        
                Ag      Ru    Pd             
                                             
           Pt     Ag    PPd    Ir            
                                             
             Pt    Pt    PPt    Ru           
        Ag    Ag    IAg    Pt                
                                             
         Pd    Ir     Ru                     
                                             
                                             
                                             
                                             
                                             

Positions:
   0 Pd     0.000000    1.624086   10.000000    ( 0.0000,  0.0000,  0.0000)
   1 Ir     2.812999    1.624086   10.000000    ( 0.0000,  0.0000,  0.0000)
   2 Ru     5.625998    1.624086   10.000000    ( 0.0000,  0.0000,  0.0000)
   3 Ru     1.406500    4.060215   10.000000    ( 0.0000,  0.0000,  0.0000)
   4 Ir     4.219499    4.060215   10.000000    ( 0.0000,  0.0000,  0.0000)
   5 Pt     7.032498    4.060215   10.000000    ( 0.0000,  0.0000,  0.0000)
   6 Pd     2.812999    6.496343   10.000000    ( 0.0000,  0.0000,  0.0000)
   7 Pd     5.625998    6.496343   10.000000    ( 0.0000,  0.0000,  0.0000)
   8 Ru     8.438997    6.496343   10.000000    ( 0.0000,  0.0000,  0.0000)
   9 Ag     0.000000    0.000000   12.296804    ( 0.0000,  0.0000,  0.0000)
  10 Ag     2.812999    0.000000   12.296804    ( 0.0000,  0.0000,  0.0000)
  11 Ag     5.625998    0.000000   12.296804    ( 0.0000,  0.0000,  0.0000)
  12 Pt     1.406500    2.436129   12.296804    ( 0.0000,  0.0000,  0.0000)
  13 Pt     4.219499    2.436129   12.296804    ( 0.0000,  0.0000,  0.0000)
  14 Pt     7.032498    2.436129   12.296804    ( 0.0000,  0.0000,  0.0000)
  15 Ru     2.812999    4.872257   12.296804    ( 0.0000,  0.0000,  0.0000)
  16 Pt     5.625998    4.872257   12.296804    ( 0.0000,  0.0000,  0.0000)
  17 Ir     8.438997    4.872257   12.296804    ( 0.0000,  0.0000,  0.0000)
  18 Pt     1.342568    0.738291   14.632496    ( 0.0000,  0.0000,  0.0000)
  19 Ag     4.179153    0.786978   14.648963    ( 0.0000,  0.0000,  0.0000)
  20 Pd     7.004973    0.857425   14.625567    ( 0.0000,  0.0000,  0.0000)
  21 Ag     2.799951    3.194957   14.645049    ( 0.0000,  0.0000,  0.0000)
  22 Ru     5.662427    3.371011   14.466155    ( 0.0000,  0.0000,  0.0000)
  23 Pd     8.450687    3.202740   14.575699    ( 0.0000,  0.0000,  0.0000)
  24 Ir     4.206100    5.617713   14.570767    ( 0.0000,  0.0000,  0.0000)
  25 Ir     7.026508    5.575088   14.567833    ( 0.0000,  0.0000,  0.0000)
  26 Pt     9.857323    5.663392   14.594487    ( 0.0000,  0.0000,  0.0000)
  27 Ir    -0.094601    1.500701   16.963849    ( 0.0000,  0.0000,  0.0000)
  28 Pd     2.753317    1.592397   16.998665    ( 0.0000,  0.0000,  0.0000)
  29 Ag     5.536903    1.598522   16.919864    ( 0.0000,  0.0000,  0.0000)
  30 Pd     1.401437    4.022504   16.966194    ( 0.0000,  0.0000,  0.0000)
  31 Pd     4.193805    4.112964   16.878833    ( 0.0000,  0.0000,  0.0000)
  32 Pd     7.017468    3.961400   16.747682    ( 0.0000,  0.0000,  0.0000)
  33 Ru     2.849289    6.537308   16.754083    ( 0.0000,  0.0000,  0.0000)
  34 Pd     5.668135    6.427061   16.822043    ( 0.0000,  0.0000,  0.0000)
  35 Ir     8.550622    6.373276   16.921362    ( 0.0000,  0.0000,  0.0000)
  36 Ir     0.067049   -0.054448   18.982136    ( 0.0000,  0.0000,  0.0000)
  37 Pt     2.793801   -0.126496   19.123724    ( 0.0000,  0.0000,  0.0000)
  38 Ag     5.667064   -0.002857   19.401115    ( 0.0000,  0.0000,  0.0000)
  39 Pd     1.322260    2.367468   19.255639    ( 0.0000,  0.0000,  0.0000)
  40 Pd     4.235034    2.455996   19.283881    ( 0.0000,  0.0000,  0.0000)
  41 Ir     7.147956    2.526554   19.150084    ( 0.0000,  0.0000,  0.0000)
  42 Ag     2.782372    4.895253   19.370674    ( 0.0000,  0.0000,  0.0000)
  43 Ir     5.680726    4.913310   19.215468    ( 0.0000,  0.0000,  0.0000)
  44 Ir     8.328745    4.867422   18.987382    ( 0.0000,  0.0000,  0.0000)
  45 O      5.840068    3.398010   20.417840    ( 0.0000,  0.0000,  0.0000)

Unit cell:
           periodic     x           y           z      points  spacing
  1. axis:    yes    8.465341    0.000000    0.000000    35     0.2095
  2. axis:    yes    4.232670    7.331200    0.000000    35     0.2095
  3. axis:    no     0.000000    0.000000   29.187217   135     0.2162

  Lengths:   8.465341   8.465341  29.187217
  Angles:   90.000000  90.000000  60.000000

Effective grid spacing dv^(1/3) = 0.2221

                     log10-error:    total        iterations:
           time      wfs    density  energy       fermi  poisson
iter:   1  16:29:42  -2.20   +inf  -243.665840    3             
iter:   2  16:30:41  -1.01  -1.76  -425.728621    37            
iter:   3  16:31:40  -1.46  -1.12  -240.877324    38            
iter:   4  16:32:41  -2.33  -1.85  -236.254186    3             
iter:   5  16:33:41  -3.44  -2.41  -235.967406    3             
iter:   6  16:34:41  -4.15  -2.71  -235.913145    3             
iter:   7  16:35:34  -4.31  -2.85  -235.887096    2             
iter:   8  16:36:30  -4.64  -3.02  -235.880593    3             
iter:   9  16:37:25  -4.89  -3.07  -235.882991    3             
iter:  10  16:38:20  -4.70  -3.08  -235.869874    2             
iter:  11  16:39:13  -4.76  -3.35  -235.871127    2             
iter:  12  16:40:05  -5.18  -3.23  -235.867135    2             
iter:  13  16:41:04  -5.54  -3.45  -235.869932    2             
iter:  14  16:41:57  -5.85  -3.29  -235.866241    2             
iter:  15  16:42:50  -6.33  -3.74  -235.866496    2             
iter:  16  16:43:43  -6.35  -3.59  -235.866181    2             
iter:  17  16:44:36  -6.57  -3.88  -235.866134    2             
iter:  18  16:45:31  -6.03  -3.74  -235.865733    2             
iter:  19  16:46:32  -6.45  -4.00  -235.866519    2             
iter:  20  16:47:34  -6.75  -3.91  -235.865989    2             
iter:  21  16:48:36  -7.04  -4.03  -235.865854    2             
iter:  22  16:49:38  -7.15  -4.19  -235.866056    2             
iter:  23  16:50:40  -7.28  -4.08  -235.865833    2             
iter:  24  16:51:41  -7.43  -4.43  -235.865819    2             

Converged after 24 iterations.

Dipole moment: (26.819208, 18.552216, -0.039653) |e|*Ang

Energy contributions relative to reference atoms: (reference = -12877847.605335)

Kinetic:       -224.425388
Potential:     +100.077485
External:        +0.000000
XC:            -103.499079
Entropy (-ST):   -2.199092
Local:           -6.919292
--------------------------
Free energy:   -236.965365
Extrapolated:  -235.865819

Fermi level: 1.04145

Showing only first 2 kpts
 Kpt  Band  Eigenvalues  Occupancy
  0   359      1.01391    0.14210
  0   360      1.04365    0.12362
  0   361      1.07281    0.10556
  0   362      1.09780    0.09069

  1   359      0.94582    0.18060
  1   360      0.97034    0.16767
  1   361      0.98215    0.16102
  1   362      1.01217    0.14317



Forces in eV/Ang:
  0 Pd   -0.12320    0.31784   -0.36706
  1 Ir    0.95370    0.68512    0.59339
  2 Ru   -1.07255    0.29308    0.67868
  3 Ru    0.42245    0.26970    1.63557
  4 Ir   -0.56331   -0.78990    1.15655
  5 Pt    0.15168    0.15573    0.04472
  6 Pd   -0.49464   -0.41313   -0.24948
  7 Pd    0.38527   -0.25979   -0.57974
  8 Ru    0.33206   -0.16027    0.56304
  9 Ag   -0.27817   -0.10944    0.01696
 10 Ag    0.00561   -0.12894    0.02029
 11 Ag    0.08610   -0.16210   -0.12496
 12 Pt    0.07115    0.79468   -0.56313
 13 Pt    0.12959    0.55853   -0.70278
 14 Pt   -0.10704    0.18227   -0.16122
 15 Ru   -0.38542   -0.71545   -0.95822
 16 Pt   -0.41671    0.16315   -0.09104
 17 Ir    0.90958   -0.09053   -1.01821
 18 Pt    0.00449   -0.04328    0.13760
 19 Ag    0.03043   -0.01252    0.02374
 20 Pd    0.01620   -0.00931    0.02567
 21 Ag    0.01621   -0.00664   -0.00320
 22 Ru    0.01674   -0.00751    0.03715
 23 Pd   -0.01247   -0.02664    0.04302
 24 Ir    0.02037   -0.00521    0.01759
 25 Ir   -0.00490   -0.05253    0.02962
 26 Pt    0.00262   -0.01630   -0.00086
 27 Ir   -0.04242   -0.08077   -0.01456
 28 Pd   -0.05792   -0.07402   -0.09833
 29 Ag    0.02697    0.04350    0.12251
 30 Pd    0.01770   -0.05634   -0.10094
 31 Pd    0.05790   -0.02569    0.09932
 32 Pd    0.03278   -0.02975    0.09889
 33 Ru    0.01649   -0.01223   -0.04358
 34 Pd   -0.03616    0.00172   -0.06782
 35 Ir    0.03892   -0.01626   -0.09227
 36 Ir   -0.06574   -0.08991    0.19640
 37 Pt    0.04039   -0.00724    0.02942
 38 Ag    0.01555   -0.01317   -0.01229
 39 Pd   -0.10303   -0.04819   -0.06651
 40 Pd   -0.34841   -0.20519   -0.07406
 41 Ir    0.35413   -0.25859   -0.14633
 42 Ag   -0.06514   -0.09159   -0.05301
 43 Ir   -0.17120    0.81265   -0.45088
 44 Ir    0.12814   -0.00653    0.03240
 45 O    -0.02120   -0.36028    0.17399

System changes: positions 

Initializing position-dependent things.

Density initialized from wave functions
                                             
                                             
                                             
                                             
                                             
                                             
                 Ag     OIr                  
                               Ir            
            Pd     Pd     PIr    Ir          
                     Ag                      
        Ir    Pt    Pd     Pd                
        Ir     Pd     Ag                     
                     Ir     Ir     Pt        
                Ag      Ru    Pd             
                                             
           Pt     Ag    PPd    Ir            
                                             
             Pt    Pt    PPt    Ru           
        Ag    Ag    IAg    Pt                
                                             
         Pd    Ir     Ru                     
                                             
                                             
                                             
                                             
                                             

Positions:
   0 Pd     0.000000    1.624086   10.000000    ( 0.0000,  0.0000,  0.0000)
   1 Ir     2.812999    1.624086   10.000000    ( 0.0000,  0.0000,  0.0000)
   2 Ru     5.625998    1.624086   10.000000    ( 0.0000,  0.0000,  0.0000)
   3 Ru     1.406500    4.060215   10.000000    ( 0.0000,  0.0000,  0.0000)
   4 Ir     4.219499    4.060215   10.000000    ( 0.0000,  0.0000,  0.0000)
   5 Pt     7.032498    4.060215   10.000000    ( 0.0000,  0.0000,  0.0000)
   6 Pd     2.812999    6.496343   10.000000    ( 0.0000,  0.0000,  0.0000)
   7 Pd     5.625998    6.496343   10.000000    ( 0.0000,  0.0000,  0.0000)
   8 Ru     8.438997    6.496343   10.000000    ( 0.0000,  0.0000,  0.0000)
   9 Ag     0.000000    0.000000   12.296804    ( 0.0000,  0.0000,  0.0000)
  10 Ag     2.812999    0.000000   12.296804    ( 0.0000,  0.0000,  0.0000)
  11 Ag     5.625998    0.000000   12.296804    ( 0.0000,  0.0000,  0.0000)
  12 Pt     1.406500    2.436129   12.296804    ( 0.0000,  0.0000,  0.0000)
  13 Pt     4.219499    2.436129   12.296804    ( 0.0000,  0.0000,  0.0000)
  14 Pt     7.032498    2.436129   12.296804    ( 0.0000,  0.0000,  0.0000)
  15 Ru     2.812999    4.872257   12.296804    ( 0.0000,  0.0000,  0.0000)
  16 Pt     5.625998    4.872257   12.296804    ( 0.0000,  0.0000,  0.0000)
  17 Ir     8.438997    4.872257   12.296804    ( 0.0000,  0.0000,  0.0000)
  18 Pt     1.345113    0.733731   14.642013    ( 0.0000,  0.0000,  0.0000)
  19 Ag     4.181903    0.784497   14.652179    ( 0.0000,  0.0000,  0.0000)
  20 Pd     7.007237    0.855633   14.629240    ( 0.0000,  0.0000,  0.0000)
  21 Ag     2.801565    3.193607   14.644613    ( 0.0000,  0.0000,  0.0000)
  22 Ru     5.664410    3.369508   14.470284    ( 0.0000,  0.0000,  0.0000)
  23 Pd     8.448584    3.198771   14.581456    ( 0.0000,  0.0000,  0.0000)
  24 Ir     4.208659    5.617884   14.572859    ( 0.0000,  0.0000,  0.0000)
  25 Ir     7.025038    5.569118   14.572288    ( 0.0000,  0.0000,  0.0000)
  26 Pt     9.857613    5.661333   14.594034    ( 0.0000,  0.0000,  0.0000)
  27 Ir    -0.101647    1.491035   16.966200    ( 0.0000,  0.0000,  0.0000)
  28 Pd     2.748661    1.584481   16.989817    ( 0.0000,  0.0000,  0.0000)
  29 Ag     5.540133    1.603386   16.932362    ( 0.0000,  0.0000,  0.0000)
  30 Pd     1.403234    4.015358   16.954583    ( 0.0000,  0.0000,  0.0000)
  31 Pd     4.200858    4.111184   16.886327    ( 0.0000,  0.0000,  0.0000)
  32 Pd     7.022774    3.957075   16.758868    ( 0.0000,  0.0000,  0.0000)
  33 Ru     2.851447    6.535103   16.749654    ( 0.0000,  0.0000,  0.0000)
  34 Pd     5.665544    6.423321   16.819900    ( 0.0000,  0.0000,  0.0000)
  35 Ir     8.554350    6.370467   16.912264    ( 0.0000,  0.0000,  0.0000)
  36 Ir     0.061152   -0.068268   19.002130    ( 0.0000,  0.0000,  0.0000)
  37 Pt     2.797079   -0.131567   19.123534    ( 0.0000,  0.0000,  0.0000)
  38 Ag     5.669625   -0.007050   19.398932    ( 0.0000,  0.0000,  0.0000)
  39 Pd     1.307414    2.360851   19.244806    ( 0.0000,  0.0000,  0.0000)
  40 Pd     4.187276    2.425457   19.283666    ( 0.0000,  0.0000,  0.0000)
  41 Ir     7.178164    2.502193   19.160534    ( 0.0000,  0.0000,  0.0000)
  42 Ag     2.770841    4.885961   19.363653    ( 0.0000,  0.0000,  0.0000)
  43 Ir     5.658120    4.995366   19.202124    ( 0.0000,  0.0000,  0.0000)
  44 Ir     8.352083    4.870540   18.988046    ( 0.0000,  0.0000,  0.0000)
  45 O      5.855397    3.373951   20.380200    ( 0.0000,  0.0000,  0.0000)

Unit cell:
           periodic     x           y           z      points  spacing
  1. axis:    yes    8.465341    0.000000    0.000000    35     0.2095
  2. axis:    yes    4.232670    7.331200    0.000000    35     0.2095
  3. axis:    no     0.000000    0.000000   29.187217   135     0.2162

  Lengths:   8.465341   8.465341  29.187217
  Angles:   90.000000  90.000000  60.000000

Effective grid spacing dv^(1/3) = 0.2221

                     log10-error:    total        iterations:
           time      wfs    density  energy       fermi  poisson
iter:   1  16:53:11  -2.09   +inf  -238.403678    3             
iter:   2  16:54:12  -1.56  -1.98  -309.488777    36            
iter:   3  16:55:14  -2.05  -1.30  -238.248976    37            
iter:   4  16:56:16  -2.63  -2.02  -236.145612    4             
iter:   5  16:57:18  -3.66  -2.48  -235.981816    3             
iter:   6  16:58:20  -4.27  -2.87  -235.958963    3             
iter:   7  16:59:22  -4.50  -2.88  -235.961989    3             
iter:   8  17:00:24  -4.12  -2.92  -235.931376    2             
iter:   9  17:01:25  -4.46  -3.13  -235.925993    2             
iter:  10  17:02:27  -4.91  -3.35  -235.926566    2             
iter:  11  17:03:29  -5.20  -3.29  -235.924053    2             
iter:  12  17:04:31  -5.60  -3.58  -235.924023    2             
iter:  13  17:05:33  -5.90  -3.62  -235.923342    2             
iter:  14  17:06:35  -5.72  -3.54  -235.925509    2             
iter:  15  17:07:37  -6.16  -3.53  -235.923693    2             
iter:  16  17:08:39  -6.25  -3.62  -235.923614    2             
iter:  17  17:09:40  -6.44  -3.80  -235.923375    2             
iter:  18  17:10:43  -6.56  -3.90  -235.923298    2             
iter:  19  17:11:45  -6.47  -4.01  -235.922890    2             
iter:  20  17:12:46  -6.89  -3.85  -235.923202    2             
iter:  21  17:13:48  -6.83  -4.18  -235.922722    2             
iter:  22  17:14:51  -7.06  -4.17  -235.923016    2             
iter:  23  17:15:53  -7.26  -4.07  -235.922858    2             
iter:  24  17:16:55  -7.39  -4.26  -235.922871    2             
iter:  25  17:17:57  -7.40  -4.35  -235.922871    2             
iter:  26  17:18:58  -6.95  -4.27  -235.923628    2             
iter:  27  17:20:01  -7.18  -3.93  -235.922918    2             
iter:  28  17:21:03  -7.78  -4.65  -235.923060    2             

Converged after 28 iterations.

Dipole moment: (28.130347, 19.266561, -0.046937) |e|*Ang

Energy contributions relative to reference atoms: (reference = -12877847.605335)

Kinetic:       -225.293091
Potential:     +100.680388
External:        +0.000000
XC:            -103.315593
Entropy (-ST):   -2.198374
Local:           -6.895577
--------------------------
Free energy:   -237.022247
Extrapolated:  -235.923060

Fermi level: 1.03727

Showing only first 2 kpts
 Kpt  Band  Eigenvalues  Occupancy
  0   359      1.01009    0.14188
  0   360      1.03772    0.12471
  0   361      1.07055    0.10439
  0   362      1.09237    0.09140

  1   359      0.93708    0.18286
  1   360      0.96036    0.17083
  1   361      0.98117    0.15917
  1   362      1.01093    0.14137



Forces in eV/Ang:
  0 Pd   -0.12190    0.32006   -0.35812
  1 Ir    0.95316    0.68718    0.60940
  2 Ru   -1.07326    0.29455    0.68833
  3 Ru    0.42109    0.27915    1.63471
  4 Ir   -0.56146   -0.79132    1.15892
  5 Pt    0.15150    0.15772    0.04809
  6 Pd   -0.49710   -0.41561   -0.24460
  7 Pd    0.38647   -0.26026   -0.57385
  8 Ru    0.33411   -0.16367    0.57083
  9 Ag   -0.26485   -0.10532    0.04657
 10 Ag   -0.00164   -0.13335    0.05109
 11 Ag    0.08839   -0.16102   -0.11350
 12 Pt    0.06510    0.78240   -0.53363
 13 Pt    0.13172    0.55593   -0.68421
 14 Pt   -0.10122    0.18575   -0.14116
 15 Ru   -0.38406   -0.71746   -0.95037
 16 Pt   -0.41480    0.14583   -0.06742
 17 Ir    0.90624   -0.10579   -0.99577
 18 Pt   -0.00790   -0.02854    0.07518
 19 Ag    0.04515    0.00745    0.00663
 20 Pd   -0.01818   -0.00074    0.00107
 21 Ag    0.03662   -0.00045   -0.01195
 22 Ru    0.00793   -0.01785    0.02559
 23 Pd    0.00868   -0.02609   -0.01119
 24 Ir    0.00050   -0.03652   -0.01745
 25 Ir    0.02269   -0.02052   -0.00080
 26 Pt    0.01698   -0.01431   -0.02611
 27 Ir   -0.00086   -0.09760    0.00923
 28 Pd   -0.03520   -0.07070   -0.09683
 29 Ag   -0.03106    0.01039    0.09719
 30 Pd    0.02211   -0.03724   -0.07282
 31 Pd    0.00223   -0.07205    0.07975
 32 Pd    0.02023    0.00454    0.13059
 33 Ru   -0.02580   -0.04771   -0.02008
 34 Pd   -0.01379    0.05416   -0.05824
 35 Ir    0.01309   -0.04207   -0.03018
 36 Ir   -0.05772    0.09986    0.00330
 37 Pt    0.23886    0.24599   -0.02395
 38 Ag   -0.00395    0.00876   -0.00582
 39 Pd    0.09748   -0.03676   -0.04883
 40 Pd   -0.05447   -0.02791   -0.00689
 41 Ir   -0.00624    0.00846   -0.06587
 42 Ag   -0.02812   -0.10976   -0.03714
 43 Ir   -0.00996   -0.47311    0.02277
 44 Ir   -0.20400   -0.08172    0.04225
 45 O    -0.23865    0.16750   -0.41711

System changes: positions 

Initializing position-dependent things.

Density initialized from wave functions
                                             
                                             
                                             
                                             
                                             
                                             
                 Ag     OIr                  
                               Ir            
            Pd     Pd     PIr    Ir          
                     Ag                      
        Ir    Pt    Pd     Pd                
        Ir     Pd     Ag                     
                     Ir     Ir     Pt        
                Ag      Ru    Pd             
                                             
           Pt     Ag    PPd    Ir            
                                             
             Pt    Pt    PPt    Ru           
        Ag    Ag    IAg    Pt                
                                             
         Pd    Ir     Ru                     
                                             
                                             
                                             
                                             
                                             

Positions:
   0 Pd     0.000000    1.624086   10.000000    ( 0.0000,  0.0000,  0.0000)
   1 Ir     2.812999    1.624086   10.000000    ( 0.0000,  0.0000,  0.0000)
   2 Ru     5.625998    1.624086   10.000000    ( 0.0000,  0.0000,  0.0000)
   3 Ru     1.406500    4.060215   10.000000    ( 0.0000,  0.0000,  0.0000)
   4 Ir     4.219499    4.060215   10.000000    ( 0.0000,  0.0000,  0.0000)
   5 Pt     7.032498    4.060215   10.000000    ( 0.0000,  0.0000,  0.0000)
   6 Pd     2.812999    6.496343   10.000000    ( 0.0000,  0.0000,  0.0000)
   7 Pd     5.625998    6.496343   10.000000    ( 0.0000,  0.0000,  0.0000)
   8 Ru     8.438997    6.496343   10.000000    ( 0.0000,  0.0000,  0.0000)
   9 Ag     0.000000    0.000000   12.296804    ( 0.0000,  0.0000,  0.0000)
  10 Ag     2.812999    0.000000   12.296804    ( 0.0000,  0.0000,  0.0000)
  11 Ag     5.625998    0.000000   12.296804    ( 0.0000,  0.0000,  0.0000)
  12 Pt     1.406500    2.436129   12.296804    ( 0.0000,  0.0000,  0.0000)
  13 Pt     4.219499    2.436129   12.296804    ( 0.0000,  0.0000,  0.0000)
  14 Pt     7.032498    2.436129   12.296804    ( 0.0000,  0.0000,  0.0000)
  15 Ru     2.812999    4.872257   12.296804    ( 0.0000,  0.0000,  0.0000)
  16 Pt     5.625998    4.872257   12.296804    ( 0.0000,  0.0000,  0.0000)
  17 Ir     8.438997    4.872257   12.296804    ( 0.0000,  0.0000,  0.0000)
  18 Pt     1.345067    0.729477   14.653044    ( 0.0000,  0.0000,  0.0000)
  19 Ag     4.186843    0.784333   14.653767    ( 0.0000,  0.0000,  0.0000)
  20 Pd     7.006481    0.854994   14.630528    ( 0.0000,  0.0000,  0.0000)
  21 Ag     2.805249    3.193159   14.643401    ( 0.0000,  0.0000,  0.0000)
  22 Ru     5.665770    3.367549   14.474009    ( 0.0000,  0.0000,  0.0000)
  23 Pd     8.448747    3.195269   14.582447    ( 0.0000,  0.0000,  0.0000)
  24 Ir     4.209651    5.614752   14.572169    ( 0.0000,  0.0000,  0.0000)
  25 Ir     7.026558    5.565157   14.573563    ( 0.0000,  0.0000,  0.0000)
  26 Pt     9.859110    5.659330   14.591644    ( 0.0000,  0.0000,  0.0000)
  27 Ir    -0.104258    1.479361   16.967700    ( 0.0000,  0.0000,  0.0000)
  28 Pd     2.743539    1.575540   16.977931    ( 0.0000,  0.0000,  0.0000)
  29 Ag     5.538926    1.606275   16.945821    ( 0.0000,  0.0000,  0.0000)
  30 Pd     1.405824    4.009462   16.944017    ( 0.0000,  0.0000,  0.0000)
  31 Pd     4.203823    4.104314   16.896711    ( 0.0000,  0.0000,  0.0000)
  32 Pd     7.026148    3.955850   16.774871    ( 0.0000,  0.0000,  0.0000)
  33 Ru     2.850195    6.530533   16.746225    ( 0.0000,  0.0000,  0.0000)
  34 Pd     5.663120    6.426982   16.813379    ( 0.0000,  0.0000,  0.0000)
  35 Ir     8.556925    6.366132   16.905923    ( 0.0000,  0.0000,  0.0000)
  36 Ir     0.053820   -0.064329   19.010468    ( 0.0000,  0.0000,  0.0000)
  37 Pt     2.818374   -0.112540   19.121991    ( 0.0000,  0.0000,  0.0000)
  38 Ag     5.670184   -0.007476   19.397716    ( 0.0000,  0.0000,  0.0000)
  39 Pd     1.310113    2.355395   19.236950    ( 0.0000,  0.0000,  0.0000)
  40 Pd     4.164268    2.411502   19.280099    ( 0.0000,  0.0000,  0.0000)
  41 Ir     7.191590    2.493035   19.153441    ( 0.0000,  0.0000,  0.0000)
  42 Ag     2.764698    4.873113   19.358006    ( 0.0000,  0.0000,  0.0000)
  43 Ir     5.650294    4.988435   19.192304    ( 0.0000,  0.0000,  0.0000)
  44 Ir     8.341325    4.863827   18.992584    ( 0.0000,  0.0000,  0.0000)
  45 O      5.839704    3.377855   20.341889    ( 0.0000,  0.0000,  0.0000)

Unit cell:
           periodic     x           y           z      points  spacing
  1. axis:    yes    8.465341    0.000000    0.000000    35     0.2095
  2. axis:    yes    4.232670    7.331200    0.000000    35     0.2095
  3. axis:    no     0.000000    0.000000   29.187217   135     0.2162

  Lengths:   8.465341   8.465341  29.187217
  Angles:   90.000000  90.000000  60.000000

Effective grid spacing dv^(1/3) = 0.2221

                     log10-error:    total        iterations:
           time      wfs    density  energy       fermi  poisson
iter:   1  17:22:32  -2.68   +inf  -236.708493    3             
iter:   2  17:23:35  -2.05  -2.21  -265.194124    36            
iter:   3  17:24:42  -2.45  -1.48  -236.560018    3             
iter:   4  17:25:40  -3.23  -2.36  -235.979869    3             
iter:   5  17:26:37  -4.21  -3.02  -235.987251    2             
iter:   6  17:27:35  -4.91  -2.85  -235.964286    2             
iter:   7  17:28:37  -4.98  -3.11  -235.959106    2             
iter:   8  17:29:39  -5.28  -3.28  -235.954239    2             
iter:   9  17:30:40  -5.63  -3.46  -235.953600    2             
iter:  10  17:31:43  -5.46  -3.54  -235.953199    2             
iter:  11  17:32:45  -5.48  -3.46  -235.954147    2             
iter:  12  17:33:46  -5.67  -3.62  -235.955070    2             
iter:  13  17:34:48  -5.95  -3.32  -235.952537    2             
iter:  14  17:35:50  -6.68  -3.78  -235.952418    2             
iter:  15  17:36:52  -6.77  -3.88  -235.952420    2             
iter:  16  17:37:55  -6.65  -3.90  -235.952116    2             
iter:  17  17:38:56  -6.93  -3.96  -235.952543    2             
iter:  18  17:39:58  -6.27  -4.00  -235.953127    2             
iter:  19  17:40:59  -6.54  -3.52  -235.952214    2             
iter:  20  17:41:54  -7.08  -4.09  -235.952147    2             
iter:  21  17:42:49  -7.14  -4.31  -235.952081    2             
iter:  22  17:43:49  -7.27  -4.44  -235.951991    2             
iter:  23  17:44:48  -7.37  -4.39  -235.952264    2             
iter:  24  17:45:47  -7.36  -4.39  -235.952012    2             
iter:  25  17:46:47  -7.12  -4.29  -235.952430    2             
iter:  26  17:47:47  -7.24  -3.98  -235.952117    2             
iter:  27  17:48:46  -8.03  -4.75  -235.952083    2             

Converged after 27 iterations.

Dipole moment: (27.935608, 18.162237, -0.035776) |e|*Ang

Energy contributions relative to reference atoms: (reference = -12877847.605335)

Kinetic:       -224.362165
Potential:      +99.927007
External:        +0.000000
XC:            -103.518068
Entropy (-ST):   -2.199451
Local:           -6.899131
--------------------------
Free energy:   -237.051809
Extrapolated:  -235.952083

Fermi level: 1.04155

Showing only first 2 kpts
 Kpt  Band  Eigenvalues  Occupancy
  0   359      1.01246    0.14305
  0   360      1.04135    0.12512
  0   361      1.07345    0.10523
  0   362      1.09724    0.09106

  1   359      0.93844    0.18428
  1   360      0.96350    0.17144
  1   361      0.98503    0.15941
  1   362      1.01639    0.14064



Forces in eV/Ang:
  0 Pd   -0.12141    0.32021   -0.35841
  1 Ir    0.95169    0.68684    0.61186
  2 Ru   -1.07313    0.29495    0.68788
  3 Ru    0.42044    0.28033    1.63125
  4 Ir   -0.56113   -0.79169    1.15574
  5 Pt    0.15093    0.15759    0.04772
  6 Pd   -0.49721   -0.41578   -0.24550
  7 Pd    0.38637   -0.26034   -0.57394
  8 Ru    0.33541   -0.16554    0.57026
  9 Ag   -0.25280   -0.09895    0.06842
 10 Ag   -0.00982   -0.12987    0.07635
 11 Ag    0.08841   -0.15900   -0.11831
 12 Pt    0.06728    0.77109   -0.52829
 13 Pt    0.13530    0.55070   -0.68809
 14 Pt   -0.10039    0.18527   -0.13514
 15 Ru   -0.37772   -0.71981   -0.96071
 16 Pt   -0.40769    0.12766   -0.05586
 17 Ir    0.90139   -0.11151   -0.99344
 18 Pt   -0.01307    0.01786   -0.05776
 19 Ag    0.03618    0.00291   -0.00180
 20 Pd   -0.02593   -0.00187   -0.00157
 21 Ag    0.03108   -0.01095   -0.01341
 22 Ru    0.02559    0.00091    0.02296
 23 Pd   -0.00605   -0.01599    0.00527
 24 Ir   -0.00833   -0.04250    0.00013
 25 Ir    0.03175   -0.01752    0.01888
 26 Pt    0.01563   -0.01823   -0.02957
 27 Ir    0.01938   -0.05154   -0.04828
 28 Pd   -0.01545   -0.02555   -0.10351
 29 Ag   -0.03878   -0.04293    0.01267
 30 Pd   -0.01895   -0.00628   -0.00569
 31 Pd   -0.01556   -0.01959    0.00093
 32 Pd    0.00029    0.02500   -0.05110
 33 Ru   -0.03504   -0.06492    0.00927
 34 Pd   -0.00208   -0.02645    0.09776
 35 Ir   -0.00422   -0.06626    0.04691
 36 Ir    0.02788    0.00961   -0.04751
 37 Pt    0.00257   -0.06760   -0.04462
 38 Ag    0.02290   -0.03508    0.01121
 39 Pd    0.13378   -0.02352   -0.00550
 40 Pd   -0.01283   -0.01402    0.03390
 41 Ir   -0.10044   -0.03657    0.02481
 42 Ag   -0.03741   -0.04377   -0.02115
 43 Ir    0.05210   -0.04284   -0.06967
 44 Ir   -0.08408    0.02261   -0.01892
 45 O    -0.15496   -0.06899   -0.09775

System changes: positions 

Initializing position-dependent things.

Density initialized from wave functions
                                             
                                             
                                             
                                             
                                             
                                             
                 Ag     OIr                  
                               Ir            
            Pd     Pd     PIr    Ir          
                     Ag                      
        Ir    Pt    Pd     Pd                
        Ir     Pd     Ag                     
                     Ir     Ir     Pt        
                Ag      Ru    Pd             
                                             
           Pt     Ag    PPd    Ir            
                                             
             Pt    Pt    PPt    Ru           
        Ag    Ag    IAg    Pt                
                                             
         Pd    Ir     Ru                     
                                             
                                             
                                             
                                             
                                             

Positions:
   0 Pd     0.000000    1.624086   10.000000    ( 0.0000,  0.0000,  0.0000)
   1 Ir     2.812999    1.624086   10.000000    ( 0.0000,  0.0000,  0.0000)
   2 Ru     5.625998    1.624086   10.000000    ( 0.0000,  0.0000,  0.0000)
   3 Ru     1.406500    4.060215   10.000000    ( 0.0000,  0.0000,  0.0000)
   4 Ir     4.219499    4.060215   10.000000    ( 0.0000,  0.0000,  0.0000)
   5 Pt     7.032498    4.060215   10.000000    ( 0.0000,  0.0000,  0.0000)
   6 Pd     2.812999    6.496343   10.000000    ( 0.0000,  0.0000,  0.0000)
   7 Pd     5.625998    6.496343   10.000000    ( 0.0000,  0.0000,  0.0000)
   8 Ru     8.438997    6.496343   10.000000    ( 0.0000,  0.0000,  0.0000)
   9 Ag     0.000000    0.000000   12.296804    ( 0.0000,  0.0000,  0.0000)
  10 Ag     2.812999    0.000000   12.296804    ( 0.0000,  0.0000,  0.0000)
  11 Ag     5.625998    0.000000   12.296804    ( 0.0000,  0.0000,  0.0000)
  12 Pt     1.406500    2.436129   12.296804    ( 0.0000,  0.0000,  0.0000)
  13 Pt     4.219499    2.436129   12.296804    ( 0.0000,  0.0000,  0.0000)
  14 Pt     7.032498    2.436129   12.296804    ( 0.0000,  0.0000,  0.0000)
  15 Ru     2.812999    4.872257   12.296804    ( 0.0000,  0.0000,  0.0000)
  16 Pt     5.625998    4.872257   12.296804    ( 0.0000,  0.0000,  0.0000)
  17 Ir     8.438997    4.872257   12.296804    ( 0.0000,  0.0000,  0.0000)
  18 Pt     1.343634    0.729928   14.650445    ( 0.0000,  0.0000,  0.0000)
  19 Ag     4.192633    0.784470   14.654079    ( 0.0000,  0.0000,  0.0000)
  20 Pd     7.003371    0.854477   14.630840    ( 0.0000,  0.0000,  0.0000)
  21 Ag     2.809969    3.191703   14.641407    ( 0.0000,  0.0000,  0.0000)
  22 Ru     5.669184    3.367010   14.477995    ( 0.0000,  0.0000,  0.0000)
  23 Pd     8.448133    3.192231   14.583535    ( 0.0000,  0.0000,  0.0000)
  24 Ir     4.209150    5.608915   14.572102    ( 0.0000,  0.0000,  0.0000)
  25 Ir     7.030628    5.561648   14.576154    ( 0.0000,  0.0000,  0.0000)
  26 Pt     9.861320    5.656453   14.587408    ( 0.0000,  0.0000,  0.0000)
  27 Ir    -0.103438    1.469555   16.963213    ( 0.0000,  0.0000,  0.0000)
  28 Pd     2.739832    1.569583   16.961897    ( 0.0000,  0.0000,  0.0000)
  29 Ag     5.534534    1.602651   16.952402    ( 0.0000,  0.0000,  0.0000)
  30 Pd     1.404529    4.006379   16.939486    ( 0.0000,  0.0000,  0.0000)
  31 Pd     4.203526    4.099960   16.900668    ( 0.0000,  0.0000,  0.0000)
  32 Pd     7.027357    3.957992   16.775288    ( 0.0000,  0.0000,  0.0000)
  33 Ru     2.846079    6.521756   16.746042    ( 0.0000,  0.0000,  0.0000)
  34 Pd     5.661938    6.424727   16.822616    ( 0.0000,  0.0000,  0.0000)
  35 Ir     8.557367    6.357196   16.908746    ( 0.0000,  0.0000,  0.0000)
  36 Ir     0.054514   -0.062565   19.008796    ( 0.0000,  0.0000,  0.0000)
  37 Pt     2.824864   -0.115472   19.116409    ( 0.0000,  0.0000,  0.0000)
  38 Ag     5.673187   -0.011857   19.398507    ( 0.0000,  0.0000,  0.0000)
  39 Pd     1.325076    2.350656   19.233215    ( 0.0000,  0.0000,  0.0000)
  40 Pd     4.151346    2.402649   19.280861    ( 0.0000,  0.0000,  0.0000)
  41 Ir     7.187000    2.484794   19.152915    ( 0.0000,  0.0000,  0.0000)
  42 Ag     2.757879    4.863807   19.353476    ( 0.0000,  0.0000,  0.0000)
  43 Ir     5.654034    4.986594   19.179169    ( 0.0000,  0.0000,  0.0000)
  44 Ir     8.328400    4.864083   18.992133    ( 0.0000,  0.0000,  0.0000)
  45 O      5.819495    3.371323   20.320358    ( 0.0000,  0.0000,  0.0000)

Unit cell:
           periodic     x           y           z      points  spacing
  1. axis:    yes    8.465341    0.000000    0.000000    35     0.2095
  2. axis:    yes    4.232670    7.331200    0.000000    35     0.2095
  3. axis:    no     0.000000    0.000000   29.187217   135     0.2162

  Lengths:   8.465341   8.465341  29.187217
  Angles:   90.000000  90.000000  60.000000

Effective grid spacing dv^(1/3) = 0.2221

                     log10-error:    total        iterations:
           time      wfs    density  energy       fermi  poisson
iter:   1  17:50:12  -2.97   +inf  -236.292135    3             
iter:   2  17:51:13  -2.41  -2.40  -251.514644    3             
iter:   3  17:52:12  -2.76  -1.59  -236.065160    3             
iter:   4  17:53:12  -3.69  -2.74  -235.979724    3             
iter:   5  17:54:13  -4.75  -3.05  -235.971253    3             
iter:   6  17:55:13  -5.10  -3.17  -235.967037    2             
iter:   7  17:56:12  -5.26  -3.27  -235.964306    2             
iter:   8  17:57:12  -5.59  -3.55  -235.963049    2             
iter:   9  17:58:13  -5.80  -3.67  -235.962715    2             
iter:  10  17:59:12  -5.80  -3.78  -235.962718    2             
iter:  11  18:00:13  -6.23  -3.78  -235.962609    2             
iter:  12  18:01:13  -6.27  -3.90  -235.961974    2             
iter:  13  18:02:13  -6.58  -3.80  -235.962714    2             
iter:  14  18:03:12  -7.03  -3.89  -235.962316    2             
iter:  15  18:04:12  -7.13  -4.13  -235.962250    2             
iter:  16  18:05:13  -7.13  -4.16  -235.962258    2             
iter:  17  18:06:12  -7.17  -4.27  -235.962266    2             
iter:  18  18:07:13  -7.22  -4.29  -235.962040    2             
iter:  19  18:08:14  -7.10  -4.31  -235.962759    2             
iter:  20  18:09:13  -7.20  -3.94  -235.962240    2             
iter:  21  18:10:13  -7.66  -4.44  -235.962175    2             

Converged after 21 iterations.

Dipole moment: (27.428938, 18.056923, -0.028276) |e|*Ang

Energy contributions relative to reference atoms: (reference = -12877847.605335)

Kinetic:       -222.738558
Potential:      +98.544497
External:        +0.000000
XC:            -103.767930
Entropy (-ST):   -2.197727
Local:           -6.901320
--------------------------
Free energy:   -237.061038
Extrapolated:  -235.962175

Fermi level: 1.04539

Showing only first 2 kpts
 Kpt  Band  Eigenvalues  Occupancy
  0   359      1.01497    0.14386
  0   360      1.04589    0.12469
  0   361      1.07919    0.10408
  0   362      1.10241    0.09030

  1   359      0.94070    0.18504
  1   360      0.96771    0.17125
  1   361      0.98786    0.16000
  1   362      1.02165    0.13977



Forces in eV/Ang:
  0 Pd   -0.12158    0.32178   -0.35757
  1 Ir    0.95389    0.68900    0.61147
  2 Ru   -1.07614    0.29455    0.69211
  3 Ru    0.42029    0.28119    1.63566
  4 Ir   -0.56238   -0.79429    1.15815
  5 Pt    0.15050    0.15695    0.05049
  6 Pd   -0.49978   -0.41688   -0.24498
  7 Pd    0.38707   -0.26151   -0.57452
  8 Ru    0.33632   -0.16379    0.57138
  9 Ag   -0.25691   -0.10634    0.07402
 10 Ag   -0.00656   -0.13550    0.09040
 11 Ag    0.08828   -0.15567   -0.13135
 12 Pt    0.06741    0.77415   -0.53255
 13 Pt    0.14643    0.55145   -0.69622
 14 Pt   -0.10292    0.18835   -0.13349
 15 Ru   -0.37105   -0.72627   -0.97135
 16 Pt   -0.39498    0.11553   -0.03290
 17 Ir    0.89648   -0.11972   -0.99799
 18 Pt   -0.00778   -0.04175   -0.03959
 19 Ag    0.00550   -0.02925   -0.00796
 20 Pd   -0.00470   -0.02379    0.00986
 21 Ag    0.00167   -0.01301   -0.01715
 22 Ru    0.00860    0.00503   -0.01391
 23 Pd    0.01325   -0.01939   -0.00462
 24 Ir    0.02162    0.01253    0.01493
 25 Ir   -0.00653    0.03362   -0.00674
 26 Pt   -0.00060   -0.02378   -0.00474
 27 Ir   -0.02390    0.02565   -0.02215
 28 Pd   -0.00682   -0.02197   -0.04613
 29 Ag   -0.00095   -0.04291   -0.01153
 30 Pd   -0.03329   -0.03059    0.02531
 31 Pd   -0.01673   -0.01731   -0.03302
 32 Pd   -0.01818   -0.06596   -0.07027
 33 Ru   -0.01513   -0.02530    0.00387
 34 Pd   -0.01621   -0.03007   -0.04319
 35 Ir    0.01904    0.00638   -0.03477
 36 Ir    0.00667   -0.02022   -0.01301
 37 Pt   -0.05189   -0.02330   -0.00963
 38 Ag    0.02359   -0.04201    0.01699
 39 Pd   -0.04755   -0.02097   -0.02513
 40 Pd   -0.01361   -0.04902    0.00456
 41 Ir    0.07395   -0.07071   -0.02872
 42 Ag   -0.01432    0.00822   -0.02363
 43 Ir   -0.06187    0.00885   -0.00643
 44 Ir    0.06555   -0.07865    0.01316
 45 O    -0.01695   -0.03013    0.14449

System changes: positions 

Initializing position-dependent things.

Density initialized from wave functions
                                             
                                             
                                             
                                             
                                             
                                             
                 Ag     OIr                  
                               Ir            
            Pd     Pd     PIr    Ir          
                     Ag                      
        Ir    Pt    Pd     Pd                
        Ir     Pd     Ag                     
                     Ir     Ir     Pt        
                Ag      Ru    Pd             
                                             
           Pt     Ag    PPd    Ir            
                                             
             Pt    Pt    PPt    Ru           
        Ag    Ag    IAg    Pt                
                                             
         Pd    Ir     Ru                     
                                             
                                             
                                             
                                             
                                             

Positions:
   0 Pd     0.000000    1.624086   10.000000    ( 0.0000,  0.0000,  0.0000)
   1 Ir     2.812999    1.624086   10.000000    ( 0.0000,  0.0000,  0.0000)
   2 Ru     5.625998    1.624086   10.000000    ( 0.0000,  0.0000,  0.0000)
   3 Ru     1.406500    4.060215   10.000000    ( 0.0000,  0.0000,  0.0000)
   4 Ir     4.219499    4.060215   10.000000    ( 0.0000,  0.0000,  0.0000)
   5 Pt     7.032498    4.060215   10.000000    ( 0.0000,  0.0000,  0.0000)
   6 Pd     2.812999    6.496343   10.000000    ( 0.0000,  0.0000,  0.0000)
   7 Pd     5.625998    6.496343   10.000000    ( 0.0000,  0.0000,  0.0000)
   8 Ru     8.438997    6.496343   10.000000    ( 0.0000,  0.0000,  0.0000)
   9 Ag     0.000000    0.000000   12.296804    ( 0.0000,  0.0000,  0.0000)
  10 Ag     2.812999    0.000000   12.296804    ( 0.0000,  0.0000,  0.0000)
  11 Ag     5.625998    0.000000   12.296804    ( 0.0000,  0.0000,  0.0000)
  12 Pt     1.406500    2.436129   12.296804    ( 0.0000,  0.0000,  0.0000)
  13 Pt     4.219499    2.436129   12.296804    ( 0.0000,  0.0000,  0.0000)
  14 Pt     7.032498    2.436129   12.296804    ( 0.0000,  0.0000,  0.0000)
  15 Ru     2.812999    4.872257   12.296804    ( 0.0000,  0.0000,  0.0000)
  16 Pt     5.625998    4.872257   12.296804    ( 0.0000,  0.0000,  0.0000)
  17 Ir     8.438997    4.872257   12.296804    ( 0.0000,  0.0000,  0.0000)
  18 Pt     1.342538    0.726538   14.645676    ( 0.0000,  0.0000,  0.0000)
  19 Ag     4.194507    0.782016   14.653346    ( 0.0000,  0.0000,  0.0000)
  20 Pd     7.002038    0.852302   14.631651    ( 0.0000,  0.0000,  0.0000)
  21 Ag     2.811302    3.190227   14.639390    ( 0.0000,  0.0000,  0.0000)
  22 Ru     5.670726    3.367318   14.477607    ( 0.0000,  0.0000,  0.0000)
  23 Pd     8.449231    3.189841   14.583130    ( 0.0000,  0.0000,  0.0000)
  24 Ir     4.210815    5.608502   14.573255    ( 0.0000,  0.0000,  0.0000)
  25 Ir     7.031153    5.564000   14.576052    ( 0.0000,  0.0000,  0.0000)
  26 Pt     9.861855    5.653700   14.585885    ( 0.0000,  0.0000,  0.0000)
  27 Ir    -0.105055    1.469582   16.960153    ( 0.0000,  0.0000,  0.0000)
  28 Pd     2.738564    1.566390   16.954142    ( 0.0000,  0.0000,  0.0000)
  29 Ag     5.533078    1.597695   16.952504    ( 0.0000,  0.0000,  0.0000)
  30 Pd     1.401213    4.003171   16.941012    ( 0.0000,  0.0000,  0.0000)
  31 Pd     4.201604    4.097294   16.898327    ( 0.0000,  0.0000,  0.0000)
  32 Pd     7.025919    3.952902   16.768804    ( 0.0000,  0.0000,  0.0000)
  33 Ru     2.843523    6.517253   16.746537    ( 0.0000,  0.0000,  0.0000)
  34 Pd     5.660389    6.421667   16.821315    ( 0.0000,  0.0000,  0.0000)
  35 Ir     8.558976    6.355501   16.906859    ( 0.0000,  0.0000,  0.0000)
  36 Ir     0.055508   -0.063142   19.006063    ( 0.0000,  0.0000,  0.0000)
  37 Pt     2.822329   -0.117487   19.113943    ( 0.0000,  0.0000,  0.0000)
  38 Ag     5.675909   -0.016555   19.400271    ( 0.0000,  0.0000,  0.0000)
  39 Pd     1.325539    2.347817   19.230364    ( 0.0000,  0.0000,  0.0000)
  40 Pd     4.149141    2.397470   19.282123    ( 0.0000,  0.0000,  0.0000)
  41 Ir     7.190163    2.477994   19.151058    ( 0.0000,  0.0000,  0.0000)
  42 Ag     2.755247    4.862449   19.350478    ( 0.0000,  0.0000,  0.0000)
  43 Ir     5.650305    4.980871   19.178049    ( 0.0000,  0.0000,  0.0000)
  44 Ir     8.329833    4.857069   18.993071    ( 0.0000,  0.0000,  0.0000)
  45 O      5.812162    3.369274   20.325495    ( 0.0000,  0.0000,  0.0000)

Unit cell:
           periodic     x           y           z      points  spacing
  1. axis:    yes    8.465341    0.000000    0.000000    35     0.2095
  2. axis:    yes    4.232670    7.331200    0.000000    35     0.2095
  3. axis:    no     0.000000    0.000000   29.187217   135     0.2162

  Lengths:   8.465341   8.465341  29.187217
  Angles:   90.000000  90.000000  60.000000

Effective grid spacing dv^(1/3) = 0.2221

                     log10-error:    total        iterations:
           time      wfs    density  energy       fermi  poisson
iter:   1  18:11:39  -3.38   +inf  -236.328470    3             
iter:   2  18:12:39  -2.50  -2.40  -249.616369    3             
iter:   3  18:13:38  -2.72  -1.61  -236.050673    3             
iter:   4  18:14:39  -3.95  -2.72  -235.995474    3             
iter:   5  18:15:39  -4.98  -3.00  -235.969687    3             
iter:   6  18:16:45  -5.52  -3.54  -235.967295    2             
iter:   7  18:17:45  -5.89  -3.65  -235.966622    2             
iter:   8  18:18:39  -6.11  -3.75  -235.966051    2             
iter:   9  18:19:33  -5.77  -3.81  -235.971206    2             
iter:  10  18:20:29  -5.89  -3.32  -235.965973    2             
iter:  11  18:21:29  -6.31  -3.92  -235.965452    2             
iter:  12  18:22:28  -6.88  -4.11  -235.965700    2             
iter:  13  18:23:27  -7.18  -4.20  -235.965631    2             
iter:  14  18:24:28  -7.28  -4.26  -235.965555    2             
iter:  15  18:25:28  -7.10  -4.31  -235.965977    2             
iter:  16  18:26:27  -7.49  -4.03  -235.965629    2             

Converged after 16 iterations.

Dipole moment: (27.413428, 18.099438, -0.032957) |e|*Ang

Energy contributions relative to reference atoms: (reference = -12877847.605335)

Kinetic:       -223.459813
Potential:      +99.178929
External:        +0.000000
XC:            -103.674704
Entropy (-ST):   -2.198353
Local:           -6.910865
--------------------------
Free energy:   -237.064805
Extrapolated:  -235.965629

Fermi level: 1.04306

Showing only first 2 kpts
 Kpt  Band  Eigenvalues  Occupancy
  0   359      1.01317    0.14354
  0   360      1.04360    0.12466
  0   361      1.07678    0.10412
  0   362      1.10016    0.09025

  1   359      0.93822    0.18512
  1   360      0.96523    0.17133
  1   361      0.98544    0.16005
  1   362      1.01919    0.13985



Forces in eV/Ang:
  0 Pd   -0.12166    0.32095   -0.35701
  1 Ir    0.95195    0.68714    0.61167
  2 Ru   -1.07370    0.29561    0.69160
  3 Ru    0.41935    0.28093    1.63445
  4 Ir   -0.56222   -0.79317    1.15664
  5 Pt    0.15221    0.15742    0.05106
  6 Pd   -0.49978   -0.41661   -0.24349
  7 Pd    0.38756   -0.26024   -0.57385
  8 Ru    0.33345   -0.16518    0.57232
  9 Ag   -0.26974   -0.11252    0.05833
 10 Ag    0.00144   -0.13561    0.07063
 11 Ag    0.09093   -0.15803   -0.13537
 12 Pt    0.06667    0.77332   -0.54453
 13 Pt    0.15226    0.54797   -0.70260
 14 Pt   -0.10420    0.18484   -0.13403
 15 Ru   -0.36765   -0.72189   -0.97401
 16 Pt   -0.39359    0.11584   -0.03857
 17 Ir    0.89319   -0.12175   -1.00206
 18 Pt   -0.00120   -0.00760    0.01069
 19 Ag   -0.00471   -0.00761   -0.01967
 20 Pd    0.00941   -0.01837   -0.00693
 21 Ag   -0.00420   -0.01049   -0.00542
 22 Ru   -0.00358   -0.00741   -0.02319
 23 Pd    0.00869   -0.00139   -0.01637
 24 Ir   -0.01432   -0.00624   -0.00254
 25 Ir    0.00860   -0.01306   -0.00735
 26 Pt    0.00540   -0.02315   -0.00233
 27 Ir   -0.00036   -0.02103   -0.03446
 28 Pd   -0.00391   -0.00998    0.02990
 29 Ag   -0.00953   -0.01551    0.00738
 30 Pd    0.00170   -0.02414   -0.00730
 31 Pd   -0.00522   -0.02419   -0.01537
 32 Pd   -0.02184   -0.00030    0.02964
 33 Ru    0.00978    0.00560    0.00284
 34 Pd    0.00463   -0.01737   -0.01967
 35 Ir   -0.02817   -0.03168    0.03647
 36 Ir    0.00700   -0.03912    0.00052
 37 Pt   -0.01581   -0.08579   -0.01716
 38 Ag   -0.02270   -0.02323    0.01852
 39 Pd   -0.01499   -0.02498   -0.00546
 40 Pd    0.04684   -0.02538   -0.00087
 41 Ir   -0.09022    0.01630    0.05037
 42 Ag    0.00597   -0.00299   -0.01212
 43 Ir    0.02935   -0.01671   -0.01591
 44 Ir   -0.04441    0.00741   -0.02213
 45 O     0.06267   -0.05698   -0.03043

System changes: positions 

Initializing position-dependent things.

Density initialized from wave functions
                                             
                                             
                                             
                                             
                                             
                                             
                 Ag     OIr                  
                               Ir            
            Pd     Pd     PIr    Ir          
                     Ag                      
        Ir    Pt    Pd     Pd                
        Ir     Pd     Ag                     
                     Ir     Ir     Pt        
                Ag      Ru    Pd             
                                             
           Pt     Ag    PPd    Ir            
                                             
             Pt    Pt    PPt    Ru           
        Ag    Ag    IAg    Pt                
                                             
         Pd    Ir     Ru                     
                                             
                                             
                                             
                                             
                                             

Positions:
   0 Pd     0.000000    1.624086   10.000000    ( 0.0000,  0.0000,  0.0000)
   1 Ir     2.812999    1.624086   10.000000    ( 0.0000,  0.0000,  0.0000)
   2 Ru     5.625998    1.624086   10.000000    ( 0.0000,  0.0000,  0.0000)
   3 Ru     1.406500    4.060215   10.000000    ( 0.0000,  0.0000,  0.0000)
   4 Ir     4.219499    4.060215   10.000000    ( 0.0000,  0.0000,  0.0000)
   5 Pt     7.032498    4.060215   10.000000    ( 0.0000,  0.0000,  0.0000)
   6 Pd     2.812999    6.496343   10.000000    ( 0.0000,  0.0000,  0.0000)
   7 Pd     5.625998    6.496343   10.000000    ( 0.0000,  0.0000,  0.0000)
   8 Ru     8.438997    6.496343   10.000000    ( 0.0000,  0.0000,  0.0000)
   9 Ag     0.000000    0.000000   12.296804    ( 0.0000,  0.0000,  0.0000)
  10 Ag     2.812999    0.000000   12.296804    ( 0.0000,  0.0000,  0.0000)
  11 Ag     5.625998    0.000000   12.296804    ( 0.0000,  0.0000,  0.0000)
  12 Pt     1.406500    2.436129   12.296804    ( 0.0000,  0.0000,  0.0000)
  13 Pt     4.219499    2.436129   12.296804    ( 0.0000,  0.0000,  0.0000)
  14 Pt     7.032498    2.436129   12.296804    ( 0.0000,  0.0000,  0.0000)
  15 Ru     2.812999    4.872257   12.296804    ( 0.0000,  0.0000,  0.0000)
  16 Pt     5.625998    4.872257   12.296804    ( 0.0000,  0.0000,  0.0000)
  17 Ir     8.438997    4.872257   12.296804    ( 0.0000,  0.0000,  0.0000)
  18 Pt     1.341799    0.723502   14.644342    ( 0.0000,  0.0000,  0.0000)
  19 Ag     4.194880    0.779771   14.651051    ( 0.0000,  0.0000,  0.0000)
  20 Pd     7.002303    0.849275   14.631498    ( 0.0000,  0.0000,  0.0000)
  21 Ag     2.811434    3.188466   14.637755    ( 0.0000,  0.0000,  0.0000)
  22 Ru     5.671079    3.366839   14.474939    ( 0.0000,  0.0000,  0.0000)
  23 Pd     8.450832    3.188409   14.581226    ( 0.0000,  0.0000,  0.0000)
  24 Ir     4.210615    5.608095   14.573721    ( 0.0000,  0.0000,  0.0000)
  25 Ir     7.031975    5.564536   14.575042    ( 0.0000,  0.0000,  0.0000)
  26 Pt     9.862531    5.650032   14.585031    ( 0.0000,  0.0000,  0.0000)
  27 Ir    -0.106195    1.468272   16.955410    ( 0.0000,  0.0000,  0.0000)
  28 Pd     2.737556    1.563737   16.953089    ( 0.0000,  0.0000,  0.0000)
  29 Ag     5.531628    1.593525   16.953045    ( 0.0000,  0.0000,  0.0000)
  30 Pd     1.399464    3.999048   16.941458    ( 0.0000,  0.0000,  0.0000)
  31 Pd     4.199973    4.093523   16.895443    ( 0.0000,  0.0000,  0.0000)
  32 Pd     7.022912    3.949427   16.767875    ( 0.0000,  0.0000,  0.0000)
  33 Ru     2.843130    6.515622   16.747032    ( 0.0000,  0.0000,  0.0000)
  34 Pd     5.659839    6.418575   16.817434    ( 0.0000,  0.0000,  0.0000)
  35 Ir     8.557439    6.352250   16.908553    ( 0.0000,  0.0000,  0.0000)
  36 Ir     0.056466   -0.066962   19.004737    ( 0.0000,  0.0000,  0.0000)
  37 Pt     2.819385   -0.125606   19.111352    ( 0.0000,  0.0000,  0.0000)
  38 Ag     5.675244   -0.021196   19.403020    ( 0.0000,  0.0000,  0.0000)
  39 Pd     1.323273    2.344037   19.228272    ( 0.0000,  0.0000,  0.0000)
  40 Pd     4.152978    2.392537   19.282415    ( 0.0000,  0.0000,  0.0000)
  41 Ir     7.184810    2.475696   19.153586    ( 0.0000,  0.0000,  0.0000)
  42 Ag     2.754736    4.861791   19.347757    ( 0.0000,  0.0000,  0.0000)
  43 Ir     5.650263    4.975252   19.175987    ( 0.0000,  0.0000,  0.0000)
  44 Ir     8.327109    4.852893   18.991904    ( 0.0000,  0.0000,  0.0000)
  45 O      5.814178    3.363307   20.328326    ( 0.0000,  0.0000,  0.0000)

Unit cell:
           periodic     x           y           z      points  spacing
  1. axis:    yes    8.465341    0.000000    0.000000    35     0.2095
  2. axis:    yes    4.232670    7.331200    0.000000    35     0.2095
  3. axis:    no     0.000000    0.000000   29.187217   135     0.2162

  Lengths:   8.465341   8.465341  29.187217
  Angles:   90.000000  90.000000  60.000000

Effective grid spacing dv^(1/3) = 0.2221

                     log10-error:    total        iterations:
           time      wfs    density  energy       fermi  poisson
iter:   1  18:27:50  -3.58   +inf  -236.254873    2             
iter:   2  18:28:45  -2.48  -2.43  -250.137031    3             
iter:   3  18:29:41  -2.77  -1.62  -236.011400    3             
iter:   4  18:30:37  -4.04  -2.91  -235.975235    3             
iter:   5  18:31:32  -5.10  -3.34  -235.971855    2             
iter:   6  18:32:27  -5.60  -3.47  -235.969828    2             
iter:   7  18:33:21  -5.76  -3.67  -235.969120    2             
iter:   8  18:34:17  -6.35  -3.81  -235.969006    2             
iter:   9  18:35:11  -6.08  -3.66  -235.969371    2             
iter:  10  18:36:06  -6.45  -3.80  -235.968404    2             
iter:  11  18:37:03  -6.61  -3.96  -235.968673    2             
iter:  12  18:37:59  -6.85  -4.14  -235.968480    2             
iter:  13  18:38:55  -7.10  -4.24  -235.968482    2             
iter:  14  18:39:50  -6.97  -4.32  -235.968276    2             
iter:  15  18:40:46  -7.39  -4.07  -235.968470    2             
iter:  16  18:41:40  -7.49  -4.33  -235.968249    2             

Converged after 16 iterations.

Dipole moment: (27.583835, 18.534958, -0.032995) |e|*Ang

Energy contributions relative to reference atoms: (reference = -12877847.605335)

Kinetic:       -223.305715
Potential:      +99.042368
External:        +0.000000
XC:            -103.714629
Entropy (-ST):   -2.198428
Local:           -6.891060
--------------------------
Free energy:   -237.067463
Extrapolated:  -235.968249

Fermi level: 1.04293

Showing only first 2 kpts
 Kpt  Band  Eigenvalues  Occupancy
  0   359      1.01323    0.14343
  0   360      1.04339    0.12471
  0   361      1.07656    0.10418
  0   362      1.09980    0.09038

  1   359      0.93833    0.18500
  1   360      0.96543    0.17115
  1   361      0.98562    0.15987
  1   362      1.01862    0.14012



Forces in eV/Ang:
  0 Pd   -0.12213    0.32088   -0.35998
  1 Ir    0.95060    0.68659    0.60743
  2 Ru   -1.07285    0.29674    0.68696
  3 Ru    0.41919    0.28035    1.63083
  4 Ir   -0.56223   -0.79212    1.15419
  5 Pt    0.15257    0.15788    0.04911
  6 Pd   -0.49861   -0.41633   -0.24433
  7 Pd    0.38763   -0.26037   -0.57587
  8 Ru    0.33329   -0.16644    0.56855
  9 Ag   -0.26942   -0.11318    0.05060
 10 Ag   -0.00073   -0.13529    0.06225
 11 Ag    0.09217   -0.16090   -0.13937
 12 Pt    0.06740    0.76580   -0.55557
 13 Pt    0.15267    0.54400   -0.71371
 14 Pt   -0.10118    0.17716   -0.14196
 15 Ru   -0.36687   -0.72296   -0.98323
 16 Pt   -0.39538    0.12481   -0.04950
 17 Ir    0.89486   -0.12137   -1.01163
 18 Pt    0.01573    0.00673    0.00067
 19 Ag    0.00331   -0.00911    0.00896
 20 Pd   -0.01578    0.00033   -0.01054
 21 Ag    0.00071   -0.01823    0.00714
 22 Ru   -0.00141   -0.01347    0.01022
 23 Pd   -0.01656   -0.00518    0.00888
 24 Ir   -0.00923   -0.02230   -0.01404
 25 Ir    0.00838   -0.03204    0.00745
 26 Pt   -0.00951    0.00815    0.02660
 27 Ir   -0.00874   -0.01668    0.06891
 28 Pd    0.00095   -0.01312    0.03243
 29 Ag   -0.00079   -0.02644   -0.01048
 30 Pd    0.00210   -0.01190   -0.00404
 31 Pd   -0.01412   -0.01818   -0.00747
 32 Pd    0.00056   -0.02694   -0.01731
 33 Ru   -0.01643   -0.00785    0.00587
 34 Pd   -0.01148   -0.01678    0.00272
 35 Ir    0.01694   -0.01692   -0.02403
 36 Ir   -0.02212    0.01721   -0.02361
 37 Pt   -0.00806    0.01201    0.00351
 38 Ag   -0.01611   -0.03028    0.01031
 39 Pd   -0.03624   -0.02579   -0.01285
 40 Pd   -0.03120   -0.00996    0.00492
 41 Ir    0.05417   -0.06078   -0.03875
 42 Ag    0.00881   -0.03693   -0.00202
 43 Ir   -0.04447   -0.04212    0.02864
 44 Ir    0.03387   -0.03586   -0.00792
 45 O     0.00447    0.01273   -0.01946

Timing:                                      incl.     excl.
-------------------------------------------------------------------
Density initialized from wave functions:    23.821    23.820   0.2% |
 Symmetrize density:                         0.001     0.001   0.0% |
Forces:                                    124.403   124.403   0.8% |
Hamiltonian:                                20.263     0.081   0.0% |
 Atomic:                                     4.790     2.595   0.0% |
  XC Correction:                             2.195     2.195   0.0% |
 Calculate atomic Hamiltonians:              5.827     5.827   0.0% |
 Communicate:                                2.453     2.453   0.0% |
 Initialize Hamiltonian:                     0.000     0.000   0.0% |
 Poisson:                                    0.035     0.035   0.0% |
 XC 3D grid:                                 7.076     7.076   0.0% |
LCAO initialization:                        55.914     3.693   0.0% |
 LCAO eigensolver:                           5.110     0.003   0.0% |
  Calculate projections:                     0.059     0.059   0.0% |
  DenseAtomicCorrection:                     0.100     0.100   0.0% |
  Distribute overlap matrix:                 0.051     0.051   0.0% |
  Orbital Layouts:                           0.417     0.417   0.0% |
  Potential matrix:                          4.415     4.415   0.0% |
  Sum over cells:                            0.065     0.065   0.0% |
 LCAO to grid:                              45.560    45.560   0.3% |
 Set positions (LCAO WFS):                   1.550     0.374   0.0% |
  Basic WFS set positions:                   0.002     0.002   0.0% |
  Basis functions set positions:             0.000     0.000   0.0% |
  P tci:                                     0.551     0.551   0.0% |
  ST tci:                                    0.464     0.464   0.0% |
  mktci:                                     0.158     0.158   0.0% |
PWDescriptor:                                0.038     0.038   0.0% |
Redistribute:                                2.826     2.826   0.0% |
SCF-cycle:                               14580.925  1707.504  11.5% |----|
 Davidson:                               11687.111  2874.956  19.3% |-------|
  Apply H:                                1894.697  1837.624  12.4% |----|
   HMM T:                                   57.073    57.073   0.4% |
  Subspace diag:                          1660.760     0.075   0.0% |
   calc_h_matrix:                          937.480   305.471   2.1% ||
    Apply H:                               632.009   612.026   4.1% |-|
     HMM T:                                 19.983    19.983   0.1% |
   diagonalize:                             55.549    55.549   0.4% |
   rotate_psi:                             667.656   667.656   4.5% |-|
  calc. matrices:                         3428.958  2206.555  14.8% |-----|
   Apply H:                               1222.403  1184.768   8.0% |--|
    HMM T:                                  37.635    37.635   0.3% |
  diagonalize:                             513.367   513.367   3.5% ||
  rotate_psi:                             1314.373  1314.373   8.8% |---|
 Density:                                  613.237     0.013   0.0% |
  Atomic density matrices:                   3.976     3.976   0.0% |
  Mix:                                     198.997   198.997   1.3% ||
  Multipole moments:                         0.225     0.225   0.0% |
  Pseudo density:                          410.027   410.011   2.8% ||
   Symmetrize density:                       0.016     0.016   0.0% |
 Hamiltonian:                              530.237     2.195   0.0% |
  Atomic:                                  118.952    60.189   0.4% |
   XC Correction:                           58.762    58.762   0.4% |
  Calculate atomic Hamiltonians:           158.070   158.070   1.1% |
  Communicate:                              61.799    61.799   0.4% |
  Poisson:                                   1.025     1.025   0.0% |
  XC 3D grid:                              188.196   188.196   1.3% ||
 Orthonormalize:                            42.836     0.004   0.0% |
  calc_s_matrix:                             5.592     5.592   0.0% |
  inverse-cholesky:                          1.269     1.269   0.0% |
  projections:                              23.887    23.887   0.2% |
  rotate_psi_s:                             12.083    12.083   0.1% |
Set symmetry:                                0.001     0.001   0.0% |
Other:                                      57.702    57.702   0.4% |
-------------------------------------------------------------------
Total:                                             14865.893 100.0%

Date: Thu Mar  3 18:41:54 2022
