
  ___ ___ ___ _ _ _  
 |   |   |_  | | | | 
 | | | | | . | | | | 
 |__ |  _|___|_____|  1.5.1
 |___|_|             

User:   clausen@node032.cluster
Date:   Thu Mar  3 20:03:21 2022
Arch:   x86_64
Pid:    25244
Python: 3.6.12
gpaw:   /software/kemi/gpaw/1.5.1/gpaw
_gpaw:  /software/kemi/gpaw/1.5.1/bin/gpaw-python
ase:    /software/kemi/ase/3.17.0/ase (version 3.17.0)
numpy:  /opt/rh/rh-python36/root/usr/lib64/python3.6/site-packages/numpy (version 1.13.1)
scipy:  /opt/rh/rh-python36/root/usr/lib64/python3.6/site-packages/scipy (version 0.19.1)
units:  Angstrom and eV
cores:  16

Input parameters:
  kpts: [4 4 1]
  mode: {ecut: 400.0,
         gammacentered: False,
         name: pw}
  xc: RPBE

System changes: positions, numbers, cell, pbc, initial_charges, initial_magmoms 

Initialize ...

Ag-setup:
  name: Silver
  id: c05e55bab2c3858b3f9398f6d75cb77c
  Z: 47
  valence: 17
  core: 30
  charge: 0.0
  file: /software/kemi/gpaw-setups/0.9.20000/Ag.RPBE.gz
  cutoffs: 1.25(comp), 2.35(filt), 2.19(core), lmax=2
  valence states:
                energy  radius
    5s(1.00)    -4.277   1.286
    4p(6.00)   -58.523   1.328
    5p(0.00)    -0.755   1.328
    4d(10.00)    -7.386   1.180
    *s          22.934   1.286
    *d          19.826   1.180

  Using partial waves for Ag as LCAO basis

Ir-setup:
  name: Iridium
  id: 73b603359d1d5397a85ae3c2440f9033
  Z: 77
  valence: 15
  core: 62
  charge: 0.0
  file: /software/kemi/gpaw-setups/0.9.20000/Ir.RPBE.gz
  cutoffs: 1.26(comp), 2.40(filt), 2.36(core), lmax=2
  valence states:
                energy  radius
    6s(2.00)    -6.219   1.296
    5p(6.00)   -54.684   1.328
    6p(0.00)    -1.215   1.328
    5d(7.00)    -7.118   1.286
    *s          20.992   1.296
    *d          20.093   1.286

  Using partial waves for Ir as LCAO basis

Pt-setup:
  name: Platinum
  id: f04f522592575c47ad794f6b4a415b4b
  Z: 78
  valence: 16
  core: 62
  charge: 0.0
  file: /software/kemi/gpaw-setups/0.9.20000/Pt.RPBE.gz
  cutoffs: 1.29(comp), 2.26(filt), 2.26(core), lmax=2
  valence states:
                energy  radius
    6s(1.00)    -5.516   1.307
    5p(6.00)   -55.971   1.371
    6p(0.00)    -0.856   1.371
    5d(9.00)    -6.087   1.307
    *s          21.695   1.307
    *d          21.125   1.307

  Using partial waves for Pt as LCAO basis

Ru-setup:
  name: Ruthenium
  id: 76477906e28f51dc1b29884d53556fe9
  Z: 44
  valence: 16
  core: 28
  charge: 0.0
  file: /software/kemi/gpaw-setups/0.9.20000/Ru.RPBE.gz
  cutoffs: 1.23(comp), 2.16(filt), 1.30(core), lmax=2
  valence states:
                energy  radius
    4s(2.00)   -76.255   1.281
    5s(1.00)    -4.126   1.281
    4p(6.00)   -46.371   1.286
    5p(0.00)    -0.913   1.286
    4d(7.00)    -5.146   1.254
    *d          22.066   1.254

  Using partial waves for Ru as LCAO basis

O-setup:
  name: Oxygen
  id: 08071ca1eed670e7821b24b7eb4d558c
  Z: 8
  valence: 6
  core: 2
  charge: 0.0
  file: /software/kemi/gpaw-setups/0.9.20000/O.RPBE.gz
  cutoffs: 0.67(comp), 1.17(filt), 0.83(core), lmax=2
  valence states:
                energy  radius
    2s(2.00)   -24.041   0.688
    2p(4.00)    -8.984   0.598
    *s           3.170   0.688
    *p          18.228   0.598
    *d           0.000   0.619

  Using partial waves for O as LCAO basis

Reference energy: -16429278.754816

Spin-paired calculation

Occupation numbers:
  Fermi-Dirac: width=0.1000 eV

Convergence criteria:
  Maximum total energy change: 0.0005 eV / electron
  Maximum integral of absolute density change: 0.0001 electrons
  Maximum integral of absolute eigenstate change: 4e-08 eV^2
  Maximum number of iterations: 333

Symmetries present (total): 1

  ( 1  0  0)
  ( 0  1  0)
  ( 0  0  1)

16 k-points: 4 x 4 x 1 Monkhorst-Pack grid
8 k-points in the irreducible part of the Brillouin zone
       k-points in crystal coordinates                weights
   0:     0.12500000   -0.37500000    0.00000000          2/16
   1:     0.12500000   -0.12500000    0.00000000          2/16
   2:     0.12500000    0.12500000    0.00000000          2/16
   3:     0.12500000    0.37500000    0.00000000          2/16
   4:     0.37500000   -0.37500000    0.00000000          2/16
   5:     0.37500000   -0.12500000    0.00000000          2/16
   6:     0.37500000    0.12500000    0.00000000          2/16
   7:     0.37500000    0.37500000    0.00000000          2/16

Wave functions: Plane wave expansion
  Cutoff energy: 400.000 eV
  Number of coefficients (min, max): 32722, 32776
  Pulay-stress correction: 0.000000 eV/Ang^3 (de/decut=0.000000)
  Using FFTW library
  ScaLapack parameters: grid=1x1, blocksize=None
  Wavefunction extrapolation:
    Improved wavefunction reuse through dual PAW basis 

Eigensolver
   Davidson(niter=2, smin=None, normalize=True) 

Densities:
  Coarse grid: 35*35*135 grid
  Fine grid: 70*70*270 grid
  Total Charge: 0.000000 

Density mixing:
  Method: separate
  Backend: pulay
  Linear mixing parameter: 0.05
  Mixing with 5 old densities
  Damping of long wave oscillations: 50 

Hamiltonian:
  XC and Coulomb potentials evaluated on a 70*70*270 grid
  Using the RPBE Exchange-Correlation functional
 

XC parameters: RPBE with 2 nearest neighbor stencil

Memory estimate:
  Process memory now: 151.25 MiB
  Calculator: 540.22 MiB
    Density: 48.12 MiB
      Arrays: 16.41 MiB
      Localized functions: 25.35 MiB
      Mixer: 6.36 MiB
    Hamiltonian: 11.50 MiB
      Arrays: 10.73 MiB
      XC: 0.00 MiB
      Poisson: 0.00 MiB
      vbar: 0.77 MiB
    Wavefunctions: 480.60 MiB
      Arrays psit_nG: 217.55 MiB
      Eigensolver: 248.94 MiB
      Projections: 2.73 MiB
      Projectors: 4.75 MiB
      PW-descriptor: 6.62 MiB

Total number of cores used: 16
Parallelization over k-points: 8
Domain decomposition: 1 x 1 x 2

Number of atoms: 46
Number of atomic orbitals: 547
Number of bands in calculation: 435
Bands to converge: occupied states only
Number of valence electrons: 718

... initialized

Initializing position-dependent things.

Density initialized from atomic densities
Creating initial wave functions:
  435 bands from LCAO basis set

                                             
                                             
                                             
                                             
                                             
                                             
                       O       Ag            
                  Ir    Ir                   
            Ag                               
                  AIr     Pt    Ru           
       Ir    IIr    IPt    Pt                
                                             
         Ru    Ir    PIr    Ag     Ir        
                Ag     Ag     Ag             
                                             
           Ir    PPt    RPt    Ir            
                                             
            Ir    IAg    AAg    Pt           
       Ag     Ir     Ir                      
             Ir     Ir     Ir                
        Ag     Ag     Ir                     
                                             
                                             
                                             
                                             
                                             

Positions:
   0 Ag     0.000000    1.621936   10.000000    ( 0.0000,  0.0000,  0.0000)
   1 Ag     2.809275    1.621936   10.000000    ( 0.0000,  0.0000,  0.0000)
   2 Ir     5.618550    1.621936   10.000000    ( 0.0000,  0.0000,  0.0000)
   3 Ir     1.404638    4.054840   10.000000    ( 0.0000,  0.0000,  0.0000)
   4 Ir     4.213913    4.054840   10.000000    ( 0.0000,  0.0000,  0.0000)
   5 Ir     7.023188    4.054840   10.000000    ( 0.0000,  0.0000,  0.0000)
   6 Ir     2.809275    6.487743   10.000000    ( 0.0000,  0.0000,  0.0000)
   7 Ag     5.618550    6.487743   10.000000    ( 0.0000,  0.0000,  0.0000)
   8 Pt     8.427826    6.487743   10.000000    ( 0.0000,  0.0000,  0.0000)
   9 Ag     0.000000    0.000000   12.293764    ( 0.0000,  0.0000,  0.0000)
  10 Ir     2.809275    0.000000   12.293764    ( 0.0000,  0.0000,  0.0000)
  11 Ir     5.618550    0.000000   12.293764    ( 0.0000,  0.0000,  0.0000)
  12 Ir     1.404638    2.432904   12.293764    ( 0.0000,  0.0000,  0.0000)
  13 Ag     4.213913    2.432904   12.293764    ( 0.0000,  0.0000,  0.0000)
  14 Ag     7.023188    2.432904   12.293764    ( 0.0000,  0.0000,  0.0000)
  15 Pt     2.809275    4.865807   12.293764    ( 0.0000,  0.0000,  0.0000)
  16 Ru     5.618550    4.865807   12.293764    ( 0.0000,  0.0000,  0.0000)
  17 Ir     8.427826    4.865807   12.293764    ( 0.0000,  0.0000,  0.0000)
  18 Ir     1.441638    0.791118   14.593247    ( 0.0000,  0.0000,  0.0000)
  19 Pt     4.193480    0.729862   14.611205    ( 0.0000,  0.0000,  0.0000)
  20 Pt     7.034823    0.803600   14.634811    ( 0.0000,  0.0000,  0.0000)
  21 Ag     2.789574    3.267050   14.608106    ( 0.0000,  0.0000,  0.0000)
  22 Ag     5.614143    3.230616   14.629701    ( 0.0000,  0.0000,  0.0000)
  23 Ag     8.464759    3.239382   14.607930    ( 0.0000,  0.0000,  0.0000)
  24 Pt     4.237230    5.675263   14.599690    ( 0.0000,  0.0000,  0.0000)
  25 Ag     7.020289    5.624637   14.588938    ( 0.0000,  0.0000,  0.0000)
  26 Ir     9.810296    5.749034   14.534386    ( 0.0000,  0.0000,  0.0000)
  27 Ru     0.088724    1.655821   16.925664    ( 0.0000,  0.0000,  0.0000)
  28 Ir     2.745717    1.627778   16.875164    ( 0.0000,  0.0000,  0.0000)
  29 Ir     5.551846    1.597836   16.889230    ( 0.0000,  0.0000,  0.0000)
  30 Ir     1.358794    4.007324   17.013226    ( 0.0000,  0.0000,  0.0000)
  31 Ir     4.198339    3.977911   16.957702    ( 0.0000,  0.0000,  0.0000)
  32 Pt     7.125382    4.056246   16.998429    ( 0.0000,  0.0000,  0.0000)
  33 Ag     2.759687    6.474835   16.802442    ( 0.0000,  0.0000,  0.0000)
  34 Ir     5.663661    6.563267   16.864024    ( 0.0000,  0.0000,  0.0000)
  35 Ru     8.399575    6.483077   16.866623    ( 0.0000,  0.0000,  0.0000)
  36 Ir     0.015859   -0.055829   18.998154    ( 0.0000,  0.0000,  0.0000)
  37 Ir     2.776668   -0.025110   18.984491    ( 0.0000,  0.0000,  0.0000)
  38 Pt     5.623976   -0.052286   19.132338    ( 0.0000,  0.0000,  0.0000)
  39 Ag     1.411190    2.424549   19.550242    ( 0.0000,  0.0000,  0.0000)
  40 Ir     4.228423    2.403175   19.018562    ( 0.0000,  0.0000,  0.0000)
  41 Pt     6.964575    2.313754   19.128521    ( 0.0000,  0.0000,  0.0000)
  42 Ir     2.920544    4.885225   19.043791    ( 0.0000,  0.0000,  0.0000)
  43 Ir     5.524960    4.949858   19.026821    ( 0.0000,  0.0000,  0.0000)
  44 Ag     8.407084    4.876484   19.535850    ( 0.0000,  0.0000,  0.0000)
  45 O      5.572653    3.222262   20.850242    ( 0.0000,  0.0000,  0.0000)

Unit cell:
           periodic     x           y           z      points  spacing
  1. axis:    yes    8.445283    0.000000    0.000000    35     0.2090
  2. axis:    yes    4.222641    7.313829    0.000000    35     0.2090
  3. axis:    no     0.000000    0.000000   29.175054   135     0.2161

  Lengths:   8.445283   8.445283  29.175054
  Angles:   90.000000  90.000000  60.000000

Effective grid spacing dv^(1/3) = 0.2217

                     log10-error:    total        iterations:
           time      wfs    density  energy       fermi  poisson
iter:   1  20:05:20  +0.17   +inf  -295.339375    2             
iter:   2  20:06:26  -1.11  -1.37  -293.679761    35            
iter:   3  20:07:32  -1.37  -1.32  -328.524309    36            
iter:   4  20:08:38  -1.75  -1.25  -274.591753    3             
iter:   5  20:09:45  -2.25  -1.49  -268.944330    33            
iter:   6  20:10:43  -2.55  -1.55  -267.368340    3             
iter:   7  20:11:41  -2.28  -1.60  -265.192371    3             
iter:   8  20:12:37  -2.33  -1.73  -264.137447    3             
iter:   9  20:13:34  -2.64  -1.93  -264.406775    3             
iter:  10  20:14:31  -2.75  -2.04  -265.143568    3             
iter:  11  20:15:28  -3.15  -2.00  -264.624205    3             
iter:  12  20:16:20  -3.56  -2.12  -264.540188    3             
iter:  13  20:17:12  -3.73  -2.17  -264.327765    3             
iter:  14  20:18:04  -3.61  -2.24  -264.286892    3             
iter:  15  20:18:56  -3.53  -2.33  -264.253126    2             
iter:  16  20:19:49  -3.72  -2.41  -264.245049    3             
iter:  17  20:20:41  -3.92  -2.42  -264.320774    3             
iter:  18  20:21:32  -3.65  -2.38  -264.264398    3             
iter:  19  20:22:24  -4.01  -2.43  -264.128440    3             
iter:  20  20:23:15  -3.88  -2.65  -264.098397    2             
iter:  21  20:24:07  -4.42  -2.73  -264.088278    3             
iter:  22  20:24:56  -4.48  -2.76  -264.084478    3             
iter:  23  20:25:47  -4.50  -2.80  -264.110823    3             
iter:  24  20:26:52  -4.28  -2.73  -264.093444    3             
iter:  25  20:27:58  -4.59  -2.83  -264.088184    3             
iter:  26  20:29:04  -4.92  -2.93  -264.081117    3             
iter:  27  20:30:10  -5.50  -3.08  -264.076849    2             
iter:  28  20:31:16  -5.74  -3.16  -264.076263    2             
iter:  29  20:32:07  -5.53  -3.21  -264.079980    3             
iter:  30  20:32:58  -5.65  -3.16  -264.073720    2             
iter:  31  20:33:58  -5.59  -3.26  -264.075307    2             
iter:  32  20:34:58  -5.75  -3.32  -264.073861    3             
iter:  33  20:35:57  -5.85  -3.37  -264.071521    2             
iter:  34  20:36:58  -5.69  -3.44  -264.071919    2             
iter:  35  20:37:59  -6.08  -3.52  -264.073152    2             
iter:  36  20:38:59  -6.40  -3.47  -264.071506    2             
iter:  37  20:39:58  -6.07  -3.58  -264.072389    2             
iter:  38  20:40:59  -6.32  -3.57  -264.072342    2             
iter:  39  20:42:00  -6.07  -3.60  -264.070719    2             
iter:  40  20:43:00  -6.42  -3.71  -264.071399    2             
iter:  41  20:44:02  -6.83  -3.78  -264.071525    2             
iter:  42  20:45:03  -6.96  -3.77  -264.070857    2             
iter:  43  20:46:01  -6.55  -3.88  -264.070885    2             
iter:  44  20:47:01  -6.62  -3.98  -264.070961    2             
iter:  45  20:48:03  -6.76  -4.01  -264.070333    2             
iter:  46  20:49:04  -7.51  -4.00  -264.070717    2             
iter:  47  20:50:06  -7.64  -4.17  -264.070680    2             

Converged after 47 iterations.

Dipole moment: (23.210676, 18.883898, -0.303312) |e|*Ang

Energy contributions relative to reference atoms: (reference = -16429278.754816)

Kinetic:       -165.225202
Potential:     +106.820199
External:        +0.000000
XC:            -198.443113
Entropy (-ST):   -2.087979
Local:           -6.178575
--------------------------
Free energy:   -265.114669
Extrapolated:  -264.070680

Fermi level: 1.20560

Showing only first 2 kpts
 Kpt  Band  Eigenvalues  Occupancy
  0   357      1.20366    0.12621
  0   358      1.22546    0.11263
  0   359      1.25685    0.09366
  0   360      1.30417    0.06794

  1   357      1.08626    0.19184
  1   358      1.13424    0.16780
  1   359      1.15831    0.15402
  1   360      1.18690    0.13666



Forces in eV/Ang:
  0 Ag   -0.42096    0.15828   -1.05545
  1 Ag    0.24857    0.22510   -0.86944
  2 Ir    0.49778   -0.17018    0.02298
  3 Ir   -0.10735    1.21019    1.40497
  4 Ir    0.41954    0.39747    0.87530
  5 Ir   -0.33347   -0.03118    1.20750
  6 Ir   -1.71834   -0.50006    0.73183
  7 Ag   -0.12192   -0.34395   -0.95528
  8 Pt    1.05569   -0.37699    0.49813
  9 Ag    0.13715    0.01670    0.16065
 10 Ir    0.01325   -0.41683    0.95883
 11 Ir   -0.63893   -0.76347   -0.53110
 12 Ir    0.37971    0.16982    0.16200
 13 Ag   -0.01109   -0.03916    0.14950
 14 Ag    0.05303    0.08599    0.12709
 15 Pt   -0.13503   -0.04086   -0.60393
 16 Ru    0.63066    0.45228   -1.38844
 17 Ir    0.11973    0.28540   -1.26798
 18 Ir   -0.11082   -0.01017   -0.30598
 19 Pt   -0.01069    0.01848    0.00757
 20 Pt    0.03590    0.01518    0.05824
 21 Ag    0.00595    0.01073    0.03512
 22 Ag    0.01785   -0.00134    0.03004
 23 Ag    0.00691   -0.00102   -0.00888
 24 Pt    0.01826    0.02291    0.05907
 25 Ag   -0.00821   -0.03086   -0.00158
 26 Ir    0.02461   -0.04147    0.01043
 27 Ru   -0.18527   -0.01639    0.36093
 28 Ir    0.21276   -0.03001    0.40441
 29 Ir   -0.06532   -0.03727   -0.15238
 30 Ir   -0.01201   -0.00401    0.07016
 31 Ir   -0.00471    0.04099   -0.15557
 32 Pt    0.03478    0.08086   -0.13444
 33 Ag   -0.01270   -0.03577   -0.03782
 34 Ir   -0.03119   -0.15703    0.28181
 35 Ru    0.03756   -0.03526    0.06830
 36 Ir    0.03749   -0.06741   -0.12258
 37 Ir    0.03635    0.06337   -0.06615
 38 Pt   -0.08240   -0.33881   -0.03108
 39 Ag    0.00787   -0.02685   -0.01143
 40 Ir    0.61304    0.43680    1.14207
 41 Pt   -0.19301    0.18234    0.91221
 42 Ir   -0.39137    0.14725   -0.06556
 43 Ir    0.06895   -0.52108    1.21830
 44 Ag    0.09096    0.01605   -0.02507
 45 O    -0.09415    0.05473   -3.17421

System changes: positions 

Initializing position-dependent things.

Density initialized from wave functions
                                             
                                             
                                             
                                             
                                             
                                             
                       O       Ag            
                  Ir    Ir                   
            Ag     Ir     Pt    Ru           
                  Ag                         
       Ir    IIr    IPt     Pt               
                                             
         Ru    Ir    PIr    Ag     Ir        
                Ag     Ag     Ag             
                                             
           Ir    PPt    RPt    Ir            
                                             
            Ir    IAg    AAg    Pt           
       Ag     Ir     Ir                      
             Ir     Ir     Ir                
        Ag     Ag     Ir                     
                                             
                                             
                                             
                                             
                                             

Positions:
   0 Ag     0.000000    1.621936   10.000000    ( 0.0000,  0.0000,  0.0000)
   1 Ag     2.809275    1.621936   10.000000    ( 0.0000,  0.0000,  0.0000)
   2 Ir     5.618550    1.621936   10.000000    ( 0.0000,  0.0000,  0.0000)
   3 Ir     1.404638    4.054840   10.000000    ( 0.0000,  0.0000,  0.0000)
   4 Ir     4.213913    4.054840   10.000000    ( 0.0000,  0.0000,  0.0000)
   5 Ir     7.023188    4.054840   10.000000    ( 0.0000,  0.0000,  0.0000)
   6 Ir     2.809275    6.487743   10.000000    ( 0.0000,  0.0000,  0.0000)
   7 Ag     5.618550    6.487743   10.000000    ( 0.0000,  0.0000,  0.0000)
   8 Pt     8.427826    6.487743   10.000000    ( 0.0000,  0.0000,  0.0000)
   9 Ag     0.000000    0.000000   12.293764    ( 0.0000,  0.0000,  0.0000)
  10 Ir     2.809275    0.000000   12.293764    ( 0.0000,  0.0000,  0.0000)
  11 Ir     5.618550    0.000000   12.293764    ( 0.0000,  0.0000,  0.0000)
  12 Ir     1.404638    2.432904   12.293764    ( 0.0000,  0.0000,  0.0000)
  13 Ag     4.213913    2.432904   12.293764    ( 0.0000,  0.0000,  0.0000)
  14 Ag     7.023188    2.432904   12.293764    ( 0.0000,  0.0000,  0.0000)
  15 Pt     2.809275    4.865807   12.293764    ( 0.0000,  0.0000,  0.0000)
  16 Ru     5.618550    4.865807   12.293764    ( 0.0000,  0.0000,  0.0000)
  17 Ir     8.427826    4.865807   12.293764    ( 0.0000,  0.0000,  0.0000)
  18 Ir     1.434660    0.790478   14.573979    ( 0.0000,  0.0000,  0.0000)
  19 Pt     4.192807    0.731026   14.611681    ( 0.0000,  0.0000,  0.0000)
  20 Pt     7.037084    0.804555   14.638478    ( 0.0000,  0.0000,  0.0000)
  21 Ag     2.789949    3.267725   14.610317    ( 0.0000,  0.0000,  0.0000)
  22 Ag     5.615267    3.230532   14.631593    ( 0.0000,  0.0000,  0.0000)
  23 Ag     8.465195    3.239317   14.607371    ( 0.0000,  0.0000,  0.0000)
  24 Pt     4.238380    5.676706   14.603410    ( 0.0000,  0.0000,  0.0000)
  25 Ag     7.019772    5.622693   14.588839    ( 0.0000,  0.0000,  0.0000)
  26 Ir     9.811846    5.746423   14.535042    ( 0.0000,  0.0000,  0.0000)
  27 Ru     0.077058    1.654789   16.948392    ( 0.0000,  0.0000,  0.0000)
  28 Ir     2.759115    1.625888   16.900630    ( 0.0000,  0.0000,  0.0000)
  29 Ir     5.547733    1.595489   16.879635    ( 0.0000,  0.0000,  0.0000)
  30 Ir     1.358038    4.007071   17.017645    ( 0.0000,  0.0000,  0.0000)
  31 Ir     4.198043    3.980492   16.947906    ( 0.0000,  0.0000,  0.0000)
  32 Pt     7.127572    4.061338   16.989963    ( 0.0000,  0.0000,  0.0000)
  33 Ag     2.758888    6.472582   16.800061    ( 0.0000,  0.0000,  0.0000)
  34 Ir     5.661697    6.553378   16.881770    ( 0.0000,  0.0000,  0.0000)
  35 Ru     8.401940    6.480857   16.870924    ( 0.0000,  0.0000,  0.0000)
  36 Ir     0.018219   -0.060073   18.990436    ( 0.0000,  0.0000,  0.0000)
  37 Ir     2.778958   -0.021120   18.980326    ( 0.0000,  0.0000,  0.0000)
  38 Pt     5.618787   -0.073621   19.130381    ( 0.0000,  0.0000,  0.0000)
  39 Ag     1.411686    2.422858   19.549523    ( 0.0000,  0.0000,  0.0000)
  40 Ir     4.267027    2.430680   19.090479    ( 0.0000,  0.0000,  0.0000)
  41 Pt     6.952421    2.325236   19.185963    ( 0.0000,  0.0000,  0.0000)
  42 Ir     2.895899    4.894497   19.039663    ( 0.0000,  0.0000,  0.0000)
  43 Ir     5.529302    4.917045   19.103538    ( 0.0000,  0.0000,  0.0000)
  44 Ag     8.412811    4.877495   19.534272    ( 0.0000,  0.0000,  0.0000)
  45 O      5.566724    3.225709   20.650360    ( 0.0000,  0.0000,  0.0000)

Unit cell:
           periodic     x           y           z      points  spacing
  1. axis:    yes    8.445283    0.000000    0.000000    35     0.2090
  2. axis:    yes    4.222641    7.313829    0.000000    35     0.2090
  3. axis:    no     0.000000    0.000000   29.175054   135     0.2161

  Lengths:   8.445283   8.445283  29.175054
  Angles:   90.000000  90.000000  60.000000

Effective grid spacing dv^(1/3) = 0.2217

                     log10-error:    total        iterations:
           time      wfs    density  energy       fermi  poisson
iter:   1  20:51:42  -1.92   +inf  -271.610194    32            
iter:   2  20:52:43  -1.51  -1.86  -300.343744    38            
iter:   3  20:53:44  -1.48  -1.42  -314.400622    3             
iter:   4  20:54:43  -2.22  -1.39  -266.169041    37            
iter:   5  20:55:43  -2.95  -2.13  -265.370851    3             
iter:   6  20:56:44  -3.58  -2.37  -265.256244    3             
iter:   7  20:57:45  -3.84  -2.38  -264.930473    3             
iter:   8  20:58:43  -4.13  -2.73  -264.885603    2             
iter:   9  20:59:42  -3.88  -2.82  -264.914763    2             
iter:  10  21:00:36  -3.98  -2.58  -264.999386    3             
iter:  11  21:01:33  -4.06  -2.52  -264.819297    2             
iter:  12  21:02:32  -4.74  -3.13  -264.819700    3             
iter:  13  21:03:30  -5.12  -3.14  -264.813972    3             
iter:  14  21:04:25  -5.74  -3.31  -264.815142    2             
iter:  15  21:05:22  -6.07  -3.37  -264.813221    2             
iter:  16  21:06:19  -5.67  -3.43  -264.818464    2             
iter:  17  21:07:17  -5.91  -3.28  -264.813345    2             
iter:  18  21:08:17  -5.78  -3.60  -264.813597    3             
iter:  19  21:09:21  -5.71  -3.54  -264.813488    3             
iter:  20  21:10:28  -6.16  -3.74  -264.814818    2             
iter:  21  21:11:34  -6.37  -3.62  -264.812644    2             
iter:  22  21:12:40  -6.73  -3.94  -264.813254    2             
iter:  23  21:13:47  -6.75  -3.92  -264.812590    2             
iter:  24  21:14:53  -6.31  -4.11  -264.812363    2             
iter:  25  21:15:45  -6.86  -4.10  -264.812652    2             
iter:  26  21:16:36  -7.02  -4.23  -264.812762    2             
iter:  27  21:17:28  -7.41  -4.31  -264.812311    2             

Converged after 27 iterations.

Dipole moment: (24.403184, 19.538958, -0.155130) |e|*Ang

Energy contributions relative to reference atoms: (reference = -16429278.754816)

Kinetic:       -161.468216
Potential:     +103.026946
External:        +0.000000
XC:            -198.991577
Entropy (-ST):   -2.106236
Local:           -6.326346
--------------------------
Free energy:   -265.865429
Extrapolated:  -264.812311

Fermi level: 1.27567

Showing only first 2 kpts
 Kpt  Band  Eigenvalues  Occupancy
  0   357      1.26390    0.13235
  0   358      1.28785    0.11740
  0   359      1.33702    0.08781
  0   360      1.35888    0.07580

  1   357      1.15242    0.19356
  1   358      1.20102    0.16960
  1   359      1.23114    0.15238
  1   360      1.25028    0.14078



Forces in eV/Ang:
  0 Ag   -0.41776    0.15730   -1.06070
  1 Ag    0.24949    0.22619   -0.87512
  2 Ir    0.49147   -0.16525    0.03248
  3 Ir   -0.11373    1.20050    1.38803
  4 Ir    0.41897    0.39225    0.88110
  5 Ir   -0.33132   -0.02915    1.20715
  6 Ir   -1.69949   -0.49194    0.74036
  7 Ag   -0.12195   -0.33848   -0.96112
  8 Pt    1.04454   -0.37142    0.49679
  9 Ag    0.10493    0.00348    0.13980
 10 Ir    0.04107   -0.44069    0.97763
 11 Ir   -0.63973   -0.76495   -0.52386
 12 Ir    0.37903    0.18565    0.20612
 13 Ag   -0.00256   -0.03074    0.16055
 14 Ag    0.04293    0.08529    0.13069
 15 Pt   -0.13098   -0.04629   -0.60717
 16 Ru    0.62992    0.43789   -1.39287
 17 Ir    0.11196    0.29521   -1.27701
 18 Ir   -0.06243   -0.00049   -0.04899
 19 Pt   -0.05723    0.00583    0.03229
 20 Pt    0.02653    0.02777    0.07374
 21 Ag   -0.00731   -0.05130    0.07225
 22 Ag    0.02206    0.00297   -0.02319
 23 Ag    0.01494   -0.02255    0.03216
 24 Pt    0.04510   -0.00945    0.08417
 25 Ag   -0.00462    0.02263    0.01873
 26 Ir   -0.00105   -0.01739   -0.02149
 27 Ru   -0.07900   -0.01583    0.25878
 28 Ir    0.13384    0.02523    0.23770
 29 Ir   -0.08064    0.06331    0.12394
 30 Ir    0.00073   -0.10284    0.04765
 31 Ir    0.10029   -0.00358    0.32915
 32 Pt   -0.09589   -0.00966    0.01902
 33 Ag   -0.00221   -0.00107   -0.05521
 34 Ir    0.02383   -0.20800    0.03918
 35 Ru   -0.03262   -0.00521    0.02817
 36 Ir    0.05446   -0.10287    0.03647
 37 Ir    0.10538   -0.00511    0.16889
 38 Pt   -0.02259   -0.15282   -0.05047
 39 Ag    0.03914   -0.04398   -0.01056
 40 Ir    0.09751    0.23762    0.01993
 41 Pt    0.36023   -0.19731    0.15207
 42 Ir   -0.13620    0.10032   -0.05020
 43 Ir   -0.17379   -0.13250    0.51837
 44 Ag    0.05469   -0.02690   -0.02266
 45 O    -0.26441    0.41429   -1.58042

System changes: positions 

Initializing position-dependent things.

Density initialized from wave functions
                                             
                                             
                                             
                                             
                                             
                                             
                       OIr     Ag            
                  Ir                         
            Ag    AIr     Pt    Ru           
                                             
       Ir    IIr    IPt    Pt                
         Ru    Ir     Ir                     
                     Pt     Ag     Ir        
                Ag     Ag     Ag             
                                             
           Ir    PPt    RPt    Ir            
                                             
            Ir    IAg    AAg    Pt           
       Ag    IIr    IIr    Ir                
                                             
        Ag     Ag     Ir                     
                                             
                                             
                                             
                                             
                                             

Positions:
   0 Ag     0.000000    1.621936   10.000000    ( 0.0000,  0.0000,  0.0000)
   1 Ag     2.809275    1.621936   10.000000    ( 0.0000,  0.0000,  0.0000)
   2 Ir     5.618550    1.621936   10.000000    ( 0.0000,  0.0000,  0.0000)
   3 Ir     1.404638    4.054840   10.000000    ( 0.0000,  0.0000,  0.0000)
   4 Ir     4.213913    4.054840   10.000000    ( 0.0000,  0.0000,  0.0000)
   5 Ir     7.023188    4.054840   10.000000    ( 0.0000,  0.0000,  0.0000)
   6 Ir     2.809275    6.487743   10.000000    ( 0.0000,  0.0000,  0.0000)
   7 Ag     5.618550    6.487743   10.000000    ( 0.0000,  0.0000,  0.0000)
   8 Pt     8.427826    6.487743   10.000000    ( 0.0000,  0.0000,  0.0000)
   9 Ag     0.000000    0.000000   12.293764    ( 0.0000,  0.0000,  0.0000)
  10 Ir     2.809275    0.000000   12.293764    ( 0.0000,  0.0000,  0.0000)
  11 Ir     5.618550    0.000000   12.293764    ( 0.0000,  0.0000,  0.0000)
  12 Ir     1.404638    2.432904   12.293764    ( 0.0000,  0.0000,  0.0000)
  13 Ag     4.213913    2.432904   12.293764    ( 0.0000,  0.0000,  0.0000)
  14 Ag     7.023188    2.432904   12.293764    ( 0.0000,  0.0000,  0.0000)
  15 Pt     2.809275    4.865807   12.293764    ( 0.0000,  0.0000,  0.0000)
  16 Ru     5.618550    4.865807   12.293764    ( 0.0000,  0.0000,  0.0000)
  17 Ir     8.427826    4.865807   12.293764    ( 0.0000,  0.0000,  0.0000)
  18 Ir     1.427107    0.790434   14.568432    ( 0.0000,  0.0000,  0.0000)
  19 Pt     4.185727    0.731717   14.615673    ( 0.0000,  0.0000,  0.0000)
  20 Pt     7.040312    0.807974   14.647525    ( 0.0000,  0.0000,  0.0000)
  21 Ag     2.789032    3.261344   14.619218    ( 0.0000,  0.0000,  0.0000)
  22 Ag     5.617972    3.230902   14.628664    ( 0.0000,  0.0000,  0.0000)
  23 Ag     8.467036    3.236523   14.611375    ( 0.0000,  0.0000,  0.0000)
  24 Pt     4.243942    5.675494   14.613747    ( 0.0000,  0.0000,  0.0000)
  25 Ag     7.019214    5.625553   14.591165    ( 0.0000,  0.0000,  0.0000)
  26 Ir     9.811673    5.744338   14.532359    ( 0.0000,  0.0000,  0.0000)
  27 Ru     0.067580    1.652853   16.979865    ( 0.0000,  0.0000,  0.0000)
  28 Ir     2.775348    1.629069   16.929413    ( 0.0000,  0.0000,  0.0000)
  29 Ir     5.537844    1.603406   16.895270    ( 0.0000,  0.0000,  0.0000)
  30 Ir     1.358149    3.994322   17.023434    ( 0.0000,  0.0000,  0.0000)
  31 Ir     4.210490    3.979977   16.989000    ( 0.0000,  0.0000,  0.0000)
  32 Pt     7.115618    4.059999   16.992555    ( 0.0000,  0.0000,  0.0000)
  33 Ag     2.758635    6.472512   16.793278    ( 0.0000,  0.0000,  0.0000)
  34 Ir     5.664707    6.527851   16.886142    ( 0.0000,  0.0000,  0.0000)
  35 Ru     8.397829    6.480271   16.874300    ( 0.0000,  0.0000,  0.0000)
  36 Ir     0.024909   -0.072716   18.995172    ( 0.0000,  0.0000,  0.0000)
  37 Ir     2.791965   -0.021863   19.001388    ( 0.0000,  0.0000,  0.0000)
  38 Pt     5.616128   -0.091990   19.124175    ( 0.0000,  0.0000,  0.0000)
  39 Ag     1.416526    2.417449   19.548233    ( 0.0000,  0.0000,  0.0000)
  40 Ir     4.278062    2.459398   19.090976    ( 0.0000,  0.0000,  0.0000)
  41 Pt     6.997436    2.300447   19.203248    ( 0.0000,  0.0000,  0.0000)
  42 Ir     2.879682    4.906686   19.033550    ( 0.0000,  0.0000,  0.0000)
  43 Ir     5.507627    4.901512   19.165727    ( 0.0000,  0.0000,  0.0000)
  44 Ag     8.419437    4.874131   19.531504    ( 0.0000,  0.0000,  0.0000)
  45 O      5.534092    3.277000   20.459823    ( 0.0000,  0.0000,  0.0000)

Unit cell:
           periodic     x           y           z      points  spacing
  1. axis:    yes    8.445283    0.000000    0.000000    35     0.2090
  2. axis:    yes    4.222641    7.313829    0.000000    35     0.2090
  3. axis:    no     0.000000    0.000000   29.175054   135     0.2161

  Lengths:   8.445283   8.445283  29.175054
  Angles:   90.000000  90.000000  60.000000

Effective grid spacing dv^(1/3) = 0.2217

                     log10-error:    total        iterations:
           time      wfs    density  energy       fermi  poisson
iter:   1  21:18:44  -1.83   +inf  -295.348276    3             
iter:   2  21:19:36  +0.08  -1.46  -698.488827    38            
iter:   3  21:20:27  -0.79  -0.88  -279.151549    37            
iter:   4  21:21:18  -1.90  -1.64  -265.758108    36            
iter:   5  21:22:10  -2.96  -2.36  -266.200173    3             
iter:   6  21:23:01  -3.25  -2.12  -265.807683    2             
iter:   7  21:23:53  -3.77  -2.22  -265.249997    3             
iter:   8  21:24:44  -3.75  -2.57  -265.168721    3             
iter:   9  21:25:37  -4.19  -2.63  -265.124088    3             
iter:  10  21:26:29  -4.25  -2.75  -265.099544    3             
iter:  11  21:27:30  -3.94  -2.81  -265.159259    3             
iter:  12  21:28:30  -4.39  -2.65  -265.118007    2             
iter:  13  21:29:30  -4.45  -2.69  -265.066427    3             
iter:  14  21:30:31  -4.98  -3.12  -265.063955    3             
iter:  15  21:31:32  -5.21  -3.19  -265.062736    3             
iter:  16  21:32:36  -5.09  -3.19  -265.059086    2             
iter:  17  21:33:41  -5.33  -3.30  -265.064016    2             
iter:  18  21:34:46  -5.31  -3.25  -265.065160    2             
iter:  19  21:35:51  -5.60  -3.01  -265.057005    2             
iter:  20  21:36:56  -5.69  -3.51  -265.057964    2             
iter:  21  21:38:00  -5.90  -3.58  -265.057401    3             
iter:  22  21:39:05  -6.06  -3.64  -265.057002    2             
iter:  23  21:40:10  -6.29  -3.73  -265.058792    2             
iter:  24  21:41:15  -6.25  -3.60  -265.056581    2             
iter:  25  21:42:19  -6.32  -3.60  -265.057418    2             
iter:  26  21:43:24  -6.23  -3.81  -265.058426    2             
iter:  27  21:44:29  -6.46  -3.64  -265.057639    2             
iter:  28  21:45:34  -6.82  -3.78  -265.057549    2             
iter:  29  21:46:34  -6.91  -3.80  -265.057934    2             
iter:  30  21:47:40  -6.42  -3.74  -265.056469    2             
iter:  31  21:48:46  -7.09  -4.08  -265.057043    2             
iter:  32  21:49:53  -7.63  -4.10  -265.057062    2             

Converged after 32 iterations.

Dipole moment: (25.126952, 20.512703, -0.056298) |e|*Ang

Energy contributions relative to reference atoms: (reference = -16429278.754816)

Kinetic:       -151.379189
Potential:      +94.502617
External:        +0.000000
XC:            -200.765678
Entropy (-ST):   -2.105614
Local:           -6.362006
--------------------------
Free energy:   -266.109869
Extrapolated:  -265.057062

Fermi level: 1.32829

Showing only first 2 kpts
 Kpt  Band  Eigenvalues  Occupancy
  0   357      1.31004    0.13638
  0   358      1.33244    0.12241
  0   359      1.39663    0.08388
  0   360      1.40264    0.08056

  1   357      1.20822    0.19216
  1   358      1.24261    0.17550
  1   359      1.28219    0.15331
  1   360      1.29995    0.14259



Forces in eV/Ang:
  0 Ag   -0.41709    0.15841   -1.05774
  1 Ag    0.24906    0.22764   -0.87330
  2 Ir    0.49080   -0.16463    0.03368
  3 Ir   -0.11636    1.20427    1.39048
  4 Ir    0.41623    0.39343    0.89471
  5 Ir   -0.32702   -0.03041    1.20705
  6 Ir   -1.69455   -0.49195    0.75927
  7 Ag   -0.12096   -0.33673   -0.95782
  8 Pt    1.04001   -0.37356    0.50793
  9 Ag    0.08249   -0.01163    0.15917
 10 Ir    0.04686   -0.44998    0.99700
 11 Ir   -0.63802   -0.75860   -0.48775
 12 Ir    0.38219    0.18736    0.25342
 13 Ag   -0.01093   -0.02906    0.18548
 14 Ag    0.05086    0.07356    0.14858
 15 Pt   -0.11747   -0.05521   -0.54994
 16 Ru    0.62954    0.45007   -1.38349
 17 Ir    0.11117    0.29953   -1.26160
 18 Ir   -0.04110   -0.01187    0.06534
 19 Pt   -0.00378    0.01483    0.07455
 20 Pt   -0.02032    0.01187    0.05918
 21 Ag    0.05717    0.00679    0.13749
 22 Ag   -0.03304   -0.00804    0.05471
 23 Ag   -0.00405   -0.00713    0.07228
 24 Pt   -0.00142   -0.03661    0.03424
 25 Ag    0.02254   -0.01531    0.00368
 26 Ir    0.00223    0.01801    0.00086
 27 Ru    0.08744   -0.07024    0.03188
 28 Ir   -0.06858   -0.11092    0.02906
 29 Ir    0.02547   -0.06273   -0.09934
 30 Ir   -0.04096   -0.06862    0.02969
 31 Ir    0.03608    0.16992   -0.39856
 32 Pt   -0.06712   -0.01366    0.06472
 33 Ag   -0.01844    0.00499   -0.00800
 34 Ir    0.08826   -0.01480    0.09653
 35 Ru   -0.04559    0.00701    0.02463
 36 Ir    0.09293   -0.06380    0.05507
 37 Ir   -0.01120   -0.12497   -0.05626
 38 Pt   -0.00837   -0.04077   -0.02455
 39 Ag    0.09044   -0.03936    0.05030
 40 Ir   -0.51174   -0.49293   -0.37509
 41 Pt    0.50080   -0.42069   -0.20112
 42 Ir   -0.23455    0.12435    0.11074
 43 Ir    0.08314    0.62053   -0.11455
 44 Ag   -0.00547   -0.06361   -0.02832
 45 O     0.06204    0.49710    0.72489

System changes: positions 

Initializing position-dependent things.

Density initialized from wave functions
                                             
                                             
                                             
                                             
                                             
                                             
                       OIr     Ag            
                  Ir                         
            Ag    AIr     Pt    Ru           
                                             
       Ir    IIr    IPt    Pt                
         Ru    Ir                            
                     PIr    Ag     Ir        
                Ag     Ag     Ag             
                                             
           Ir    PPt    RPt    Ir            
                                             
            Ir    IAg    AAg    Pt           
       Ag    IIr    IIr    Ir                
                                             
        Ag     Ag     Ir                     
                                             
                                             
                                             
                                             
                                             

Positions:
   0 Ag     0.000000    1.621936   10.000000    ( 0.0000,  0.0000,  0.0000)
   1 Ag     2.809275    1.621936   10.000000    ( 0.0000,  0.0000,  0.0000)
   2 Ir     5.618550    1.621936   10.000000    ( 0.0000,  0.0000,  0.0000)
   3 Ir     1.404638    4.054840   10.000000    ( 0.0000,  0.0000,  0.0000)
   4 Ir     4.213913    4.054840   10.000000    ( 0.0000,  0.0000,  0.0000)
   5 Ir     7.023188    4.054840   10.000000    ( 0.0000,  0.0000,  0.0000)
   6 Ir     2.809275    6.487743   10.000000    ( 0.0000,  0.0000,  0.0000)
   7 Ag     5.618550    6.487743   10.000000    ( 0.0000,  0.0000,  0.0000)
   8 Pt     8.427826    6.487743   10.000000    ( 0.0000,  0.0000,  0.0000)
   9 Ag     0.000000    0.000000   12.293764    ( 0.0000,  0.0000,  0.0000)
  10 Ir     2.809275    0.000000   12.293764    ( 0.0000,  0.0000,  0.0000)
  11 Ir     5.618550    0.000000   12.293764    ( 0.0000,  0.0000,  0.0000)
  12 Ir     1.404638    2.432904   12.293764    ( 0.0000,  0.0000,  0.0000)
  13 Ag     4.213913    2.432904   12.293764    ( 0.0000,  0.0000,  0.0000)
  14 Ag     7.023188    2.432904   12.293764    ( 0.0000,  0.0000,  0.0000)
  15 Pt     2.809275    4.865807   12.293764    ( 0.0000,  0.0000,  0.0000)
  16 Ru     5.618550    4.865807   12.293764    ( 0.0000,  0.0000,  0.0000)
  17 Ir     8.427826    4.865807   12.293764    ( 0.0000,  0.0000,  0.0000)
  18 Ir     1.421918    0.789390   14.569633    ( 0.0000,  0.0000,  0.0000)
  19 Pt     4.184598    0.733149   14.621989    ( 0.0000,  0.0000,  0.0000)
  20 Pt     7.039443    0.809414   14.653704    ( 0.0000,  0.0000,  0.0000)
  21 Ag     2.793474    3.261346   14.631252    ( 0.0000,  0.0000,  0.0000)
  22 Ag     5.615857    3.230297   14.632973    ( 0.0000,  0.0000,  0.0000)
  23 Ag     8.466981    3.235672   14.617334    ( 0.0000,  0.0000,  0.0000)
  24 Pt     4.244593    5.672760   14.618117    ( 0.0000,  0.0000,  0.0000)
  25 Ag     7.020830    5.624308   14.591670    ( 0.0000,  0.0000,  0.0000)
  26 Ir     9.812099    5.745081   14.532269    ( 0.0000,  0.0000,  0.0000)
  27 Ru     0.071431    1.646986   16.989489    ( 0.0000,  0.0000,  0.0000)
  28 Ir     2.773955    1.620390   16.939020    ( 0.0000,  0.0000,  0.0000)
  29 Ir     5.538121    1.598895   16.887420    ( 0.0000,  0.0000,  0.0000)
  30 Ir     1.354826    3.987623   17.027108    ( 0.0000,  0.0000,  0.0000)
  31 Ir     4.214519    3.993659   16.960297    ( 0.0000,  0.0000,  0.0000)
  32 Pt     7.109541    4.059681   16.996407    ( 0.0000,  0.0000,  0.0000)
  33 Ag     2.757029    6.472503   16.791553    ( 0.0000,  0.0000,  0.0000)
  34 Ir     5.671572    6.522393   16.897213    ( 0.0000,  0.0000,  0.0000)
  35 Ru     8.394259    6.480375   16.877314    ( 0.0000,  0.0000,  0.0000)
  36 Ir     0.033262   -0.079720   18.998616    ( 0.0000,  0.0000,  0.0000)
  37 Ir     2.792803   -0.031015   18.998398    ( 0.0000,  0.0000,  0.0000)
  38 Pt     5.614303   -0.100742   19.121287    ( 0.0000,  0.0000,  0.0000)
  39 Ag     1.424173    2.413531   19.551910    ( 0.0000,  0.0000,  0.0000)
  40 Ir     4.245872    2.428541   19.074188    ( 0.0000,  0.0000,  0.0000)
  41 Pt     7.039035    2.267042   19.199247    ( 0.0000,  0.0000,  0.0000)
  42 Ir     2.855423    4.919252   19.040873    ( 0.0000,  0.0000,  0.0000)
  43 Ir     5.512688    4.942758   19.176387    ( 0.0000,  0.0000,  0.0000)
  44 Ag     8.420674    4.868992   19.528735    ( 0.0000,  0.0000,  0.0000)
  45 O      5.534610    3.321654   20.462507    ( 0.0000,  0.0000,  0.0000)

Unit cell:
           periodic     x           y           z      points  spacing
  1. axis:    yes    8.445283    0.000000    0.000000    35     0.2090
  2. axis:    yes    4.222641    7.313829    0.000000    35     0.2090
  3. axis:    no     0.000000    0.000000   29.175054   135     0.2161

  Lengths:   8.445283   8.445283  29.175054
  Angles:   90.000000  90.000000  60.000000

Effective grid spacing dv^(1/3) = 0.2217

                     log10-error:    total        iterations:
           time      wfs    density  energy       fermi  poisson
iter:   1  21:51:29  -2.14   +inf  -266.999168    3             
iter:   2  21:52:35  -2.20  -2.11  -286.149742    4             
iter:   3  21:53:41  -2.30  -1.53  -266.932275    3             
iter:   4  21:54:47  -3.60  -2.01  -265.281953    3             
iter:   5  21:55:52  -3.83  -2.55  -265.212115    3             
iter:   6  21:56:58  -4.37  -2.67  -265.164005    3             
iter:   7  21:58:04  -4.49  -2.95  -265.145264    2             
iter:   8  21:59:05  -4.30  -3.07  -265.143832    3             
iter:   9  22:00:03  -4.76  -3.08  -265.133956    3             
iter:  10  22:01:02  -5.04  -3.14  -265.137307    2             
iter:  11  22:01:56  -5.12  -3.18  -265.130691    2             
iter:  12  22:02:45  -5.36  -3.43  -265.131756    3             
iter:  13  22:03:34  -5.50  -3.34  -265.127950    3             
iter:  14  22:04:23  -6.14  -3.61  -265.129002    2             
iter:  15  22:05:12  -6.06  -3.58  -265.127449    2             
iter:  16  22:06:01  -6.50  -3.49  -265.127617    2             
iter:  17  22:06:49  -6.33  -3.74  -265.127080    2             
iter:  18  22:07:38  -6.11  -3.72  -265.127224    2             
iter:  19  22:08:24  -6.41  -3.78  -265.126742    2             
iter:  20  22:09:12  -6.54  -3.74  -265.127326    2             
iter:  21  22:09:59  -6.77  -4.11  -265.126831    2             
iter:  22  22:10:45  -6.68  -3.97  -265.127535    2             
iter:  23  22:11:33  -6.95  -4.07  -265.127291    2             
iter:  24  22:12:19  -7.37  -4.31  -265.127277    2             
iter:  25  22:13:07  -7.59  -4.36  -265.127190    2             

Converged after 25 iterations.

Dipole moment: (26.365160, 21.524569, -0.085826) |e|*Ang

Energy contributions relative to reference atoms: (reference = -16429278.754816)

Kinetic:       -155.590890
Potential:      +98.018575
External:        +0.000000
XC:            -200.150958
Entropy (-ST):   -2.113488
Local:           -6.347173
--------------------------
Free energy:   -266.183934
Extrapolated:  -265.127190

Fermi level: 1.31117

Showing only first 2 kpts
 Kpt  Band  Eigenvalues  Occupancy
  0   357      1.29148    0.13726
  0   358      1.31782    0.12084
  0   359      1.37422    0.08685
  0   360      1.38765    0.07940

  1   357      1.18939    0.19292
  1   358      1.22309    0.17675
  1   359      1.26650    0.15246
  1   360      1.28038    0.14409



Forces in eV/Ang:
  0 Ag   -0.41859    0.16135   -1.06043
  1 Ag    0.24986    0.22933   -0.87533
  2 Ir    0.49255   -0.16758    0.02469
  3 Ir   -0.11846    1.20025    1.38306
  4 Ir    0.41595    0.39595    0.88233
  5 Ir   -0.32780   -0.02821    1.19912
  6 Ir   -1.70004   -0.49423    0.75261
  7 Ag   -0.12027   -0.33993   -0.95894
  8 Pt    1.04550   -0.37469    0.50672
  9 Ag    0.07102   -0.01920    0.17441
 10 Ir    0.05135   -0.44723    1.01236
 11 Ir   -0.64007   -0.75445   -0.47121
 12 Ir    0.39298    0.18975    0.30090
 13 Ag   -0.01985   -0.02834    0.20433
 14 Ag    0.05338    0.07410    0.16814
 15 Pt   -0.11669   -0.06293   -0.52901
 16 Ru    0.63050    0.45105   -1.37458
 17 Ir    0.11275    0.29475   -1.25449
 18 Ir   -0.00633    0.00193    0.04042
 19 Pt   -0.02828   -0.01438    0.00025
 20 Pt    0.00647   -0.00432   -0.01266
 21 Ag   -0.02860   -0.03378    0.01905
 22 Ag    0.02764   -0.01396   -0.03896
 23 Ag    0.00788   -0.00701    0.04962
 24 Pt    0.01248    0.01799   -0.01867
 25 Ag    0.00606    0.00056    0.00129
 26 Ir   -0.00577    0.00747   -0.01414
 27 Ru    0.11109   -0.02902   -0.11803
 28 Ir   -0.08077   -0.01025   -0.08754
 29 Ir   -0.01864    0.01632    0.06627
 30 Ir   -0.00862   -0.00995    0.06524
 31 Ir    0.02682    0.05842    0.23366
 32 Pt   -0.06861   -0.07244    0.13216
 33 Ag   -0.00402   -0.01988    0.02586
 34 Ir   -0.01339   -0.03808   -0.10935
 35 Ru    0.02713   -0.03247   -0.04382
 36 Ir   -0.03462    0.04405    0.06956
 37 Ir    0.00995   -0.06226    0.12140
 38 Pt   -0.02563    0.07370   -0.00314
 39 Ag    0.09179   -0.02505    0.08806
 40 Ir    0.16731    0.02023   -0.07022
 41 Pt   -0.11580   -0.14225   -0.00507
 42 Ir    0.08953   -0.13350   -0.12176
 43 Ir   -0.02116    0.02990   -0.04887
 44 Ag   -0.03644   -0.10102   -0.00583
 45 O    -0.07334    0.14875   -0.12786

System changes: positions 

Initializing position-dependent things.

Density initialized from wave functions
                                             
                                             
                                             
                                             
                                             
                                             
                       OIr     Ag            
                  Ir                         
            Ag    AIr     Pt    Ru           
                                             
       Ir    IIr    IPt    Pt                
         Ru    Ir     Ir                     
                     Pt     Ag     Ir        
                Ag     Ag     Ag             
                                             
           Ir    PPt    RPt    Ir            
                                             
            Ir    IAg    AAg    Pt           
       Ag    IIr    IIr    Ir                
                                             
        Ag     Ag     Ir                     
                                             
                                             
                                             
                                             
                                             

Positions:
   0 Ag     0.000000    1.621936   10.000000    ( 0.0000,  0.0000,  0.0000)
   1 Ag     2.809275    1.621936   10.000000    ( 0.0000,  0.0000,  0.0000)
   2 Ir     5.618550    1.621936   10.000000    ( 0.0000,  0.0000,  0.0000)
   3 Ir     1.404638    4.054840   10.000000    ( 0.0000,  0.0000,  0.0000)
   4 Ir     4.213913    4.054840   10.000000    ( 0.0000,  0.0000,  0.0000)
   5 Ir     7.023188    4.054840   10.000000    ( 0.0000,  0.0000,  0.0000)
   6 Ir     2.809275    6.487743   10.000000    ( 0.0000,  0.0000,  0.0000)
   7 Ag     5.618550    6.487743   10.000000    ( 0.0000,  0.0000,  0.0000)
   8 Pt     8.427826    6.487743   10.000000    ( 0.0000,  0.0000,  0.0000)
   9 Ag     0.000000    0.000000   12.293764    ( 0.0000,  0.0000,  0.0000)
  10 Ir     2.809275    0.000000   12.293764    ( 0.0000,  0.0000,  0.0000)
  11 Ir     5.618550    0.000000   12.293764    ( 0.0000,  0.0000,  0.0000)
  12 Ir     1.404638    2.432904   12.293764    ( 0.0000,  0.0000,  0.0000)
  13 Ag     4.213913    2.432904   12.293764    ( 0.0000,  0.0000,  0.0000)
  14 Ag     7.023188    2.432904   12.293764    ( 0.0000,  0.0000,  0.0000)
  15 Pt     2.809275    4.865807   12.293764    ( 0.0000,  0.0000,  0.0000)
  16 Ru     5.618550    4.865807   12.293764    ( 0.0000,  0.0000,  0.0000)
  17 Ir     8.427826    4.865807   12.293764    ( 0.0000,  0.0000,  0.0000)
  18 Ir     1.419970    0.789265   14.573218    ( 0.0000,  0.0000,  0.0000)
  19 Pt     4.181920    0.732196   14.623558    ( 0.0000,  0.0000,  0.0000)
  20 Pt     7.039765    0.809278   14.653918    ( 0.0000,  0.0000,  0.0000)
  21 Ag     2.792033    3.258480   14.635991    ( 0.0000,  0.0000,  0.0000)
  22 Ag     5.617818    3.228794   14.630675    ( 0.0000,  0.0000,  0.0000)
  23 Ag     8.467644    3.234906   14.623425    ( 0.0000,  0.0000,  0.0000)
  24 Pt     4.245741    5.673836   14.617216    ( 0.0000,  0.0000,  0.0000)
  25 Ag     7.021843    5.623810   14.591817    ( 0.0000,  0.0000,  0.0000)
  26 Ir     9.811743    5.745974   14.531061    ( 0.0000,  0.0000,  0.0000)
  27 Ru     0.082909    1.642704   16.980456    ( 0.0000,  0.0000,  0.0000)
  28 Ir     2.765767    1.616847   16.933101    ( 0.0000,  0.0000,  0.0000)
  29 Ir     5.536718    1.598751   16.890426    ( 0.0000,  0.0000,  0.0000)
  30 Ir     1.353075    3.985447   17.034182    ( 0.0000,  0.0000,  0.0000)
  31 Ir     4.217555    4.003011   16.972282    ( 0.0000,  0.0000,  0.0000)
  32 Pt     7.102061    4.053030   17.009453    ( 0.0000,  0.0000,  0.0000)
  33 Ag     2.756192    6.470532   16.793740    ( 0.0000,  0.0000,  0.0000)
  34 Ir     5.671943    6.518081   16.890432    ( 0.0000,  0.0000,  0.0000)
  35 Ru     8.396145    6.477269   16.874017    ( 0.0000,  0.0000,  0.0000)
  36 Ir     0.032044   -0.077052   19.005573    ( 0.0000,  0.0000,  0.0000)
  37 Ir     2.793466   -0.039170   19.007904    ( 0.0000,  0.0000,  0.0000)
  38 Pt     5.611292   -0.096205   19.120413    ( 0.0000,  0.0000,  0.0000)
  39 Ag     1.434709    2.410283   19.561250    ( 0.0000,  0.0000,  0.0000)
  40 Ir     4.254081    2.421936   19.066029    ( 0.0000,  0.0000,  0.0000)
  41 Pt     7.036768    2.246195   19.199314    ( 0.0000,  0.0000,  0.0000)
  42 Ir     2.857018    4.909875   19.031464    ( 0.0000,  0.0000,  0.0000)
  43 Ir     5.513243    4.956076   19.175028    ( 0.0000,  0.0000,  0.0000)
  44 Ag     8.417504    4.858259   19.527497    ( 0.0000,  0.0000,  0.0000)
  45 O      5.529081    3.345566   20.451508    ( 0.0000,  0.0000,  0.0000)

Unit cell:
           periodic     x           y           z      points  spacing
  1. axis:    yes    8.445283    0.000000    0.000000    35     0.2090
  2. axis:    yes    4.222641    7.313829    0.000000    35     0.2090
  3. axis:    no     0.000000    0.000000   29.175054   135     0.2161

  Lengths:   8.445283   8.445283  29.175054
  Angles:   90.000000  90.000000  60.000000

Effective grid spacing dv^(1/3) = 0.2217

                     log10-error:    total        iterations:
           time      wfs    density  energy       fermi  poisson
iter:   1  22:14:14  -3.03   +inf  -265.395187    3             
iter:   2  22:15:09  -2.72  -2.46  -273.711979    3             
iter:   3  22:16:09  -2.99  -1.67  -265.181171    3             
iter:   4  22:17:10  -4.21  -2.92  -265.171574    3             
iter:   5  22:18:13  -5.08  -3.03  -265.157591    3             
iter:   6  22:19:12  -5.30  -3.22  -265.153337    2             
iter:   7  22:20:13  -5.20  -3.38  -265.150633    2             
iter:   8  22:21:16  -5.25  -3.55  -265.150410    2             
iter:   9  22:22:17  -5.68  -3.65  -265.149501    2             
iter:  10  22:23:18  -6.13  -3.46  -265.150421    2             
iter:  11  22:24:21  -6.36  -3.74  -265.149593    2             
iter:  12  22:25:24  -6.66  -3.84  -265.149428    2             
iter:  13  22:26:26  -6.54  -3.89  -265.149801    2             
iter:  14  22:27:25  -6.76  -4.04  -265.149812    2             
iter:  15  22:28:27  -7.19  -4.12  -265.149508    2             
iter:  16  22:29:28  -7.13  -4.03  -265.150291    2             
iter:  17  22:30:27  -7.21  -3.99  -265.149649    2             
iter:  18  22:31:29  -7.16  -4.23  -265.149548    2             
iter:  19  22:32:31  -7.53  -4.31  -265.149714    2             

Converged after 19 iterations.

Dipole moment: (25.804048, 21.438747, -0.080242) |e|*Ang

Energy contributions relative to reference atoms: (reference = -16429278.754816)

Kinetic:       -154.191509
Potential:      +96.733514
External:        +0.000000
XC:            -200.290837
Entropy (-ST):   -2.110552
Local:           -6.345606
--------------------------
Free energy:   -266.204990
Extrapolated:  -265.149714

Fermi level: 1.31446

Showing only first 2 kpts
 Kpt  Band  Eigenvalues  Occupancy
  0   357      1.29536    0.13690
  0   358      1.32071    0.12110
  0   359      1.37820    0.08646
  0   360      1.39083    0.07946

  1   357      1.19469    0.19203
  1   358      1.22682    0.17652
  1   359      1.26799    0.15353
  1   360      1.28497    0.14330



Forces in eV/Ang:
  0 Ag   -0.41886    0.16138   -1.05700
  1 Ag    0.25031    0.22929   -0.87076
  2 Ir    0.49209   -0.16831    0.03096
  3 Ir   -0.11731    1.20137    1.39396
  4 Ir    0.41786    0.39667    0.88742
  5 Ir   -0.32910   -0.02764    1.20503
  6 Ir   -1.69921   -0.49693    0.75376
  7 Ag   -0.11960   -0.34159   -0.95724
  8 Pt    1.04690   -0.37825    0.50560
  9 Ag    0.07424   -0.01848    0.17562
 10 Ir    0.05151   -0.44660    1.01048
 11 Ir   -0.64668   -0.75246   -0.46678
 12 Ir    0.39507    0.19007    0.31202
 13 Ag   -0.02932   -0.02982    0.20983
 14 Ag    0.06446    0.07712    0.17201
 15 Pt   -0.11689   -0.07110   -0.51267
 16 Ru    0.63292    0.45551   -1.37612
 17 Ir    0.11293    0.28682   -1.23973
 18 Ir   -0.00227    0.01700    0.00524
 19 Pt    0.00297   -0.00950   -0.02031
 20 Pt   -0.01175   -0.02048   -0.01431
 21 Ag    0.00351    0.02087    0.01073
 22 Ag   -0.00027    0.00024    0.01446
 23 Ag   -0.01122    0.02615    0.01561
 24 Pt   -0.01282   -0.00557   -0.02389
 25 Ag    0.00539   -0.03015    0.00030
 26 Ir   -0.00332    0.00164   -0.00244
 27 Ru    0.02801   -0.02323   -0.04793
 28 Ir    0.03143   -0.03325    0.01026
 29 Ir   -0.02625    0.01152   -0.02594
 30 Ir   -0.02722   -0.01692    0.02041
 31 Ir    0.05702   -0.06185    0.00069
 32 Pt   -0.01233   -0.07147    0.06356
 33 Ag    0.00905    0.03081   -0.00187
 34 Ir   -0.01736    0.00042    0.04802
 35 Ru   -0.00396   -0.01986   -0.01121
 36 Ir   -0.03213    0.03261   -0.05874
 37 Ir   -0.02730   -0.01902   -0.06745
 38 Pt   -0.04818   -0.06735    0.04098
 39 Ag    0.05649   -0.03670    0.06941
 40 Ir    0.09364    0.02690   -0.00227
 41 Pt   -0.05406   -0.03034    0.00278
 42 Ir    0.01909   -0.02717    0.04415
 43 Ir    0.02811   -0.01100   -0.02604
 44 Ag   -0.00656   -0.07330   -0.00020
 45 O    -0.02545    0.03898    0.00268

Timing:                                      incl.     excl.
-------------------------------------------------------------------
Density initialized from wave functions:    11.522    11.522   0.1% |
 Symmetrize density:                         0.000     0.000   0.0% |
Forces:                                     70.495    70.495   0.8% |
Hamiltonian:                                11.257     0.041   0.0% |
 Atomic:                                     2.687     1.302   0.0% |
  XC Correction:                             1.385     1.385   0.0% |
 Calculate atomic Hamiltonians:              3.638     3.638   0.0% |
 Communicate:                                0.978     0.978   0.0% |
 Initialize Hamiltonian:                     0.001     0.001   0.0% |
 Poisson:                                    0.023     0.023   0.0% |
 XC 3D grid:                                 3.889     3.889   0.0% |
LCAO initialization:                        49.919     2.677   0.0% |
 LCAO eigensolver:                           6.083     0.003   0.0% |
  Calculate projections:                     0.052     0.052   0.0% |
  DenseAtomicCorrection:                     0.042     0.042   0.0% |
  Distribute overlap matrix:                 0.279     0.279   0.0% |
  Orbital Layouts:                           0.508     0.508   0.0% |
  Potential matrix:                          5.141     5.141   0.1% |
  Sum over cells:                            0.057     0.057   0.0% |
 LCAO to grid:                              39.099    39.099   0.4% |
 Set positions (LCAO WFS):                   2.061     0.929   0.0% |
  Basic WFS set positions:                   0.002     0.002   0.0% |
  Basis functions set positions:             0.000     0.000   0.0% |
  P tci:                                     0.487     0.487   0.0% |
  ST tci:                                    0.482     0.482   0.0% |
  mktci:                                     0.161     0.161   0.0% |
PWDescriptor:                                0.033     0.033   0.0% |
Redistribute:                                0.032     0.032   0.0% |
SCF-cycle:                                8789.069   737.883   8.2% |--|
 Davidson:                                7333.928  1782.454  19.9% |-------|
  Apply H:                                1183.829  1148.003  12.8% |----|
   HMM T:                                   35.826    35.826   0.4% |
  Subspace diag:                          1050.647     0.041   0.0% |
   calc_h_matrix:                          584.493   190.869   2.1% ||
    Apply H:                               393.624   381.556   4.3% |-|
     HMM T:                                 12.068    12.068   0.1% |
   diagonalize:                             33.743    33.743   0.4% |
   rotate_psi:                             432.369   432.369   4.8% |-|
  calc. matrices:                         2145.930  1366.567  15.2% |-----|
   Apply H:                                779.363   755.356   8.4% |--|
    HMM T:                                  24.007    24.007   0.3% |
  diagonalize:                             331.208   331.208   3.7% ||
  rotate_psi:                              839.861   839.861   9.4% |---|
 Density:                                  373.076     0.008   0.0% |
  Atomic density matrices:                   2.429     2.429   0.0% |
  Mix:                                     128.753   128.753   1.4% ||
  Multipole moments:                         0.146     0.146   0.0% |
  Pseudo density:                          241.740   241.731   2.7% ||
   Symmetrize density:                       0.010     0.010   0.0% |
 Hamiltonian:                              319.615     1.330   0.0% |
  Atomic:                                   78.290    41.863   0.5% |
   XC Correction:                           36.427    36.427   0.4% |
  Calculate atomic Hamiltonians:           102.039   102.039   1.1% |
  Communicate:                              22.579    22.579   0.3% |
  Poisson:                                   0.660     0.660   0.0% |
  XC 3D grid:                              114.717   114.717   1.3% ||
 Orthonormalize:                            24.565     0.002   0.0% |
  calc_s_matrix:                             3.158     3.158   0.0% |
  inverse-cholesky:                          0.498     0.498   0.0% |
  projections:                              13.475    13.475   0.2% |
  rotate_psi_s:                              7.433     7.433   0.1% |
Set symmetry:                                0.001     0.001   0.0% |
Other:                                      33.099    33.099   0.4% |
-------------------------------------------------------------------
Total:                                              8965.429 100.0%

Date: Thu Mar  3 22:32:47 2022
