
  ___ ___ ___ _ _ _  
 |   |   |_  | | | | 
 | | | | | . | | | | 
 |__ |  _|___|_____|  1.5.1
 |___|_|             

User:   clausen@node423.cluster
Date:   Fri Mar  4 00:54:54 2022
Arch:   x86_64
Pid:    37221
Python: 3.6.12
gpaw:   /software/kemi/gpaw/1.5.1/gpaw
_gpaw:  /software/kemi/gpaw/1.5.1/bin/gpaw-python
ase:    /software/kemi/ase/3.17.0/ase (version 3.17.0)
numpy:  /opt/rh/rh-python36/root/usr/lib64/python3.6/site-packages/numpy (version 1.13.1)
scipy:  /opt/rh/rh-python36/root/usr/lib64/python3.6/site-packages/scipy (version 0.19.1)
units:  Angstrom and eV
cores:  16

Input parameters:
  kpts: [4 4 1]
  mode: {ecut: 400.0,
         gammacentered: False,
         name: pw}
  xc: RPBE

System changes: positions, numbers, cell, pbc, initial_charges, initial_magmoms 

Initialize ...

Pd-setup:
  name: Palladium
  id: 6da19bfba079f22767af9506641940b9
  Z: 46
  valence: 16
  core: 30
  charge: 0.0
  file: /software/kemi/gpaw-setups/0.9.20000/Pd.RPBE.gz
  cutoffs: 1.19(comp), 2.38(filt), 2.28(core), lmax=2
  valence states:
                energy  radius
    5s(0.00)    -3.225   1.228
    4p(6.00)   -51.131   1.360
    5p(0.00)    -0.373   1.360
    4d(10.00)    -3.964   1.228
    *s          23.987   1.228
    *d          23.247   1.228

  Using partial waves for Pd as LCAO basis

Ag-setup:
  name: Silver
  id: c05e55bab2c3858b3f9398f6d75cb77c
  Z: 47
  valence: 17
  core: 30
  charge: 0.0
  file: /software/kemi/gpaw-setups/0.9.20000/Ag.RPBE.gz
  cutoffs: 1.25(comp), 2.35(filt), 2.19(core), lmax=2
  valence states:
                energy  radius
    5s(1.00)    -4.277   1.286
    4p(6.00)   -58.523   1.328
    5p(0.00)    -0.755   1.328
    4d(10.00)    -7.386   1.180
    *s          22.934   1.286
    *d          19.826   1.180

  Using partial waves for Ag as LCAO basis

Pt-setup:
  name: Platinum
  id: f04f522592575c47ad794f6b4a415b4b
  Z: 78
  valence: 16
  core: 62
  charge: 0.0
  file: /software/kemi/gpaw-setups/0.9.20000/Pt.RPBE.gz
  cutoffs: 1.29(comp), 2.26(filt), 2.26(core), lmax=2
  valence states:
                energy  radius
    6s(1.00)    -5.516   1.307
    5p(6.00)   -55.971   1.371
    6p(0.00)    -0.856   1.371
    5d(9.00)    -6.087   1.307
    *s          21.695   1.307
    *d          21.125   1.307

  Using partial waves for Pt as LCAO basis

Ru-setup:
  name: Ruthenium
  id: 76477906e28f51dc1b29884d53556fe9
  Z: 44
  valence: 16
  core: 28
  charge: 0.0
  file: /software/kemi/gpaw-setups/0.9.20000/Ru.RPBE.gz
  cutoffs: 1.23(comp), 2.16(filt), 1.30(core), lmax=2
  valence states:
                energy  radius
    4s(2.00)   -76.255   1.281
    5s(1.00)    -4.126   1.281
    4p(6.00)   -46.371   1.286
    5p(0.00)    -0.913   1.286
    4d(7.00)    -5.146   1.254
    *d          22.066   1.254

  Using partial waves for Ru as LCAO basis

O-setup:
  name: Oxygen
  id: 08071ca1eed670e7821b24b7eb4d558c
  Z: 8
  valence: 6
  core: 2
  charge: 0.0
  file: /software/kemi/gpaw-setups/0.9.20000/O.RPBE.gz
  cutoffs: 0.67(comp), 1.17(filt), 0.83(core), lmax=2
  valence states:
                energy  radius
    2s(2.00)   -24.041   0.688
    2p(4.00)    -8.984   0.598
    *s           3.170   0.688
    *p          18.228   0.598
    *d           0.000   0.619

  Using partial waves for O as LCAO basis

H-setup:
  name: Hydrogen
  id: ea3f9156a1dc40d47a60fdce8f8bd75d
  Z: 1
  valence: 1
  core: 0
  charge: 0.0
  file: /software/kemi/gpaw-setups/0.9.20000/H.RPBE.gz
  cutoffs: 0.48(comp), 0.85(filt), 0.53(core), lmax=2
  valence states:
                energy  radius
    1s(1.00)    -6.572   0.476
    *s          20.639   0.476
    *p           0.000   0.476

  Using partial waves for H as LCAO basis

Reference energy: -9073466.092496

Spin-paired calculation

Occupation numbers:
  Fermi-Dirac: width=0.1000 eV

Convergence criteria:
  Maximum total energy change: 0.0005 eV / electron
  Maximum integral of absolute density change: 0.0001 electrons
  Maximum integral of absolute eigenstate change: 4e-08 eV^2
  Maximum number of iterations: 333

Symmetries present (total): 1

  ( 1  0  0)
  ( 0  1  0)
  ( 0  0  1)

16 k-points: 4 x 4 x 1 Monkhorst-Pack grid
8 k-points in the irreducible part of the Brillouin zone
       k-points in crystal coordinates                weights
   0:     0.12500000   -0.37500000    0.00000000          2/16
   1:     0.12500000   -0.12500000    0.00000000          2/16
   2:     0.12500000    0.12500000    0.00000000          2/16
   3:     0.12500000    0.37500000    0.00000000          2/16
   4:     0.37500000   -0.37500000    0.00000000          2/16
   5:     0.37500000   -0.12500000    0.00000000          2/16
   6:     0.37500000    0.12500000    0.00000000          2/16
   7:     0.37500000    0.37500000    0.00000000          2/16

Wave functions: Plane wave expansion
  Cutoff energy: 400.000 eV
  Number of coefficients (min, max): 32266, 32339
  Pulay-stress correction: 0.000000 eV/Ang^3 (de/decut=0.000000)
  Using FFTW library
  ScaLapack parameters: grid=1x1, blocksize=None
  Wavefunction extrapolation:
    Improved wavefunction reuse through dual PAW basis 

Eigensolver
   Davidson(niter=2, smin=None, normalize=True) 

Densities:
  Coarse grid: 35*35*135 grid
  Fine grid: 70*70*270 grid
  Total Charge: 0.000000 

Density mixing:
  Method: separate
  Backend: pulay
  Linear mixing parameter: 0.05
  Mixing with 5 old densities
  Damping of long wave oscillations: 50 

Hamiltonian:
  XC and Coulomb potentials evaluated on a 70*70*270 grid
  Using the RPBE Exchange-Correlation functional
 

XC parameters: RPBE with 2 nearest neighbor stencil

Memory estimate:
  Process memory now: 148.04 MiB
  Calculator: 552.99 MiB
    Density: 51.61 MiB
      Arrays: 16.41 MiB
      Localized functions: 28.84 MiB
      Mixer: 6.36 MiB
    Hamiltonian: 11.64 MiB
      Arrays: 10.73 MiB
      XC: 0.00 MiB
      Poisson: 0.00 MiB
      vbar: 0.91 MiB
    Wavefunctions: 489.75 MiB
      Arrays psit_nG: 221.07 MiB
      Eigensolver: 254.17 MiB
      Projections: 2.83 MiB
      Projectors: 5.06 MiB
      PW-descriptor: 6.62 MiB

Total number of cores used: 16
Parallelization over k-points: 8
Domain decomposition: 1 x 1 x 2

Number of atoms: 47
Number of atomic orbitals: 552
Number of bands in calculation: 448
Bands to converge: occupied states only
Number of valence electrons: 739

... initialized

Initializing position-dependent things.

Density initialized from atomic densities
Creating initial wave functions:
  448 bands from LCAO basis set

                                             
                                             
                                             
                                             
                                 H           
                               O             
                                             
                                             
                 Pt      Pd    Ru            
                                             
            Pt    APd    PPd    Ru           
        Pd           Pd                      
              Ru           Pt                
        Pt     Pd    PPd    Pd     Ag        
                                             
                Ag     Ag     Ag             
                                             
           Ag    PAg    APt    Pd            
                                             
            Pd     Ru     Ag     Pd          
       Ag    PRu    PRu    Pt                
                                             
        Pd     Ag     Pt                     
                                             
                                             
                                             
                                             
                                             

Positions:
   0 Pd     0.000000    1.633958   10.000000    ( 0.0000,  0.0000,  0.0000)
   1 Ag     2.830098    1.633958   10.000000    ( 0.0000,  0.0000,  0.0000)
   2 Pt     5.660196    1.633958   10.000000    ( 0.0000,  0.0000,  0.0000)
   3 Pd     1.415049    4.084895   10.000000    ( 0.0000,  0.0000,  0.0000)
   4 Pd     4.245147    4.084895   10.000000    ( 0.0000,  0.0000,  0.0000)
   5 Pt     7.075245    4.084895   10.000000    ( 0.0000,  0.0000,  0.0000)
   6 Pd     2.830098    6.535832   10.000000    ( 0.0000,  0.0000,  0.0000)
   7 Ag     5.660196    6.535832   10.000000    ( 0.0000,  0.0000,  0.0000)
   8 Pd     8.490294    6.535832   10.000000    ( 0.0000,  0.0000,  0.0000)
   9 Ag     0.000000    0.000000   12.310765    ( 0.0000,  0.0000,  0.0000)
  10 Ru     2.830098    0.000000   12.310765    ( 0.0000,  0.0000,  0.0000)
  11 Ru     5.660196    0.000000   12.310765    ( 0.0000,  0.0000,  0.0000)
  12 Pd     1.415049    2.450937   12.310765    ( 0.0000,  0.0000,  0.0000)
  13 Ru     4.245147    2.450937   12.310765    ( 0.0000,  0.0000,  0.0000)
  14 Ag     7.075245    2.450937   12.310765    ( 0.0000,  0.0000,  0.0000)
  15 Pd     2.830098    4.901874   12.310765    ( 0.0000,  0.0000,  0.0000)
  16 Ag     5.660196    4.901874   12.310765    ( 0.0000,  0.0000,  0.0000)
  17 Pd     8.490294    4.901874   12.310765    ( 0.0000,  0.0000,  0.0000)
  18 Ag     1.422839    0.836358   14.687202    ( 0.0000,  0.0000,  0.0000)
  19 Ag     4.228290    0.834029   14.668537    ( 0.0000,  0.0000,  0.0000)
  20 Pt     7.000876    0.833422   14.677349    ( 0.0000,  0.0000,  0.0000)
  21 Ag     2.849410    3.275055   14.697646    ( 0.0000,  0.0000,  0.0000)
  22 Ag     5.607020    3.276035   14.715763    ( 0.0000,  0.0000,  0.0000)
  23 Ag     8.407636    3.278571   14.701685    ( 0.0000,  0.0000,  0.0000)
  24 Pd     4.226650    5.664441   14.783889    ( 0.0000,  0.0000,  0.0000)
  25 Pd     7.021524    5.717496   14.695770    ( 0.0000,  0.0000,  0.0000)
  26 Ag     9.810161    5.688371   14.690489    ( 0.0000,  0.0000,  0.0000)
  27 Pt     0.030364    1.654579   17.054310    ( 0.0000,  0.0000,  0.0000)
  28 Pd     2.863636    1.668211   17.080253    ( 0.0000,  0.0000,  0.0000)
  29 Pd     5.584811    1.668389   17.077768    ( 0.0000,  0.0000,  0.0000)
  30 Pd     1.451673    4.084780   17.054426    ( 0.0000,  0.0000,  0.0000)
  31 Ru     4.287216    4.070209   17.299465    ( 0.0000,  0.0000,  0.0000)
  32 Pt     6.976254    4.091014   17.095978    ( 0.0000,  0.0000,  0.0000)
  33 Ag     2.791829    6.501265   17.070936    ( 0.0000,  0.0000,  0.0000)
  34 Pt     5.617052    6.449501   17.092744    ( 0.0000,  0.0000,  0.0000)
  35 Ru     8.289070    6.444709   17.186717    ( 0.0000,  0.0000,  0.0000)
  36 Pd     0.109969    0.038419   19.432145    ( 0.0000,  0.0000,  0.0000)
  37 Ru     2.913932   -0.060119   19.211827    ( 0.0000,  0.0000,  0.0000)
  38 Pd     5.607656    0.003198   19.432032    ( 0.0000,  0.0000,  0.0000)
  39 Pt     1.441354    2.458850   19.369405    ( 0.0000,  0.0000,  0.0000)
  40 Pd     4.211433    2.427374   19.463642    ( 0.0000,  0.0000,  0.0000)
  41 Pd     7.082631    2.483306   19.414916    ( 0.0000,  0.0000,  0.0000)
  42 Pt     2.814800    4.836018   19.384744    ( 0.0000,  0.0000,  0.0000)
  43 Pd     5.686541    4.887569   19.522731    ( 0.0000,  0.0000,  0.0000)
  44 Ru     8.428363    4.985817   19.203811    ( 0.0000,  0.0000,  0.0000)
  45 O      8.428363    4.985817   21.522731    ( 0.0000,  0.0000,  0.0000)
  46 H      9.078363    5.635817   21.922731    ( 0.0000,  0.0000,  0.0000)

Unit cell:
           periodic     x           y           z      points  spacing
  1. axis:    yes    8.379498    0.000000    0.000000    35     0.2073
  2. axis:    yes    4.189749    7.256858    0.000000    35     0.2073
  3. axis:    no     0.000000    0.000000   29.243062   135     0.2166

  Lengths:   8.379498   8.379498  29.243062
  Angles:   90.000000  90.000000  60.000000

Effective grid spacing dv^(1/3) = 0.2207

                     log10-error:    total        iterations:
           time      wfs    density  energy       fermi  poisson
iter:   1  00:57:29  +0.50   +inf  -242.751950    2             
iter:   2  00:58:44  -1.07  -1.21  -213.368945    3             
iter:   3  00:59:58  -1.44  -1.32  -216.097115    36            
iter:   4  01:01:12  -1.34  -1.33  -274.380187    35            
iter:   5  01:02:27  -1.55  -1.20  -196.425294    37            
iter:   6  01:03:41  -1.75  -1.50  -189.618159    35            
iter:   7  01:04:55  -2.17  -1.67  -188.517133    4             
iter:   8  01:06:10  -3.12  -1.74  -187.614892    3             
iter:   9  01:07:23  -2.15  -1.77  -192.817154    4             
iter:  10  01:08:38  -2.50  -1.71  -188.842542    4             
iter:  11  01:09:54  -2.71  -1.84  -186.390387    3             
iter:  12  01:11:09  -3.11  -2.06  -186.141396    2             
iter:  13  01:12:24  -3.50  -2.16  -186.131719    3             
iter:  14  01:13:39  -3.66  -2.22  -186.091535    3             
iter:  15  01:14:51  -3.28  -2.26  -185.957103    3             
iter:  16  01:16:05  -3.43  -2.38  -185.719795    3             
iter:  17  01:17:18  -3.47  -2.63  -185.673866    3             
iter:  18  01:18:31  -3.89  -2.81  -185.645833    3             
iter:  19  01:19:46  -4.46  -2.95  -185.659646    3             
iter:  20  01:21:00  -4.75  -2.92  -185.662415    2             
iter:  21  01:22:16  -4.79  -2.89  -185.650138    3             
iter:  22  01:23:30  -4.93  -3.05  -185.646461    2             
iter:  23  01:24:43  -5.26  -3.11  -185.646189    2             
iter:  24  01:25:56  -5.22  -3.21  -185.644999    3             
iter:  25  01:27:13  -5.39  -3.21  -185.646899    2             
iter:  26  01:28:28  -5.38  -3.35  -185.647732    2             
iter:  27  01:29:40  -5.58  -3.26  -185.642915    2             
iter:  28  01:30:51  -5.99  -3.53  -185.643689    2             
iter:  29  01:32:04  -6.21  -3.50  -185.643373    2             
iter:  30  01:33:16  -6.17  -3.64  -185.643072    2             
iter:  31  01:34:30  -6.04  -3.57  -185.645085    2             
iter:  32  01:35:45  -6.43  -3.59  -185.643760    2             
iter:  33  01:36:58  -6.49  -3.80  -185.642694    2             
iter:  34  01:38:12  -6.42  -3.84  -185.643454    2             
iter:  35  01:39:26  -6.67  -3.95  -185.643065    2             
iter:  36  01:40:40  -6.81  -3.98  -185.642928    2             
iter:  37  01:41:56  -7.35  -4.13  -185.643038    2             
iter:  38  01:43:10  -7.37  -4.11  -185.643114    2             
iter:  39  01:44:23  -7.18  -4.20  -185.642615    2             
iter:  40  01:45:38  -7.11  -4.13  -185.643088    2             
iter:  41  01:46:51  -7.74  -4.33  -185.642833    2             

Converged after 41 iterations.

Dipole moment: (24.872618, 21.721535, -0.322642) |e|*Ang

Energy contributions relative to reference atoms: (reference = -9073466.092496)

Kinetic:       -178.136844
Potential:      +31.221786
External:        +0.000000
XC:             -33.293405
Entropy (-ST):   -2.039530
Local:           -4.414605
--------------------------
Free energy:   -186.662598
Extrapolated:  -185.642833

Fermi level: 0.78086

Showing only first 2 kpts
 Kpt  Band  Eigenvalues  Occupancy
  0   367      0.76298    0.13614
  0   368      0.77602    0.12802
  0   369      0.80502    0.10997
  0   370      0.83233    0.09352

  1   367      0.65730    0.19370
  1   368      0.69233    0.17698
  1   369      0.72026    0.16176
  1   370      0.74750    0.14566



Forces in eV/Ang:
  0 Pd    0.08766    0.50856   -0.42605
  1 Ag    0.11235    0.49013   -0.50947
  2 Pt   -0.23160    0.51554    0.83521
  3 Pd    0.09156    0.03294   -0.08205
  4 Pd    0.11954   -0.37648    0.20018
  5 Pt   -0.13234   -0.29694   -0.09353
  6 Pd   -0.17250   -0.37919   -0.05551
  7 Ag   -0.12229   -0.45349   -0.71244
  8 Pd   -0.25160   -0.30215    0.27846
  9 Ag    0.51663    0.21642    0.43631
 10 Ru    2.20845    1.27245    0.39548
 11 Ru   -1.84850    0.86990   -0.36260
 12 Pd    1.12169   -0.24723    0.00880
 13 Ru   -0.53012   -1.49127   -0.88570
 14 Ag   -0.44581    0.12740    0.28626
 15 Pd    0.18716   -0.57782    0.08842
 16 Ag   -0.18265   -0.38075    0.34060
 17 Pd   -0.37236    0.54402   -0.02238
 18 Ag   -0.02075   -0.00078    0.00488
 19 Ag   -0.01376    0.00355    0.01869
 20 Pt   -0.01523   -0.02848   -0.02241
 21 Ag    0.01360    0.00116    0.01240
 22 Ag   -0.00017   -0.01848   -0.00600
 23 Ag   -0.00987    0.00367    0.03443
 24 Pd    0.01214    0.01430    0.02192
 25 Pd    0.02413    0.02246    0.07528
 26 Ag   -0.00502   -0.00383    0.02789
 27 Pt    0.03455    0.02114    0.01720
 28 Pd   -0.03904   -0.04914    0.10104
 29 Pd    0.01751   -0.05246    0.00125
 30 Pd   -0.12152    0.04783    0.16735
 31 Ru   -0.01488    0.01169    0.03059
 32 Pt    0.11048    0.03034    0.00656
 33 Ag    0.00983    0.05878   -0.00559
 34 Pt   -0.01886    0.02893   -0.07431
 35 Ru   -0.05729    0.00708    0.09228
 36 Pd    0.01813    0.00254    0.00444
 37 Ru   -0.21136    0.40290   -0.01212
 38 Pd    0.08969    0.15662   -0.10176
 39 Pt    0.03721   -0.13055    0.00327
 40 Pd   -0.03949    0.00217   -0.01655
 41 Pd   -0.03360   -0.07426    0.00507
 42 Pt    0.11881   -0.08142   -0.15937
 43 Pd   -0.14128   -0.02881   -0.03946
 44 Ru    0.29945   -0.41704    2.15780
 45 O    -0.02418    0.34611   -1.75253
 46 H    -0.32255   -0.36875   -0.44433

System changes: positions 

Initializing position-dependent things.

Density initialized from wave functions
                                            
                                            
                                            
                                            
                                 H          
                               O            
                                            
                                            
                 Pt     Pd     Ru           
            Pt     Pd     Pd                
       Pd         Ag Pd  Pt    Ru           
             PRu    Ru     Pt               
               Pd     Pd                    
        Pt           Pd     Pd    Ag        
                                            
                Ag     Ag     Ag            
           Ag     Ag     Pt                 
                 Pd     Ag     Pd           
            Pd     Ru     Ag                
       Ag     Ru  Pd Ru  Ag     Pd          
             Pd     Pd     Pt               
        Pd     Ag     Pt                    
                                            
                                            
                                            
                                            
                                            

Positions:
   0 Pd     0.000000    1.633958   10.000000    ( 0.0000,  0.0000,  0.0000)
   1 Ag     2.830098    1.633958   10.000000    ( 0.0000,  0.0000,  0.0000)
   2 Pt     5.660196    1.633958   10.000000    ( 0.0000,  0.0000,  0.0000)
   3 Pd     1.415049    4.084895   10.000000    ( 0.0000,  0.0000,  0.0000)
   4 Pd     4.245147    4.084895   10.000000    ( 0.0000,  0.0000,  0.0000)
   5 Pt     7.075245    4.084895   10.000000    ( 0.0000,  0.0000,  0.0000)
   6 Pd     2.830098    6.535832   10.000000    ( 0.0000,  0.0000,  0.0000)
   7 Ag     5.660196    6.535832   10.000000    ( 0.0000,  0.0000,  0.0000)
   8 Pd     8.490294    6.535832   10.000000    ( 0.0000,  0.0000,  0.0000)
   9 Ag     0.000000    0.000000   12.310765    ( 0.0000,  0.0000,  0.0000)
  10 Ru     2.830098    0.000000   12.310765    ( 0.0000,  0.0000,  0.0000)
  11 Ru     5.660196    0.000000   12.310765    ( 0.0000,  0.0000,  0.0000)
  12 Pd     1.415049    2.450937   12.310765    ( 0.0000,  0.0000,  0.0000)
  13 Ru     4.245147    2.450937   12.310765    ( 0.0000,  0.0000,  0.0000)
  14 Ag     7.075245    2.450937   12.310765    ( 0.0000,  0.0000,  0.0000)
  15 Pd     2.830098    4.901874   12.310765    ( 0.0000,  0.0000,  0.0000)
  16 Ag     5.660196    4.901874   12.310765    ( 0.0000,  0.0000,  0.0000)
  17 Pd     8.490294    4.901874   12.310765    ( 0.0000,  0.0000,  0.0000)
  18 Ag     1.420968    0.836288   14.687642    ( 0.0000,  0.0000,  0.0000)
  19 Ag     4.227049    0.834349   14.670223    ( 0.0000,  0.0000,  0.0000)
  20 Pt     6.999503    0.830853   14.675328    ( 0.0000,  0.0000,  0.0000)
  21 Ag     2.850636    3.275159   14.698764    ( 0.0000,  0.0000,  0.0000)
  22 Ag     5.607004    3.274368   14.715222    ( 0.0000,  0.0000,  0.0000)
  23 Ag     8.406746    3.278903   14.704789    ( 0.0000,  0.0000,  0.0000)
  24 Pd     4.227745    5.665730   14.785866    ( 0.0000,  0.0000,  0.0000)
  25 Pd     7.023701    5.719521   14.702558    ( 0.0000,  0.0000,  0.0000)
  26 Ag     9.809708    5.688026   14.693004    ( 0.0000,  0.0000,  0.0000)
  27 Pt     0.033479    1.656485   17.055860    ( 0.0000,  0.0000,  0.0000)
  28 Pd     2.860116    1.663780   17.089363    ( 0.0000,  0.0000,  0.0000)
  29 Pd     5.586390    1.663658   17.077881    ( 0.0000,  0.0000,  0.0000)
  30 Pd     1.440716    4.089093   17.069516    ( 0.0000,  0.0000,  0.0000)
  31 Ru     4.285873    4.071263   17.302223    ( 0.0000,  0.0000,  0.0000)
  32 Pt     6.986216    4.093750   17.096570    ( 0.0000,  0.0000,  0.0000)
  33 Ag     2.792716    6.506565   17.070432    ( 0.0000,  0.0000,  0.0000)
  34 Pt     5.615352    6.452110   17.086043    ( 0.0000,  0.0000,  0.0000)
  35 Ru     8.283904    6.445347   17.195038    ( 0.0000,  0.0000,  0.0000)
  36 Pd     0.111603    0.038648   19.432545    ( 0.0000,  0.0000,  0.0000)
  37 Ru     2.894874   -0.023790   19.210734    ( 0.0000,  0.0000,  0.0000)
  38 Pd     5.615744    0.017321   19.422857    ( 0.0000,  0.0000,  0.0000)
  39 Pt     1.444709    2.447078   19.369700    ( 0.0000,  0.0000,  0.0000)
  40 Pd     4.207872    2.427569   19.462149    ( 0.0000,  0.0000,  0.0000)
  41 Pd     7.079601    2.476609   19.415372    ( 0.0000,  0.0000,  0.0000)
  42 Pt     2.825512    4.828676   19.370374    ( 0.0000,  0.0000,  0.0000)
  43 Pd     5.673801    4.884972   19.519173    ( 0.0000,  0.0000,  0.0000)
  44 Ru     8.455364    4.948212   19.398380    ( 0.0000,  0.0000,  0.0000)
  45 O      8.426183    5.017025   21.364706    ( 0.0000,  0.0000,  0.0000)
  46 H      9.049279    5.602566   21.882666    ( 0.0000,  0.0000,  0.0000)

Unit cell:
           periodic     x           y           z      points  spacing
  1. axis:    yes    8.379498    0.000000    0.000000    35     0.2073
  2. axis:    yes    4.189749    7.256858    0.000000    35     0.2073
  3. axis:    no     0.000000    0.000000   29.243062   135     0.2166

  Lengths:   8.379498   8.379498  29.243062
  Angles:   90.000000  90.000000  60.000000

Effective grid spacing dv^(1/3) = 0.2207

                     log10-error:    total        iterations:
           time      wfs    density  energy       fermi  poisson
iter:   1  01:48:37  -1.81   +inf  -190.550054    4             
iter:   2  01:49:51  -1.67  -1.97  -222.276550    36            
iter:   3  01:51:05  -1.68  -1.52  -211.822202    3             
iter:   4  01:52:19  -2.63  -1.59  -188.240088    36            
iter:   5  01:53:32  -3.11  -2.17  -186.828957    4             
iter:   6  01:54:49  -3.38  -2.39  -186.300924    2             
iter:   7  01:56:05  -3.84  -2.63  -186.205942    3             
iter:   8  01:57:19  -4.17  -2.79  -186.243562    3             
iter:   9  01:58:33  -4.07  -2.69  -186.328295    2             
iter:  10  01:59:46  -4.44  -2.49  -186.182926    2             
iter:  11  02:00:59  -4.21  -2.73  -186.128632    3             
iter:  12  02:02:13  -4.44  -3.12  -186.141652    2             
iter:  13  02:03:28  -4.85  -2.89  -186.128814    2             
iter:  14  02:04:40  -5.08  -3.02  -186.117014    2             
iter:  15  02:05:53  -5.53  -3.32  -186.115710    2             
iter:  16  02:07:06  -5.49  -3.45  -186.114539    2             
iter:  17  02:08:21  -5.59  -3.42  -186.117680    2             
iter:  18  02:09:35  -6.17  -3.40  -186.115647    2             
iter:  19  02:10:49  -5.55  -3.62  -186.114253    2             
iter:  20  02:12:03  -5.91  -3.72  -186.114504    2             
iter:  21  02:13:15  -6.11  -3.80  -186.115333    2             
iter:  22  02:14:27  -6.59  -3.80  -186.114366    2             
iter:  23  02:15:42  -7.05  -3.89  -186.114411    2             
iter:  24  02:16:55  -6.39  -4.05  -186.114829    2             
iter:  25  02:18:08  -6.98  -4.15  -186.114241    2             
iter:  26  02:19:22  -6.69  -3.98  -186.114188    2             
iter:  27  02:20:35  -7.11  -4.25  -186.114534    2             
iter:  28  02:21:50  -7.35  -4.36  -186.114309    2             
iter:  29  02:23:05  -7.56  -4.49  -186.114236    2             

Converged after 29 iterations.

Dipole moment: (22.474575, 19.671917, -0.054208) |e|*Ang

Energy contributions relative to reference atoms: (reference = -9073466.092496)

Kinetic:       -178.716605
Potential:      +31.435627
External:        +0.000000
XC:             -33.409214
Entropy (-ST):   -2.071271
Local:           -4.388409
--------------------------
Free energy:   -187.149871
Extrapolated:  -186.114236

Fermi level: 0.90516

Showing only first 2 kpts
 Kpt  Band  Eigenvalues  Occupancy
  0   367      0.89194    0.13325
  0   368      0.90442    0.12546
  0   369      0.92718    0.11129
  0   370      0.94976    0.09758

  1   367      0.79747    0.18647
  1   368      0.82153    0.17442
  1   369      0.84833    0.15959
  1   370      0.87887    0.14133



Forces in eV/Ang:
  0 Pd    0.09781    0.50843   -0.41856
  1 Ag    0.10542    0.49445   -0.50718
  2 Pt   -0.23716    0.50801    0.84069
  3 Pd    0.10103    0.03236   -0.07662
  4 Pd    0.10723   -0.37016    0.20384
  5 Pt   -0.12916   -0.29289   -0.08035
  6 Pd   -0.17092   -0.39036   -0.05155
  7 Ag   -0.12589   -0.45282   -0.70740
  8 Pd   -0.24772   -0.30284    0.27868
  9 Ag    0.52188    0.21415    0.43208
 10 Ru    2.20723    1.27001    0.41981
 11 Ru   -1.85013    0.86270   -0.35014
 12 Pd    1.11184   -0.24256    0.01721
 13 Ru   -0.53323   -1.48943   -0.85316
 14 Ag   -0.43314    0.13592    0.29144
 15 Pd    0.18839   -0.57860    0.09172
 16 Ag   -0.17994   -0.37763    0.36076
 17 Pd   -0.37285    0.53942   -0.00370
 18 Ag   -0.00157    0.02154   -0.01741
 19 Ag   -0.02066   -0.00656    0.05141
 20 Pt   -0.01128   -0.00711   -0.02968
 21 Ag   -0.02085    0.01230    0.04998
 22 Ag    0.01603    0.00455    0.00290
 23 Ag    0.01251    0.01085    0.02245
 24 Pd   -0.00134   -0.01247   -0.00915
 25 Pd    0.01675   -0.00918    0.06268
 26 Ag   -0.00445   -0.03048    0.05084
 27 Pt   -0.02665    0.02324   -0.00430
 28 Pd    0.00309    0.05412   -0.04754
 29 Pd    0.01237    0.00814   -0.00455
 30 Pd   -0.20022    0.13818    0.22644
 31 Ru   -0.00102   -0.01126   -0.07546
 32 Pt    0.18295    0.15998    0.24314
 33 Ag   -0.02174    0.01190   -0.01856
 34 Pt    0.02455   -0.06610   -0.01910
 35 Ru   -0.05409   -0.26841    0.69125
 36 Pd   -0.02591   -0.04592   -0.01315
 37 Ru    0.02780    0.06871   -0.14048
 38 Pd    0.00471    0.00867   -0.12333
 39 Pt   -0.00391   -0.15972    0.00097
 40 Pd    0.07114   -0.03642   -0.00854
 41 Pd   -0.04710   -0.01848   -0.01173
 42 Pt    0.02509    0.10678   -0.08341
 43 Pd   -0.04943   -0.02480   -0.13527
 44 Ru    0.21092    0.09044   -0.14212
 45 O    -0.23121    0.12682    0.32693
 46 H    -0.19265   -0.26718   -0.55103

System changes: positions 

Initializing position-dependent things.

Density initialized from wave functions
                                            
                                            
                                            
                                            
                                H           
                               O            
                                            
                 Pt     Pd     Ru           
                                            
            Pt    APd    PPd   Ru           
       Pd     Ru    RPd                     
             Pd            Pt               
        Pt     Pd    PPd                    
                            Pd    Ag        
                Ag     Ag     Ag            
           Ag     Ag     Pt                 
                 Pd     Ag     Pd           
            Pd     Ru     Ag                
                  Pd     Ag     Pd          
       Ag    PRu    PRu    Pt               
                                            
        Pd     Ag     Pt                    
                                            
                                            
                                            
                                            

Positions:
   0 Pd     0.000000    1.633958   10.000000    ( 0.0000,  0.0000,  0.0000)
   1 Ag     2.830098    1.633958   10.000000    ( 0.0000,  0.0000,  0.0000)
   2 Pt     5.660196    1.633958   10.000000    ( 0.0000,  0.0000,  0.0000)
   3 Pd     1.415049    4.084895   10.000000    ( 0.0000,  0.0000,  0.0000)
   4 Pd     4.245147    4.084895   10.000000    ( 0.0000,  0.0000,  0.0000)
   5 Pt     7.075245    4.084895   10.000000    ( 0.0000,  0.0000,  0.0000)
   6 Pd     2.830098    6.535832   10.000000    ( 0.0000,  0.0000,  0.0000)
   7 Ag     5.660196    6.535832   10.000000    ( 0.0000,  0.0000,  0.0000)
   8 Pd     8.490294    6.535832   10.000000    ( 0.0000,  0.0000,  0.0000)
   9 Ag     0.000000    0.000000   12.310765    ( 0.0000,  0.0000,  0.0000)
  10 Ru     2.830098    0.000000   12.310765    ( 0.0000,  0.0000,  0.0000)
  11 Ru     5.660196    0.000000   12.310765    ( 0.0000,  0.0000,  0.0000)
  12 Pd     1.415049    2.450937   12.310765    ( 0.0000,  0.0000,  0.0000)
  13 Ru     4.245147    2.450937   12.310765    ( 0.0000,  0.0000,  0.0000)
  14 Ag     7.075245    2.450937   12.310765    ( 0.0000,  0.0000,  0.0000)
  15 Pd     2.830098    4.901874   12.310765    ( 0.0000,  0.0000,  0.0000)
  16 Ag     5.660196    4.901874   12.310765    ( 0.0000,  0.0000,  0.0000)
  17 Pd     8.490294    4.901874   12.310765    ( 0.0000,  0.0000,  0.0000)
  18 Ag     1.420455    0.838391   14.686016    ( 0.0000,  0.0000,  0.0000)
  19 Ag     4.224782    0.833765   14.675596    ( 0.0000,  0.0000,  0.0000)
  20 Pt     6.998132    0.829663   14.672026    ( 0.0000,  0.0000,  0.0000)
  21 Ag     2.848823    3.276388   14.703888    ( 0.0000,  0.0000,  0.0000)
  22 Ag     5.608576    3.274496   14.715403    ( 0.0000,  0.0000,  0.0000)
  23 Ag     8.407804    3.280032   14.707589    ( 0.0000,  0.0000,  0.0000)
  24 Pd     4.227823    5.664752   14.785345    ( 0.0000,  0.0000,  0.0000)
  25 Pd     7.025762    5.719008   14.710014    ( 0.0000,  0.0000,  0.0000)
  26 Ag     9.809185    5.684965   14.698479    ( 0.0000,  0.0000,  0.0000)
  27 Pt     0.031457    1.659132   17.055735    ( 0.0000,  0.0000,  0.0000)
  28 Pd     2.859745    1.668249   17.086437    ( 0.0000,  0.0000,  0.0000)
  29 Pd     5.587907    1.663552   17.077455    ( 0.0000,  0.0000,  0.0000)
  30 Pd     1.418951    4.103492   17.094647    ( 0.0000,  0.0000,  0.0000)
  31 Ru     4.285517    4.070359   17.295337    ( 0.0000,  0.0000,  0.0000)
  32 Pt     7.006094    4.109989   17.120567    ( 0.0000,  0.0000,  0.0000)
  33 Ag     2.790750    6.508748   17.068512    ( 0.0000,  0.0000,  0.0000)
  34 Pt     5.617439    6.446116   17.082885    ( 0.0000,  0.0000,  0.0000)
  35 Ru     8.277602    6.419102   17.264534    ( 0.0000,  0.0000,  0.0000)
  36 Pd     0.109371    0.034180   19.431330    ( 0.0000,  0.0000,  0.0000)
  37 Ru     2.893958   -0.010089   19.196724    ( 0.0000,  0.0000,  0.0000)
  38 Pd     5.617754    0.020875   19.408985    ( 0.0000,  0.0000,  0.0000)
  39 Pt     1.444967    2.429136   19.369851    ( 0.0000,  0.0000,  0.0000)
  40 Pd     4.214179    2.424029   19.461025    ( 0.0000,  0.0000,  0.0000)
  41 Pd     7.074395    2.473513   19.414308    ( 0.0000,  0.0000,  0.0000)
  42 Pt     2.830027    4.837761   19.359430    ( 0.0000,  0.0000,  0.0000)
  43 Pd     5.666508    4.882038   19.505203    ( 0.0000,  0.0000,  0.0000)
  44 Ru     8.481250    4.949901   19.421648    ( 0.0000,  0.0000,  0.0000)
  45 O      8.403052    5.035455   21.366585    ( 0.0000,  0.0000,  0.0000)
  46 H      9.024789    5.569958   21.820870    ( 0.0000,  0.0000,  0.0000)

Unit cell:
           periodic     x           y           z      points  spacing
  1. axis:    yes    8.379498    0.000000    0.000000    35     0.2073
  2. axis:    yes    4.189749    7.256858    0.000000    35     0.2073
  3. axis:    no     0.000000    0.000000   29.243062   135     0.2166

  Lengths:   8.379498   8.379498  29.243062
  Angles:   90.000000  90.000000  60.000000

Effective grid spacing dv^(1/3) = 0.2207

                     log10-error:    total        iterations:
           time      wfs    density  energy       fermi  poisson
iter:   1  02:24:49  -2.23   +inf  -195.074197    3             
iter:   2  02:26:03  -1.04  -1.77  -360.536880    38            
iter:   3  02:27:16  -1.52  -1.18  -192.335862    35            
iter:   4  02:28:29  -2.42  -1.88  -186.964573    35            
iter:   5  02:29:44  -3.03  -2.34  -186.372981    3             
iter:   6  02:30:59  -3.72  -2.55  -186.336350    3             
iter:   7  02:32:13  -3.96  -2.54  -186.407002    3             
iter:   8  02:33:26  -4.09  -2.54  -186.168679    3             
iter:   9  02:34:41  -4.59  -2.95  -186.188793    3             
iter:  10  02:35:54  -4.63  -2.84  -186.176507    2             
iter:  11  02:37:05  -4.75  -2.89  -186.150982    3             
iter:  12  02:38:18  -4.89  -3.27  -186.144383    2             
iter:  13  02:39:32  -4.98  -3.26  -186.145872    3             
iter:  14  02:40:47  -5.61  -3.26  -186.145195    2             
iter:  15  02:42:04  -5.93  -3.26  -186.141603    2             
iter:  16  02:43:17  -6.15  -3.45  -186.141722    2             
iter:  17  02:44:31  -5.63  -3.50  -186.140752    2             
iter:  18  02:45:46  -6.15  -3.81  -186.140649    2             
iter:  19  02:46:59  -6.45  -3.86  -186.141313    2             
iter:  20  02:48:14  -6.34  -3.97  -186.141413    2             
iter:  21  02:49:29  -6.18  -3.57  -186.140629    2             
iter:  22  02:50:40  -6.94  -3.97  -186.140923    2             
iter:  23  02:51:52  -7.32  -4.09  -186.140702    2             
iter:  24  02:53:04  -7.17  -4.18  -186.140806    2             
iter:  25  02:54:17  -6.82  -4.27  -186.140884    2             
iter:  26  02:55:32  -7.18  -4.34  -186.140699    2             
iter:  27  02:56:46  -7.53  -4.27  -186.140584    2             

Converged after 27 iterations.

Dipole moment: (20.930631, 18.652582, -0.070739) |e|*Ang

Energy contributions relative to reference atoms: (reference = -9073466.092496)

Kinetic:       -171.410722
Potential:      +25.610472
External:        +0.000000
XC:             -34.923885
Entropy (-ST):   -2.053402
Local:           -4.389747
--------------------------
Free energy:   -187.167285
Extrapolated:  -186.140584

Fermi level: 0.89860

Showing only first 2 kpts
 Kpt  Band  Eigenvalues  Occupancy
  0   367      0.88864    0.13122
  0   368      0.89676    0.12615
  0   369      0.92278    0.10996
  0   370      0.94514    0.09642

  1   367      0.79036    0.18674
  1   368      0.81562    0.17408
  1   369      0.84470    0.15789
  1   370      0.86951    0.14305



Forces in eV/Ang:
  0 Pd    0.09879    0.50774   -0.42394
  1 Ag    0.10437    0.49597   -0.51258
  2 Pt   -0.23786    0.50948    0.83610
  3 Pd    0.10177    0.03242   -0.08223
  4 Pd    0.10660   -0.36928    0.20024
  5 Pt   -0.12828   -0.29156   -0.08513
  6 Pd   -0.16812   -0.39262   -0.05768
  7 Ag   -0.12786   -0.45387   -0.71190
  8 Pd   -0.24769   -0.30563    0.27037
  9 Ag    0.52487    0.21255    0.42350
 10 Ru    2.21092    1.26652    0.42702
 11 Ru   -1.85766    0.85267   -0.33340
 12 Pd    1.10955   -0.23632    0.01685
 13 Ru   -0.53507   -1.48718   -0.84681
 14 Ag   -0.42650    0.14258    0.29123
 15 Pd    0.18406   -0.57971    0.09871
 16 Ag   -0.17225   -0.37297    0.36723
 17 Pd   -0.37241    0.54177    0.00859
 18 Ag   -0.00903   -0.00345   -0.00059
 19 Ag   -0.00271   -0.01825    0.05840
 20 Pt   -0.00512    0.00189   -0.01748
 21 Ag   -0.01941    0.01905    0.06284
 22 Ag    0.03814    0.01464    0.05638
 23 Ag   -0.00377    0.00563    0.03904
 24 Pd    0.00027    0.00001   -0.01269
 25 Pd    0.00901   -0.01745    0.05947
 26 Ag   -0.01888   -0.00553    0.05291
 27 Pt   -0.00076   -0.02842   -0.01451
 28 Pd   -0.00447    0.08814   -0.08557
 29 Pd    0.01722    0.06267   -0.03250
 30 Pd   -0.01358   -0.00844    0.09222
 31 Ru    0.01674   -0.03846   -0.10299
 32 Pt   -0.04559   -0.12796    0.08671
 33 Ag    0.01535    0.02814   -0.07169
 34 Pt   -0.07742    0.05167   -0.06350
 35 Ru    0.09780   -0.03545    0.18014
 36 Pd   -0.02199   -0.03686   -0.00707
 37 Ru   -0.13166    0.16587    0.24796
 38 Pd    0.06310    0.04024    0.03321
 39 Pt    0.03590   -0.07069    0.02817
 40 Pd    0.02818    0.01258   -0.00857
 41 Pd   -0.00229   -0.02436    0.02794
 42 Pt    0.01128    0.01708    0.02056
 43 Pd   -0.00944   -0.00431   -0.05976
 44 Ru    0.10362   -0.15656   -0.30442
 45 O    -2.11737   -1.56433   -1.04067
 46 H     1.81760    1.48813    1.08022

System changes: positions 

Initializing position-dependent things.

Density initialized from wave functions
                                            
                                            
                                            
                                            
                                H           
                               O            
                                            
                 Pt     Pd     Ru           
                                            
            Pt    APd    PPd   Ru           
       Pd     Ru    RPd                     
             Pd            Pt               
        Pt     Pd    PPd                    
                            Pd    Ag        
                Ag     Ag     Ag            
           Ag     Ag     Pt                 
                 Pd     Ag     Pd           
            Pd     Ru     Ag                
                  Pd     Ag     Pd          
       Ag    PRu    PRu    Pt               
                                            
        Pd     Ag     Pt                    
                                            
                                            
                                            
                                            

Positions:
   0 Pd     0.000000    1.633958   10.000000    ( 0.0000,  0.0000,  0.0000)
   1 Ag     2.830098    1.633958   10.000000    ( 0.0000,  0.0000,  0.0000)
   2 Pt     5.660196    1.633958   10.000000    ( 0.0000,  0.0000,  0.0000)
   3 Pd     1.415049    4.084895   10.000000    ( 0.0000,  0.0000,  0.0000)
   4 Pd     4.245147    4.084895   10.000000    ( 0.0000,  0.0000,  0.0000)
   5 Pt     7.075245    4.084895   10.000000    ( 0.0000,  0.0000,  0.0000)
   6 Pd     2.830098    6.535832   10.000000    ( 0.0000,  0.0000,  0.0000)
   7 Ag     5.660196    6.535832   10.000000    ( 0.0000,  0.0000,  0.0000)
   8 Pd     8.490294    6.535832   10.000000    ( 0.0000,  0.0000,  0.0000)
   9 Ag     0.000000    0.000000   12.310765    ( 0.0000,  0.0000,  0.0000)
  10 Ru     2.830098    0.000000   12.310765    ( 0.0000,  0.0000,  0.0000)
  11 Ru     5.660196    0.000000   12.310765    ( 0.0000,  0.0000,  0.0000)
  12 Pd     1.415049    2.450937   12.310765    ( 0.0000,  0.0000,  0.0000)
  13 Ru     4.245147    2.450937   12.310765    ( 0.0000,  0.0000,  0.0000)
  14 Ag     7.075245    2.450937   12.310765    ( 0.0000,  0.0000,  0.0000)
  15 Pd     2.830098    4.901874   12.310765    ( 0.0000,  0.0000,  0.0000)
  16 Ag     5.660196    4.901874   12.310765    ( 0.0000,  0.0000,  0.0000)
  17 Pd     8.490294    4.901874   12.310765    ( 0.0000,  0.0000,  0.0000)
  18 Ag     1.420687    0.837439   14.686752    ( 0.0000,  0.0000,  0.0000)
  19 Ag     4.225809    0.834030   14.673163    ( 0.0000,  0.0000,  0.0000)
  20 Pt     6.998753    0.830202   14.673521    ( 0.0000,  0.0000,  0.0000)
  21 Ag     2.849644    3.275831   14.701568    ( 0.0000,  0.0000,  0.0000)
  22 Ag     5.607864    3.274438   14.715321    ( 0.0000,  0.0000,  0.0000)
  23 Ag     8.407325    3.279520   14.706321    ( 0.0000,  0.0000,  0.0000)
  24 Pd     4.227787    5.665195   14.785581    ( 0.0000,  0.0000,  0.0000)
  25 Pd     7.024829    5.719240   14.706638    ( 0.0000,  0.0000,  0.0000)
  26 Ag     9.809422    5.686351   14.696000    ( 0.0000,  0.0000,  0.0000)
  27 Pt     0.032372    1.657934   17.055792    ( 0.0000,  0.0000,  0.0000)
  28 Pd     2.859913    1.666225   17.087762    ( 0.0000,  0.0000,  0.0000)
  29 Pd     5.587220    1.663600   17.077648    ( 0.0000,  0.0000,  0.0000)
  30 Pd     1.428806    4.096972   17.083268    ( 0.0000,  0.0000,  0.0000)
  31 Ru     4.285678    4.070768   17.298455    ( 0.0000,  0.0000,  0.0000)
  32 Pt     6.997094    4.102636   17.109702    ( 0.0000,  0.0000,  0.0000)
  33 Ag     2.791640    6.507759   17.069381    ( 0.0000,  0.0000,  0.0000)
  34 Pt     5.616494    6.448830   17.084315    ( 0.0000,  0.0000,  0.0000)
  35 Ru     8.280455    6.430985   17.233068    ( 0.0000,  0.0000,  0.0000)
  36 Pd     0.110382    0.036203   19.431880    ( 0.0000,  0.0000,  0.0000)
  37 Ru     2.894372   -0.016292   19.203068    ( 0.0000,  0.0000,  0.0000)
  38 Pd     5.616844    0.019266   19.415266    ( 0.0000,  0.0000,  0.0000)
  39 Pt     1.444850    2.437260   19.369783    ( 0.0000,  0.0000,  0.0000)
  40 Pd     4.211324    2.425632   19.461534    ( 0.0000,  0.0000,  0.0000)
  41 Pd     7.076753    2.474915   19.414790    ( 0.0000,  0.0000,  0.0000)
  42 Pt     2.827983    4.833648   19.364385    ( 0.0000,  0.0000,  0.0000)
  43 Pd     5.669810    4.883366   19.511528    ( 0.0000,  0.0000,  0.0000)
  44 Ru     8.469529    4.949136   19.411113    ( 0.0000,  0.0000,  0.0000)
  45 O      8.413525    5.027110   21.365734    ( 0.0000,  0.0000,  0.0000)
  46 H      9.035877    5.584723   21.848849    ( 0.0000,  0.0000,  0.0000)

Unit cell:
           periodic     x           y           z      points  spacing
  1. axis:    yes    8.379498    0.000000    0.000000    35     0.2073
  2. axis:    yes    4.189749    7.256858    0.000000    35     0.2073
  3. axis:    no     0.000000    0.000000   29.243062   135     0.2166

  Lengths:   8.379498   8.379498  29.243062
  Angles:   90.000000  90.000000  60.000000

Effective grid spacing dv^(1/3) = 0.2207

                     log10-error:    total        iterations:
           time      wfs    density  energy       fermi  poisson
iter:   1  02:58:29  -2.78   +inf  -188.681163    3             
iter:   2  02:59:40  -1.63  -1.99  -258.802510    37            
iter:   3  03:00:53  -1.95  -1.36  -187.185892    33            
iter:   4  03:02:04  -3.06  -2.27  -186.280123    3             
iter:   5  03:03:17  -3.91  -2.78  -186.245797    3             
iter:   6  03:04:27  -4.20  -2.79  -186.195072    2             
iter:   7  03:05:41  -5.11  -2.88  -186.177167    2             
iter:   8  03:06:54  -4.70  -3.20  -186.190722    2             
iter:   9  03:08:08  -5.15  -3.01  -186.167368    2             
iter:  10  03:09:20  -5.44  -3.40  -186.164937    2             
iter:  11  03:10:34  -5.38  -3.60  -186.175735    3             
iter:  12  03:11:48  -5.39  -3.21  -186.165472    2             
iter:  13  03:13:01  -6.00  -3.61  -186.163490    2             
iter:  14  03:14:14  -6.53  -3.80  -186.164618    2             
iter:  15  03:15:28  -6.01  -3.70  -186.163679    2             
iter:  16  03:16:41  -6.71  -4.06  -186.164151    2             
iter:  17  03:17:54  -6.37  -4.01  -186.163777    2             
iter:  18  03:19:08  -7.21  -4.08  -186.163593    2             
iter:  19  03:20:24  -7.18  -4.33  -186.163835    2             
iter:  20  03:21:42  -7.43  -4.44  -186.163691    2             

Converged after 20 iterations.

Dipole moment: (21.627856, 19.112098, -0.061943) |e|*Ang

Energy contributions relative to reference atoms: (reference = -9073466.092496)

Kinetic:       -175.161957
Potential:      +28.637136
External:        +0.000000
XC:             -34.174264
Entropy (-ST):   -2.061620
Local:           -4.433796
--------------------------
Free energy:   -187.194501
Extrapolated:  -186.163691

Fermi level: 0.90018

Showing only first 2 kpts
 Kpt  Band  Eigenvalues  Occupancy
  0   367      0.88918    0.13187
  0   368      0.89872    0.12592
  0   369      0.92330    0.11062
  0   370      0.94570    0.09703

  1   367      0.79246    0.18649
  1   368      0.81670    0.17435
  1   369      0.84537    0.15842
  1   370      0.87292    0.14194



Forces in eV/Ang:
  0 Pd    0.09921    0.50755   -0.43124
  1 Ag    0.10510    0.49563   -0.51529
  2 Pt   -0.23863    0.50674    0.82653
  3 Pd    0.10280    0.03321   -0.08907
  4 Pd    0.10443   -0.36841    0.19174
  5 Pt   -0.12730   -0.29097   -0.09583
  6 Pd   -0.16898   -0.39303   -0.06600
  7 Ag   -0.12788   -0.45326   -0.71720
  8 Pd   -0.24604   -0.30443    0.26722
  9 Ag    0.52314    0.21252    0.42489
 10 Ru    2.20924    1.26604    0.41986
 11 Ru   -1.85491    0.85405   -0.34386
 12 Pd    1.11040   -0.23744    0.01358
 13 Ru   -0.53500   -1.48686   -0.85808
 14 Ag   -0.42941    0.14014    0.28971
 15 Pd    0.18451   -0.57858    0.09062
 16 Ag   -0.17516   -0.37443    0.36130
 17 Pd   -0.37173    0.54237    0.00110
 18 Ag   -0.00394    0.00490   -0.00630
 19 Ag   -0.01156   -0.02108    0.06086
 20 Pt   -0.00945   -0.00422   -0.01922
 21 Ag   -0.02176    0.01591    0.05551
 22 Ag    0.03242    0.01131    0.03618
 23 Ag    0.00054    0.00945    0.02996
 24 Pd    0.00048   -0.00299   -0.00974
 25 Pd    0.01540   -0.01200    0.06438
 26 Ag   -0.01548   -0.01197    0.04834
 27 Pt   -0.01644   -0.00907   -0.02246
 28 Pd    0.00060    0.06950   -0.07770
 29 Pd    0.01809    0.04130   -0.03029
 30 Pd   -0.10675    0.06041    0.15329
 31 Ru    0.01372   -0.02776   -0.09710
 32 Pt    0.05781    0.00255    0.14225
 33 Ag    0.00373    0.02684   -0.05870
 34 Pt   -0.03436    0.00086   -0.05987
 35 Ru    0.02364   -0.13983    0.41086
 36 Pd   -0.02084   -0.03941    0.00502
 37 Ru   -0.07108    0.13587    0.07297
 38 Pd    0.04458    0.04431   -0.04265
 39 Pt    0.02074   -0.11580    0.03820
 40 Pd    0.04976   -0.00197    0.00833
 41 Pd   -0.02492   -0.02125    0.03008
 42 Pt    0.03311    0.04394   -0.01421
 43 Pd   -0.03410   -0.02191   -0.07594
 44 Ru    0.15006   -0.06321   -0.20313
 45 O    -1.12163   -0.73600   -0.40604
 46 H     0.79130    0.62916    0.31252

System changes: positions 

Initializing position-dependent things.

Density initialized from wave functions
                                            
                                            
                                            
                                            
                                 H          
                              O             
                                            
                 Pt     Pd     Ru           
                                            
            Pt    APd    PPd   Ru           
       Pd    PRu    RPd    Pt               
                                            
        Pt     Pd    PPd    Pd              
                                  Ag        
                Ag     Ag     Ag            
           Ag     Ag     Pt                 
                 Pd     Ag     Pd           
            Pd     Ru     Ag                
                  Pd     Ag     Pd          
       Ag    PRu    PRu    Pt               
                                            
        Pd     Ag     Pt                    
                                            
                                            
                                            
                                            

Positions:
   0 Pd     0.000000    1.633958   10.000000    ( 0.0000,  0.0000,  0.0000)
   1 Ag     2.830098    1.633958   10.000000    ( 0.0000,  0.0000,  0.0000)
   2 Pt     5.660196    1.633958   10.000000    ( 0.0000,  0.0000,  0.0000)
   3 Pd     1.415049    4.084895   10.000000    ( 0.0000,  0.0000,  0.0000)
   4 Pd     4.245147    4.084895   10.000000    ( 0.0000,  0.0000,  0.0000)
   5 Pt     7.075245    4.084895   10.000000    ( 0.0000,  0.0000,  0.0000)
   6 Pd     2.830098    6.535832   10.000000    ( 0.0000,  0.0000,  0.0000)
   7 Ag     5.660196    6.535832   10.000000    ( 0.0000,  0.0000,  0.0000)
   8 Pd     8.490294    6.535832   10.000000    ( 0.0000,  0.0000,  0.0000)
   9 Ag     0.000000    0.000000   12.310765    ( 0.0000,  0.0000,  0.0000)
  10 Ru     2.830098    0.000000   12.310765    ( 0.0000,  0.0000,  0.0000)
  11 Ru     5.660196    0.000000   12.310765    ( 0.0000,  0.0000,  0.0000)
  12 Pd     1.415049    2.450937   12.310765    ( 0.0000,  0.0000,  0.0000)
  13 Ru     4.245147    2.450937   12.310765    ( 0.0000,  0.0000,  0.0000)
  14 Ag     7.075245    2.450937   12.310765    ( 0.0000,  0.0000,  0.0000)
  15 Pd     2.830098    4.901874   12.310765    ( 0.0000,  0.0000,  0.0000)
  16 Ag     5.660196    4.901874   12.310765    ( 0.0000,  0.0000,  0.0000)
  17 Pd     8.490294    4.901874   12.310765    ( 0.0000,  0.0000,  0.0000)
  18 Ag     1.419194    0.842403   14.682688    ( 0.0000,  0.0000,  0.0000)
  19 Ag     4.219855    0.830826   14.690359    ( 0.0000,  0.0000,  0.0000)
  20 Pt     6.994915    0.827220   14.664626    ( 0.0000,  0.0000,  0.0000)
  21 Ag     2.843753    3.279945   14.717724    ( 0.0000,  0.0000,  0.0000)
  22 Ag     5.614243    3.275737   14.719060    ( 0.0000,  0.0000,  0.0000)
  23 Ag     8.409632    3.282823   14.715153    ( 0.0000,  0.0000,  0.0000)
  24 Pd     4.228015    5.662840   14.783590    ( 0.0000,  0.0000,  0.0000)
  25 Pd     7.030711    5.717055   14.728704    ( 0.0000,  0.0000,  0.0000)
  26 Ag     9.806855    5.678672   14.712265    ( 0.0000,  0.0000,  0.0000)
  27 Pt     0.026558    1.662797   17.053460    ( 0.0000,  0.0000,  0.0000)
  28 Pd     2.859121    1.682194   17.074410    ( 0.0000,  0.0000,  0.0000)
  29 Pd     5.592176    1.667137   17.073925    ( 0.0000,  0.0000,  0.0000)
  30 Pd     1.372064    4.133520   17.151612    ( 0.0000,  0.0000,  0.0000)
  31 Ru     4.286166    4.066268   17.274718    ( 0.0000,  0.0000,  0.0000)
  32 Pt     7.045233    4.137733   17.174372    ( 0.0000,  0.0000,  0.0000)
  33 Ag     2.787785    6.515011   17.059807    ( 0.0000,  0.0000,  0.0000)
  34 Pt     5.617753    6.436096   17.071885    ( 0.0000,  0.0000,  0.0000)
  35 Ru     8.269059    6.361738   17.420351    ( 0.0000,  0.0000,  0.0000)
  36 Pd     0.103685    0.022970   19.429746    ( 0.0000,  0.0000,  0.0000)
  37 Ru     2.885524    0.026243   19.179786    ( 0.0000,  0.0000,  0.0000)
  38 Pd     5.625414    0.031211   19.381426    ( 0.0000,  0.0000,  0.0000)
  39 Pt     1.447378    2.387861   19.373658    ( 0.0000,  0.0000,  0.0000)
  40 Pd     4.229414    2.417860   19.459875    ( 0.0000,  0.0000,  0.0000)
  41 Pd     7.063231    2.466203   19.415307    ( 0.0000,  0.0000,  0.0000)
  42 Pt     2.840896    4.857097   19.339384    ( 0.0000,  0.0000,  0.0000)
  43 Pd     5.650816    4.875003   19.474472    ( 0.0000,  0.0000,  0.0000)
  44 Ru     8.539370    4.946325   19.445063    ( 0.0000,  0.0000,  0.0000)
  45 O      8.259769    4.998767   21.329698    ( 0.0000,  0.0000,  0.0000)
  46 H      9.056392    5.572715   21.744758    ( 0.0000,  0.0000,  0.0000)

Unit cell:
           periodic     x           y           z      points  spacing
  1. axis:    yes    8.379498    0.000000    0.000000    35     0.2073
  2. axis:    yes    4.189749    7.256858    0.000000    35     0.2073
  3. axis:    no     0.000000    0.000000   29.243062   135     0.2166

  Lengths:   8.379498   8.379498  29.243062
  Angles:   90.000000  90.000000  60.000000

Effective grid spacing dv^(1/3) = 0.2207

                     log10-error:    total        iterations:
           time      wfs    density  energy       fermi  poisson
iter:   1  03:23:33  -1.51   +inf  -202.745155    34            
iter:   2  03:24:48  -0.72  -1.65  -428.068010    38            
iter:   3  03:26:05  -1.42  -1.07  -196.685027    39            
iter:   4  03:27:22  -2.21  -1.78  -187.995191    35            
iter:   5  03:28:37  -2.63  -2.08  -187.070885    3             
iter:   6  03:29:52  -3.45  -2.15  -186.308430    3             
iter:   7  03:31:04  -3.71  -2.39  -186.159809    2             
iter:   8  03:32:18  -3.79  -2.53  -186.001757    3             
iter:   9  03:33:35  -3.88  -2.76  -186.043122    2             
iter:  10  03:34:53  -4.07  -2.65  -186.022428    3             
iter:  11  03:36:11  -4.27  -2.71  -185.996423    3             
iter:  12  03:37:27  -4.66  -2.78  -185.969876    3             
iter:  13  03:38:41  -4.68  -2.95  -185.954158    3             
iter:  14  03:39:55  -5.25  -3.17  -185.955338    2             
iter:  15  03:41:11  -5.50  -3.12  -185.950603    2             
iter:  16  03:42:27  -5.35  -3.36  -185.951437    2             
iter:  17  03:43:45  -5.22  -3.34  -185.950703    2             
iter:  18  03:45:01  -5.51  -3.35  -185.951205    2             
iter:  19  03:46:17  -5.98  -3.60  -185.949382    2             
iter:  20  03:47:33  -6.13  -3.67  -185.948766    2             
iter:  21  03:48:46  -6.51  -3.73  -185.948694    2             
iter:  22  03:50:00  -6.65  -3.90  -185.948726    2             
iter:  23  03:51:18  -6.75  -4.02  -185.948482    2             
iter:  24  03:52:36  -6.71  -4.01  -185.948765    2             
iter:  25  03:53:56  -7.26  -3.94  -185.948663    2             
iter:  26  03:55:11  -7.00  -4.18  -185.948380    2             
iter:  27  03:56:26  -7.11  -4.23  -185.948551    2             
iter:  28  03:57:40  -7.29  -4.13  -185.948583    2             
iter:  29  03:58:57  -7.37  -4.19  -185.948409    2             
iter:  30  04:00:13  -7.65  -4.45  -185.948436    2             

Converged after 30 iterations.

Dipole moment: (17.368218, 16.240396, -0.066895) |e|*Ang

Energy contributions relative to reference atoms: (reference = -9073466.092496)

Kinetic:       -162.078227
Potential:      +17.288768
External:        +0.000000
XC:             -35.666875
Entropy (-ST):   -2.015213
Local:           -4.484495
--------------------------
Free energy:   -186.956043
Extrapolated:  -185.948436

Fermi level: 0.90650

Showing only first 2 kpts
 Kpt  Band  Eigenvalues  Occupancy
  0   367      0.89852    0.12999
  0   368      0.90967    0.12302
  0   369      0.93277    0.10867
  0   370      0.96047    0.09206

  1   367      0.79600    0.18780
  1   368      0.83027    0.17046
  1   369      0.85692    0.15537
  1   370      0.87071    0.14713



Forces in eV/Ang:
  0 Pd    0.09762    0.50467   -0.42126
  1 Ag    0.10853    0.49485   -0.51056
  2 Pt   -0.24593    0.51153    0.84473
  3 Pd    0.10103    0.03513   -0.07931
  4 Pd    0.10817   -0.37406    0.20545
  5 Pt   -0.12919   -0.28911   -0.08417
  6 Pd   -0.16896   -0.39426   -0.05500
  7 Ag   -0.12773   -0.45505   -0.71294
  8 Pd   -0.24772   -0.30433    0.27398
  9 Ag    0.53115    0.20685    0.40977
 10 Ru    2.22723    1.26206    0.45368
 11 Ru   -1.87972    0.83293   -0.29042
 12 Pd    1.11331   -0.22596    0.02994
 13 Ru   -0.53807   -1.48913   -0.81702
 14 Ag   -0.41818    0.15666    0.29846
 15 Pd    0.17306   -0.58101    0.13279
 16 Ag   -0.15496   -0.36470    0.39225
 17 Pd   -0.37235    0.55627    0.05117
 18 Ag   -0.00849   -0.05470    0.01945
 19 Ag    0.03398   -0.00807    0.01274
 20 Pt   -0.01179    0.01248   -0.00007
 21 Ag    0.01516    0.01977    0.03998
 22 Ag    0.04534    0.02110    0.10480
 23 Ag   -0.03359   -0.00467    0.06290
 24 Pd   -0.00282    0.01465   -0.03375
 25 Pd   -0.01646   -0.02646    0.02972
 26 Ag   -0.04177    0.04713    0.04068
 27 Pt    0.05765   -0.11173   -0.02630
 28 Pd   -0.04402    0.14773   -0.11628
 29 Pd    0.01101    0.10760   -0.06183
 30 Pd    0.50475   -0.38087   -0.27036
 31 Ru    0.06142   -0.05063   -0.11651
 32 Pt   -0.62032   -0.75973   -0.29069
 33 Ag    0.05471    0.02841   -0.14605
 34 Pt   -0.16746    0.26742   -0.11641
 35 Ru    0.37632    0.67591   -1.34395
 36 Pd   -0.00782   -0.02357   -0.02316
 37 Ru   -0.53393    0.35556    1.07323
 38 Pd    0.25905    0.12745    0.44868
 39 Pt    0.09076    0.12808    0.03353
 40 Pd   -0.06960    0.11169   -0.05309
 41 Pd    0.09849   -0.04234    0.10942
 42 Pt    0.03138   -0.14607    0.21194
 43 Pd    0.00431    0.02694    0.12153
 44 Ru   -0.18556   -0.75212   -0.33856
 45 O     1.92122    1.57344    1.47269
 46 H    -1.97468   -1.38137   -0.83510

System changes: positions 

Initializing position-dependent things.

Density initialized from wave functions
                                            
                                            
                                            
                                            
                                 H          
                               O            
                                            
                 Pt     Pd     Ru           
                                            
            Pt    APd    PPd   Ru           
       Pd     Ru    RPd                     
             Pd            Pt               
        Pt     Pd    PPd                    
                            Pd    Ag        
                Ag     Ag     Ag            
           Ag     Ag     Pt                 
                 Pd     Ag     Pd           
            Pd     Ru     Ag                
                  Pd     Ag     Pd          
       Ag    PRu    PRu    Pt               
                                            
        Pd     Ag     Pt                    
                                            
                                            
                                            
                                            

Positions:
   0 Pd     0.000000    1.633958   10.000000    ( 0.0000,  0.0000,  0.0000)
   1 Ag     2.830098    1.633958   10.000000    ( 0.0000,  0.0000,  0.0000)
   2 Pt     5.660196    1.633958   10.000000    ( 0.0000,  0.0000,  0.0000)
   3 Pd     1.415049    4.084895   10.000000    ( 0.0000,  0.0000,  0.0000)
   4 Pd     4.245147    4.084895   10.000000    ( 0.0000,  0.0000,  0.0000)
   5 Pt     7.075245    4.084895   10.000000    ( 0.0000,  0.0000,  0.0000)
   6 Pd     2.830098    6.535832   10.000000    ( 0.0000,  0.0000,  0.0000)
   7 Ag     5.660196    6.535832   10.000000    ( 0.0000,  0.0000,  0.0000)
   8 Pd     8.490294    6.535832   10.000000    ( 0.0000,  0.0000,  0.0000)
   9 Ag     0.000000    0.000000   12.310765    ( 0.0000,  0.0000,  0.0000)
  10 Ru     2.830098    0.000000   12.310765    ( 0.0000,  0.0000,  0.0000)
  11 Ru     5.660196    0.000000   12.310765    ( 0.0000,  0.0000,  0.0000)
  12 Pd     1.415049    2.450937   12.310765    ( 0.0000,  0.0000,  0.0000)
  13 Ru     4.245147    2.450937   12.310765    ( 0.0000,  0.0000,  0.0000)
  14 Ag     7.075245    2.450937   12.310765    ( 0.0000,  0.0000,  0.0000)
  15 Pd     2.830098    4.901874   12.310765    ( 0.0000,  0.0000,  0.0000)
  16 Ag     5.660196    4.901874   12.310765    ( 0.0000,  0.0000,  0.0000)
  17 Pd     8.490294    4.901874   12.310765    ( 0.0000,  0.0000,  0.0000)
  18 Ag     1.420248    0.838898   14.685557    ( 0.0000,  0.0000,  0.0000)
  19 Ag     4.224058    0.833088   14.678219    ( 0.0000,  0.0000,  0.0000)
  20 Pt     6.997624    0.829325   14.670906    ( 0.0000,  0.0000,  0.0000)
  21 Ag     2.847912    3.277041   14.706318    ( 0.0000,  0.0000,  0.0000)
  22 Ag     5.609740    3.274820   14.716420    ( 0.0000,  0.0000,  0.0000)
  23 Ag     8.408003    3.280491   14.708918    ( 0.0000,  0.0000,  0.0000)
  24 Pd     4.227854    5.664503   14.784995    ( 0.0000,  0.0000,  0.0000)
  25 Pd     7.026558    5.718598   14.713125    ( 0.0000,  0.0000,  0.0000)
  26 Ag     9.808667    5.684094   14.700782    ( 0.0000,  0.0000,  0.0000)
  27 Pt     0.030663    1.659364   17.055106    ( 0.0000,  0.0000,  0.0000)
  28 Pd     2.859680    1.670920   17.083836    ( 0.0000,  0.0000,  0.0000)
  29 Pd     5.588677    1.664640   17.076553    ( 0.0000,  0.0000,  0.0000)
  30 Pd     1.412124    4.107717   17.103361    ( 0.0000,  0.0000,  0.0000)
  31 Ru     4.285822    4.069445   17.291476    ( 0.0000,  0.0000,  0.0000)
  32 Pt     7.011247    4.112954   17.128714    ( 0.0000,  0.0000,  0.0000)
  33 Ag     2.790507    6.509891   17.066566    ( 0.0000,  0.0000,  0.0000)
  34 Pt     5.616864    6.445086   17.080661    ( 0.0000,  0.0000,  0.0000)
  35 Ru     8.277105    6.410626   17.288129    ( 0.0000,  0.0000,  0.0000)
  36 Pd     0.108413    0.032313   19.431253    ( 0.0000,  0.0000,  0.0000)
  37 Ru     2.891771   -0.003787   19.196223    ( 0.0000,  0.0000,  0.0000)
  38 Pd     5.619363    0.022778   19.405317    ( 0.0000,  0.0000,  0.0000)
  39 Pt     1.445593    2.422737   19.370922    ( 0.0000,  0.0000,  0.0000)
  40 Pd     4.216642    2.423347   19.461046    ( 0.0000,  0.0000,  0.0000)
  41 Pd     7.072777    2.472354   19.414942    ( 0.0000,  0.0000,  0.0000)
  42 Pt     2.831779    4.840542   19.357035    ( 0.0000,  0.0000,  0.0000)
  43 Pd     5.664226    4.880908   19.500634    ( 0.0000,  0.0000,  0.0000)
  44 Ru     8.490062    4.948310   19.421094    ( 0.0000,  0.0000,  0.0000)
  45 O      8.368321    5.018778   21.355140    ( 0.0000,  0.0000,  0.0000)
  46 H      9.041909    5.581192   21.818247    ( 0.0000,  0.0000,  0.0000)

Unit cell:
           periodic     x           y           z      points  spacing
  1. axis:    yes    8.379498    0.000000    0.000000    35     0.2073
  2. axis:    yes    4.189749    7.256858    0.000000    35     0.2073
  3. axis:    no     0.000000    0.000000   29.243062   135     0.2166

  Lengths:   8.379498   8.379498  29.243062
  Angles:   90.000000  90.000000  60.000000

Effective grid spacing dv^(1/3) = 0.2207

                     log10-error:    total        iterations:
           time      wfs    density  energy       fermi  poisson
iter:   1  04:02:04  -1.70   +inf  -196.178502    4             
iter:   2  04:03:21  -0.95  -1.72  -391.516160    37            
iter:   3  04:04:36  -1.51  -1.13  -199.323508    39            
iter:   4  04:05:51  -2.35  -1.77  -188.545713    4             
iter:   5  04:07:05  -3.06  -2.07  -186.786607    3             
iter:   6  04:08:13  -3.24  -2.37  -186.496734    2             
iter:   7  04:09:24  -3.59  -2.44  -186.953557    3             
iter:   8  04:10:36  -3.58  -2.28  -186.334051    2             
iter:   9  04:11:51  -4.27  -2.61  -186.254901    2             
iter:  10  04:13:06  -4.49  -2.91  -186.241318    3             
iter:  11  04:14:19  -4.55  -3.07  -186.246309    3             
iter:  12  04:15:34  -4.58  -2.98  -186.258396    2             
iter:  13  04:16:51  -4.70  -2.86  -186.236417    3             
iter:  14  04:18:07  -5.52  -3.13  -186.229609    2             
iter:  15  04:19:23  -5.53  -3.34  -186.228177    2             
iter:  16  04:20:39  -5.42  -3.36  -186.231126    2             
iter:  17  04:21:53  -6.00  -3.28  -186.227693    2             
iter:  18  04:23:09  -5.60  -3.48  -186.225983    2             
iter:  19  04:24:25  -5.90  -3.61  -186.231037    2             
iter:  20  04:25:41  -5.84  -3.30  -186.228438    2             
iter:  21  04:26:58  -5.94  -3.52  -186.226220    2             
iter:  22  04:28:13  -6.34  -3.77  -186.226774    2             
iter:  23  04:29:28  -6.02  -3.75  -186.226169    2             
iter:  24  04:30:43  -6.87  -3.98  -186.226108    2             
iter:  25  04:31:58  -7.11  -4.17  -186.226191    2             
iter:  26  04:33:12  -6.82  -4.06  -186.226266    2             
iter:  27  04:34:25  -7.05  -4.37  -186.225940    2             
iter:  28  04:35:39  -7.44  -4.12  -186.226095    2             

Converged after 28 iterations.

Dipole moment: (20.354968, 18.253780, -0.058818) |e|*Ang

Energy contributions relative to reference atoms: (reference = -9073466.092496)

Kinetic:       -171.971930
Potential:      +25.718879
External:        +0.000000
XC:             -34.537938
Entropy (-ST):   -2.045809
Local:           -4.412202
--------------------------
Free energy:   -187.248999
Extrapolated:  -186.226095

Fermi level: 0.90561

Showing only first 2 kpts
 Kpt  Band  Eigenvalues  Occupancy
  0   367      0.89582    0.13111
  0   368      0.90431    0.12581
  0   369      0.93021    0.10970
  0   370      0.95188    0.09658

  1   367      0.79746    0.18669
  1   368      0.82318    0.17379
  1   369      0.85283    0.15724
  1   370      0.87568    0.14357



Forces in eV/Ang:
  0 Pd    0.09788    0.50605   -0.42140
  1 Ag    0.10671    0.49431   -0.50804
  2 Pt   -0.24089    0.50765    0.84098
  3 Pd    0.10129    0.03361   -0.07965
  4 Pd    0.10647   -0.37083    0.20320
  5 Pt   -0.12784   -0.29000   -0.08453
  6 Pd   -0.16945   -0.39162   -0.05499
  7 Ag   -0.12643   -0.45319   -0.71037
  8 Pd   -0.24763   -0.30362    0.27503
  9 Ag    0.52554    0.21287    0.42223
 10 Ru    2.21185    1.26776    0.42924
 11 Ru   -1.85948    0.85096   -0.33049
 12 Pd    1.11167   -0.23657    0.02212
 13 Ru   -0.53614   -1.48680   -0.84327
 14 Ag   -0.42618    0.14266    0.29401
 15 Pd    0.18274   -0.58066    0.10659
 16 Ag   -0.16980   -0.37136    0.37361
 17 Pd   -0.37236    0.54449    0.01398
 18 Ag   -0.00810   -0.01077   -0.00270
 19 Ag    0.00028   -0.01674    0.05152
 20 Pt   -0.00277    0.00361   -0.01731
 21 Ag   -0.00948    0.01802    0.04858
 22 Ag    0.03649    0.01788    0.05519
 23 Ag   -0.01109    0.00159    0.03706
 24 Pd    0.00006    0.00111   -0.02021
 25 Pd    0.00210   -0.01801    0.05581
 26 Ag   -0.01966    0.00536    0.04859
 27 Pt    0.00678   -0.04279   -0.01131
 28 Pd   -0.00988    0.08769   -0.08312
 29 Pd    0.01944    0.06194   -0.03279
 30 Pd    0.05862   -0.06223    0.04172
 31 Ru    0.02283   -0.03207   -0.09258
 32 Pt   -0.12760   -0.20411    0.01766
 33 Ag    0.02364    0.02635   -0.07633
 34 Pt   -0.08373    0.07790   -0.06507
 35 Ru    0.11456    0.06684   -0.02841
 36 Pd   -0.01885   -0.03823   -0.02841
 37 Ru   -0.18583    0.18945    0.32482
 38 Pd    0.08442    0.04708    0.08566
 39 Pt    0.04638   -0.03199    0.01717
 40 Pd    0.01518    0.03496   -0.03017
 41 Pd    0.01214   -0.02712    0.02542
 42 Pt    0.01437   -0.01484    0.02776
 43 Pd   -0.00965    0.00328   -0.04846
 44 Ru    0.07009   -0.25421   -0.34180
 45 O    -0.16230    0.06061    0.36437
 46 H    -0.04766   -0.09542   -0.19287

System changes: positions 

Initializing position-dependent things.

Density initialized from wave functions
                                            
                                            
                                            
                                            
                                 H          
                              O             
                                            
                 Pt     Pd     Ru           
                                            
            Pt    APd    PPd   Ru           
       Pd     Ru    RPd                     
             Pd            Pt               
        Pt     Pd    PPd                    
                            Pd    Ag        
                Ag     Ag     Ag            
           Ag     Ag     Pt                 
                 Pd     Ag     Pd           
            Pd     Ru     Ag                
                  Pd     Ag     Pd          
       Ag    PRu    PRu    Pt               
                                            
        Pd     Ag     Pt                    
                                            
                                            
                                            
                                            

Positions:
   0 Pd     0.000000    1.633958   10.000000    ( 0.0000,  0.0000,  0.0000)
   1 Ag     2.830098    1.633958   10.000000    ( 0.0000,  0.0000,  0.0000)
   2 Pt     5.660196    1.633958   10.000000    ( 0.0000,  0.0000,  0.0000)
   3 Pd     1.415049    4.084895   10.000000    ( 0.0000,  0.0000,  0.0000)
   4 Pd     4.245147    4.084895   10.000000    ( 0.0000,  0.0000,  0.0000)
   5 Pt     7.075245    4.084895   10.000000    ( 0.0000,  0.0000,  0.0000)
   6 Pd     2.830098    6.535832   10.000000    ( 0.0000,  0.0000,  0.0000)
   7 Ag     5.660196    6.535832   10.000000    ( 0.0000,  0.0000,  0.0000)
   8 Pd     8.490294    6.535832   10.000000    ( 0.0000,  0.0000,  0.0000)
   9 Ag     0.000000    0.000000   12.310765    ( 0.0000,  0.0000,  0.0000)
  10 Ru     2.830098    0.000000   12.310765    ( 0.0000,  0.0000,  0.0000)
  11 Ru     5.660196    0.000000   12.310765    ( 0.0000,  0.0000,  0.0000)
  12 Pd     1.415049    2.450937   12.310765    ( 0.0000,  0.0000,  0.0000)
  13 Ru     4.245147    2.450937   12.310765    ( 0.0000,  0.0000,  0.0000)
  14 Ag     7.075245    2.450937   12.310765    ( 0.0000,  0.0000,  0.0000)
  15 Pd     2.830098    4.901874   12.310765    ( 0.0000,  0.0000,  0.0000)
  16 Ag     5.660196    4.901874   12.310765    ( 0.0000,  0.0000,  0.0000)
  17 Pd     8.490294    4.901874   12.310765    ( 0.0000,  0.0000,  0.0000)
  18 Ag     1.419039    0.838708   14.684519    ( 0.0000,  0.0000,  0.0000)
  19 Ag     4.222891    0.830666   14.687098    ( 0.0000,  0.0000,  0.0000)
  20 Pt     6.996532    0.829032   14.667301    ( 0.0000,  0.0000,  0.0000)
  21 Ag     2.845786    3.279752   14.714652    ( 0.0000,  0.0000,  0.0000)
  22 Ag     5.614866    3.276908   14.723007    ( 0.0000,  0.0000,  0.0000)
  23 Ag     8.407239    3.281322   14.714662    ( 0.0000,  0.0000,  0.0000)
  24 Pd     4.227948    5.664224   14.782558    ( 0.0000,  0.0000,  0.0000)
  25 Pd     7.028017    5.716344   14.723561    ( 0.0000,  0.0000,  0.0000)
  26 Ag     9.806057    5.683172   14.709155    ( 0.0000,  0.0000,  0.0000)
  27 Pt     0.030344    1.655832   17.053450    ( 0.0000,  0.0000,  0.0000)
  28 Pd     2.858372    1.683138   17.072714    ( 0.0000,  0.0000,  0.0000)
  29 Pd     5.591760    1.671751   17.072312    ( 0.0000,  0.0000,  0.0000)
  30 Pd     1.406865    4.108408   17.121577    ( 0.0000,  0.0000,  0.0000)
  31 Ru     4.288303    4.065187   17.277122    ( 0.0000,  0.0000,  0.0000)
  32 Pt     7.007470    4.098268   17.143125    ( 0.0000,  0.0000,  0.0000)
  33 Ag     2.792315    6.514304   17.056558    ( 0.0000,  0.0000,  0.0000)
  34 Pt     5.608143    6.450966   17.071049    ( 0.0000,  0.0000,  0.0000)
  35 Ru     8.286851    6.404227   17.321846    ( 0.0000,  0.0000,  0.0000)
  36 Pd     0.105187    0.025726   19.427951    ( 0.0000,  0.0000,  0.0000)
  37 Ru     2.869711    0.025825   19.226074    ( 0.0000,  0.0000,  0.0000)
  38 Pd     5.630258    0.030644   19.407456    ( 0.0000,  0.0000,  0.0000)
  39 Pt     1.451117    2.409320   19.373624    ( 0.0000,  0.0000,  0.0000)
  40 Pd     4.221642    2.425559   19.457590    ( 0.0000,  0.0000,  0.0000)
  41 Pd     7.071319    2.467567   19.417853    ( 0.0000,  0.0000,  0.0000)
  42 Pt     2.836229    4.843219   19.354710    ( 0.0000,  0.0000,  0.0000)
  43 Pd     5.659070    4.879504   19.488291    ( 0.0000,  0.0000,  0.0000)
  44 Ru     8.511956    4.919548   19.398430    ( 0.0000,  0.0000,  0.0000)
  45 O      8.317479    5.017342   21.378077    ( 0.0000,  0.0000,  0.0000)
  46 H      9.043630    5.571004   21.779196    ( 0.0000,  0.0000,  0.0000)

Unit cell:
           periodic     x           y           z      points  spacing
  1. axis:    yes    8.379498    0.000000    0.000000    35     0.2073
  2. axis:    yes    4.189749    7.256858    0.000000    35     0.2073
  3. axis:    no     0.000000    0.000000   29.243062   135     0.2166

  Lengths:   8.379498   8.379498  29.243062
  Angles:   90.000000  90.000000  60.000000

Effective grid spacing dv^(1/3) = 0.2207

                     log10-error:    total        iterations:
           time      wfs    density  energy       fermi  poisson
iter:   1  04:37:24  -2.38   +inf  -186.818086    3             
iter:   2  04:38:38  -2.68  -2.33  -191.362208    3             
iter:   3  04:39:51  -2.86  -1.86  -187.970173    3             
iter:   4  04:41:04  -3.52  -2.10  -186.414887    3             
iter:   5  04:42:18  -4.01  -2.68  -186.358000    3             
iter:   6  04:43:31  -4.27  -2.67  -186.291907    3             
iter:   7  04:44:46  -4.80  -2.82  -186.270500    2             
iter:   8  04:46:01  -4.74  -3.11  -186.255892    3             
iter:   9  04:47:15  -5.37  -3.14  -186.253485    2             
iter:  10  04:48:31  -5.23  -3.31  -186.260114    3             
iter:  11  04:49:43  -5.31  -3.20  -186.252311    3             
iter:  12  04:50:56  -5.05  -3.31  -186.249827    2             
iter:  13  04:52:10  -5.58  -3.61  -186.251241    2             
iter:  14  04:53:25  -6.31  -3.66  -186.250314    2             
iter:  15  04:54:40  -6.72  -3.65  -186.250101    2             
iter:  16  04:55:54  -6.16  -3.78  -186.251694    2             
iter:  17  04:57:09  -6.40  -3.68  -186.250532    2             
iter:  18  04:58:23  -6.57  -3.75  -186.250077    2             
iter:  19  04:59:38  -6.79  -4.04  -186.250386    2             
iter:  20  05:00:54  -6.76  -4.22  -186.250596    2             
iter:  21  05:02:07  -6.83  -4.32  -186.249881    2             
iter:  22  05:03:21  -7.05  -4.18  -186.250413    2             
iter:  23  05:04:35  -7.72  -4.17  -186.250342    2             

Converged after 23 iterations.

Dipole moment: (18.700327, 16.861493, -0.127694) |e|*Ang

Energy contributions relative to reference atoms: (reference = -9073466.092496)

Kinetic:       -175.360485
Potential:      +28.536361
External:        +0.000000
XC:             -34.010721
Entropy (-ST):   -2.042489
Local:           -4.394251
--------------------------
Free energy:   -187.271587
Extrapolated:  -186.250342

Fermi level: 0.87286

Showing only first 2 kpts
 Kpt  Band  Eigenvalues  Occupancy
  0   367      0.86163    0.13201
  0   368      0.87129    0.12598
  0   369      0.89754    0.10965
  0   370      0.91882    0.09677

  1   367      0.76329    0.18736
  1   368      0.79285    0.17250
  1   369      0.82235    0.15591
  1   370      0.84255    0.14380



Forces in eV/Ang:
  0 Pd    0.09646    0.50512   -0.42386
  1 Ag    0.10725    0.49411   -0.51054
  2 Pt   -0.24207    0.50985    0.84130
  3 Pd    0.10124    0.03485   -0.08201
  4 Pd    0.10710   -0.37122    0.20159
  5 Pt   -0.12877   -0.28990   -0.08754
  6 Pd   -0.16913   -0.39231   -0.05666
  7 Ag   -0.12733   -0.45404   -0.71289
  8 Pd   -0.24737   -0.30462    0.27193
  9 Ag    0.52898    0.21052    0.41380
 10 Ru    2.22125    1.26540    0.45008
 11 Ru   -1.87144    0.84316   -0.30350
 12 Pd    1.11360   -0.23074    0.03988
 13 Ru   -0.53290   -1.48811   -0.81189
 14 Ag   -0.42554    0.15160    0.30092
 15 Pd    0.17402   -0.58108    0.13161
 16 Ag   -0.16122   -0.37068    0.39067
 17 Pd   -0.37121    0.55110    0.04414
 18 Ag   -0.00032   -0.00336   -0.02786
 19 Ag    0.00746    0.01183   -0.00028
 20 Pt   -0.00344    0.00975   -0.03067
 21 Ag    0.01602    0.01094   -0.00136
 22 Ag   -0.01160   -0.00128    0.00099
 23 Ag    0.00614   -0.00407    0.03334
 24 Pd   -0.00599   -0.00726   -0.04149
 25 Pd   -0.01052   -0.00867    0.05101
 26 Ag   -0.01825    0.00165    0.02602
 27 Pt    0.02122   -0.01730   -0.01292
 28 Pd    0.01722   -0.04005    0.02592
 29 Pd   -0.01897   -0.03324    0.00125
 30 Pd    0.11623   -0.09498   -0.09099
 31 Ru   -0.00190    0.02203   -0.04989
 32 Pt   -0.09172   -0.03161   -0.05743
 33 Ag   -0.02986   -0.02150   -0.01546
 34 Pt    0.15598    0.05492    0.05975
 35 Ru   -0.14698    0.15092    0.05445
 36 Pd   -0.02271   -0.02745    0.01064
 37 Ru   -0.00224   -0.02493   -0.03852
 38 Pd   -0.02523   -0.03695    0.08290
 39 Pt    0.02665    0.00864    0.06431
 40 Pd    0.01177    0.02694   -0.02723
 41 Pd    0.03678   -0.03044    0.07370
 42 Pt    0.02110   -0.02679    0.02541
 43 Pd    0.02935    0.03146   -0.01039
 44 Ru   -0.17299   -0.03785    0.41235
 45 O     0.30446    0.26358   -0.32629
 46 H    -0.25222   -0.22072   -0.16317

System changes: positions 

Initializing position-dependent things.

Density initialized from wave functions
                                            
                                            
                                            
                                            
                                H           
                              O             
                                            
                 Pt     Pd     Ru           
                                            
            Pt    APd    PPd   Ru           
       Pd     Ru    RPd                     
             Pd            Pt               
        Pt     Pd    PPd    Pd              
                                  Ag        
                Ag     Ag     Ag            
           Ag     Ag     Pt                 
                 Pd     Ag     Pd           
            Pd     Ru     Ag                
                  Pd     Ag     Pd          
       Ag    PRu    PRu    Pt               
                                            
        Pd     Ag     Pt                    
                                            
                                            
                                            
                                            

Positions:
   0 Pd     0.000000    1.633958   10.000000    ( 0.0000,  0.0000,  0.0000)
   1 Ag     2.830098    1.633958   10.000000    ( 0.0000,  0.0000,  0.0000)
   2 Pt     5.660196    1.633958   10.000000    ( 0.0000,  0.0000,  0.0000)
   3 Pd     1.415049    4.084895   10.000000    ( 0.0000,  0.0000,  0.0000)
   4 Pd     4.245147    4.084895   10.000000    ( 0.0000,  0.0000,  0.0000)
   5 Pt     7.075245    4.084895   10.000000    ( 0.0000,  0.0000,  0.0000)
   6 Pd     2.830098    6.535832   10.000000    ( 0.0000,  0.0000,  0.0000)
   7 Ag     5.660196    6.535832   10.000000    ( 0.0000,  0.0000,  0.0000)
   8 Pd     8.490294    6.535832   10.000000    ( 0.0000,  0.0000,  0.0000)
   9 Ag     0.000000    0.000000   12.310765    ( 0.0000,  0.0000,  0.0000)
  10 Ru     2.830098    0.000000   12.310765    ( 0.0000,  0.0000,  0.0000)
  11 Ru     5.660196    0.000000   12.310765    ( 0.0000,  0.0000,  0.0000)
  12 Pd     1.415049    2.450937   12.310765    ( 0.0000,  0.0000,  0.0000)
  13 Ru     4.245147    2.450937   12.310765    ( 0.0000,  0.0000,  0.0000)
  14 Ag     7.075245    2.450937   12.310765    ( 0.0000,  0.0000,  0.0000)
  15 Pd     2.830098    4.901874   12.310765    ( 0.0000,  0.0000,  0.0000)
  16 Ag     5.660196    4.901874   12.310765    ( 0.0000,  0.0000,  0.0000)
  17 Pd     8.490294    4.901874   12.310765    ( 0.0000,  0.0000,  0.0000)
  18 Ag     1.418818    0.838353   14.682376    ( 0.0000,  0.0000,  0.0000)
  19 Ag     4.223241    0.830827   14.689077    ( 0.0000,  0.0000,  0.0000)
  20 Pt     6.996093    0.829754   14.664490    ( 0.0000,  0.0000,  0.0000)
  21 Ag     2.846354    3.281142   14.716418    ( 0.0000,  0.0000,  0.0000)
  22 Ag     5.615291    3.277374   14.724748    ( 0.0000,  0.0000,  0.0000)
  23 Ag     8.407485    3.281220   14.718203    ( 0.0000,  0.0000,  0.0000)
  24 Pd     4.227518    5.663659   14.779039    ( 0.0000,  0.0000,  0.0000)
  25 Pd     7.027545    5.715153   14.729253    ( 0.0000,  0.0000,  0.0000)
  26 Ag     9.804134    5.683186   14.712724    ( 0.0000,  0.0000,  0.0000)
  27 Pt     0.031655    1.653615   17.051927    ( 0.0000,  0.0000,  0.0000)
  28 Pd     2.859456    1.683227   17.071522    ( 0.0000,  0.0000,  0.0000)
  29 Pd     5.591076    1.671342   17.071265    ( 0.0000,  0.0000,  0.0000)
  30 Pd     1.414529    4.101476   17.118370    ( 0.0000,  0.0000,  0.0000)
  31 Ru     4.288853    4.065651   17.270130    ( 0.0000,  0.0000,  0.0000)
  32 Pt     6.999406    4.092153   17.141844    ( 0.0000,  0.0000,  0.0000)
  33 Ag     2.790698    6.513669   17.053018    ( 0.0000,  0.0000,  0.0000)
[...]
  21 Ag     2.847652    3.280741   14.713471    ( 0.0000,  0.0000,  0.0000)
  22 Ag     5.613512    3.276528   14.721988    ( 0.0000,  0.0000,  0.0000)
  23 Ag     8.408162    3.281035   14.719917    ( 0.0000,  0.0000,  0.0000)
  24 Pd     4.228445    5.665191   14.776710    ( 0.0000,  0.0000,  0.0000)
  25 Pd     7.027217    5.715627   14.732177    ( 0.0000,  0.0000,  0.0000)
  26 Ag     9.801483    5.683783   14.713390    ( 0.0000,  0.0000,  0.0000)
  27 Pt     0.033347    1.653110   17.053650    ( 0.0000,  0.0000,  0.0000)
  28 Pd     2.860162    1.679451   17.074866    ( 0.0000,  0.0000,  0.0000)
  29 Pd     5.589891    1.665318   17.073869    ( 0.0000,  0.0000,  0.0000)
  30 Pd     1.416943    4.098859   17.114382    ( 0.0000,  0.0000,  0.0000)
  31 Ru     4.286570    4.069812   17.268713    ( 0.0000,  0.0000,  0.0000)
  32 Pt     7.001354    4.096549   17.138177    ( 0.0000,  0.0000,  0.0000)
  33 Ag     2.788515    6.511176   17.054722    ( 0.0000,  0.0000,  0.0000)
  34 Pt     5.623446    6.458346   17.075874    ( 0.0000,  0.0000,  0.0000)
  35 Ru     8.273993    6.413703   17.335588    ( 0.0000,  0.0000,  0.0000)
  36 Pd     0.099828    0.020525   19.429791    ( 0.0000,  0.0000,  0.0000)
  37 Ru     2.866334    0.028259   19.231246    ( 0.0000,  0.0000,  0.0000)
  38 Pd     5.626140    0.022417   19.422167    ( 0.0000,  0.0000,  0.0000)
  39 Pt     1.455714    2.410638   19.384162    ( 0.0000,  0.0000,  0.0000)
  40 Pd     4.224879    2.429530   19.453541    ( 0.0000,  0.0000,  0.0000)
  41 Pd     7.077385    2.462603   19.430477    ( 0.0000,  0.0000,  0.0000)
  42 Pt     2.836101    4.840009   19.358220    ( 0.0000,  0.0000,  0.0000)
  43 Pd     5.662672    4.883255   19.485867    ( 0.0000,  0.0000,  0.0000)
  44 Ru     8.494644    4.909384   19.404475    ( 0.0000,  0.0000,  0.0000)
  45 O      8.314982    5.029484   21.355295    ( 0.0000,  0.0000,  0.0000)
  46 H      9.038122    5.561857   21.767872    ( 0.0000,  0.0000,  0.0000)

Unit cell:
           periodic     x           y           z      points  spacing
  1. axis:    yes    8.379498    0.000000    0.000000    35     0.2073
  2. axis:    yes    4.189749    7.256858    0.000000    35     0.2073
  3. axis:    no     0.000000    0.000000   29.243062   135     0.2166

  Lengths:   8.379498   8.379498  29.243062
  Angles:   90.000000  90.000000  60.000000

Effective grid spacing dv^(1/3) = 0.2207

                     log10-error:    total        iterations:
           time      wfs    density  energy       fermi  poisson
iter:   1  05:28:10  -3.41   +inf  -186.414136    3             
iter:   2  05:29:24  -3.13  -2.69  -189.284263    3             
iter:   3  05:30:40  -3.28  -1.96  -186.606115    3             
iter:   4  05:31:54  -4.46  -2.45  -186.289085    3             
iter:   5  05:33:07  -4.94  -3.22  -186.275911    3             
iter:   6  05:34:22  -5.68  -3.28  -186.272425    2             
iter:   7  05:35:38  -5.97  -3.68  -186.272041    2             
iter:   8  05:36:52  -5.86  -3.72  -186.271939    2             
iter:   9  05:38:08  -6.20  -3.88  -186.271703    2             
iter:  10  05:39:22  -6.46  -3.94  -186.272069    2             
iter:  11  05:40:34  -6.58  -4.04  -186.271192    2             
iter:  12  05:41:48  -6.89  -3.87  -186.271523    2             
iter:  13  05:43:02  -7.08  -4.03  -186.271560    2             
iter:  14  05:44:20  -7.55  -4.25  -186.271555    2             

Converged after 14 iterations.

Dipole moment: (19.217159, 17.514288, -0.102002) |e|*Ang

Energy contributions relative to reference atoms: (reference = -9073466.092496)

Kinetic:       -174.762925
Potential:      +28.072940
External:        +0.000000
XC:             -34.154292
Entropy (-ST):   -2.041063
Local:           -4.406747
--------------------------
Free energy:   -187.292087
Extrapolated:  -186.271555

Fermi level: 0.88543

Showing only first 2 kpts
 Kpt  Band  Eigenvalues  Occupancy
  0   367      0.87262    0.13299
  0   368      0.88535    0.12505
  0   369      0.90966    0.10992
  0   370      0.93402    0.09521

  1   367      0.77602    0.18729
  1   368      0.80505    0.17269
  1   369      0.83451    0.15615
  1   370      0.85642    0.14300



Forces in eV/Ang:
  0 Pd    0.09689    0.50595   -0.42085
  1 Ag    0.10759    0.49290   -0.50635
  2 Pt   -0.24387    0.50998    0.84496
  3 Pd    0.10068    0.03404   -0.07575
  4 Pd    0.10840   -0.37238    0.20567
  5 Pt   -0.12952   -0.28897   -0.08094
  6 Pd   -0.16964   -0.39243   -0.05327
  7 Ag   -0.12510   -0.45375   -0.71073
  8 Pd   -0.24881   -0.30502    0.27622
  9 Ag    0.53113    0.20954    0.39123
 10 Ru    2.23340    1.25744    0.44651
 11 Ru   -1.88035    0.83440   -0.30074
 12 Pd    1.10902   -0.22079    0.03615
 13 Ru   -0.53541   -1.49215   -0.82084
 14 Ag   -0.41877    0.16636    0.29746
 15 Pd    0.16383   -0.57765    0.13136
 16 Ag   -0.14864   -0.36965    0.39215
 17 Pd   -0.37386    0.55064    0.05919
 18 Ag   -0.00740    0.00738    0.00867
 19 Ag    0.00428    0.00363    0.00454
 20 Pt    0.00159   -0.00787    0.03573
 21 Ag   -0.00180    0.00173   -0.00007
 22 Ag    0.00311   -0.01232    0.01404
 23 Ag   -0.00549   -0.01386    0.00175
 24 Pd   -0.00806    0.01465    0.03173
 25 Pd   -0.00732   -0.00544   -0.01819
 26 Ag    0.00948    0.00563    0.00387
 27 Pt   -0.02813   -0.01122    0.02458
 28 Pd   -0.00214    0.03172    0.00681
 29 Pd    0.03252    0.02218    0.02383
 30 Pd    0.01189   -0.00917    0.00485
 31 Ru    0.01714   -0.00778    0.00624
 32 Pt   -0.04001   -0.09204   -0.00570
 33 Ag    0.01004    0.01653    0.01344
 34 Pt   -0.10823    0.00899   -0.01527
 35 Ru    0.09760    0.00721   -0.03916
 36 Pd   -0.01312    0.01188   -0.01825
 37 Ru   -0.02202    0.04406    0.07433
 38 Pd    0.00764   -0.00291    0.01906
 39 Pt   -0.00407   -0.01503    0.00999
 40 Pd    0.02791    0.00842   -0.03837
 41 Pd   -0.01400   -0.00685   -0.01676
 42 Pt   -0.00479   -0.00696   -0.00995
 43 Pd   -0.01789   -0.03625   -0.00478
 44 Ru   -0.00559   -0.02651    0.05156
 45 O    -0.04657    0.03499   -0.06435
 46 H     0.03320   -0.01156   -0.02299

System changes: positions 

Initializing position-dependent things.

Density initialized from wave functions
                                            
                                            
                                            
                                            
                                 H          
                              O             
                                            
                 Pt     Pd     Ru           
                                            
            Pt    APd    PPd   Ru           
       Pd     Ru    RPd                     
             Pd            Pt               
        Pt     Pd    PPd    Pd              
                                  Ag        
                Ag     Ag     Ag            
           Ag     Ag     Pt                 
                 Pd     Ag     Pd           
            Pd     Ru     Ag                
                  Pd     Ag     Pd          
       Ag    PRu    PRu    Pt               
                                            
        Pd     Ag     Pt                    
                                            
                                            
                                            
                                            

Positions:
   0 Pd     0.000000    1.633958   10.000000    ( 0.0000,  0.0000,  0.0000)
   1 Ag     2.830098    1.633958   10.000000    ( 0.0000,  0.0000,  0.0000)
   2 Pt     5.660196    1.633958   10.000000    ( 0.0000,  0.0000,  0.0000)
   3 Pd     1.415049    4.084895   10.000000    ( 0.0000,  0.0000,  0.0000)
   4 Pd     4.245147    4.084895   10.000000    ( 0.0000,  0.0000,  0.0000)
   5 Pt     7.075245    4.084895   10.000000    ( 0.0000,  0.0000,  0.0000)
   6 Pd     2.830098    6.535832   10.000000    ( 0.0000,  0.0000,  0.0000)
   7 Ag     5.660196    6.535832   10.000000    ( 0.0000,  0.0000,  0.0000)
   8 Pd     8.490294    6.535832   10.000000    ( 0.0000,  0.0000,  0.0000)
   9 Ag     0.000000    0.000000   12.310765    ( 0.0000,  0.0000,  0.0000)
  10 Ru     2.830098    0.000000   12.310765    ( 0.0000,  0.0000,  0.0000)
  11 Ru     5.660196    0.000000   12.310765    ( 0.0000,  0.0000,  0.0000)
  12 Pd     1.415049    2.450937   12.310765    ( 0.0000,  0.0000,  0.0000)
  13 Ru     4.245147    2.450937   12.310765    ( 0.0000,  0.0000,  0.0000)
  14 Ag     7.075245    2.450937   12.310765    ( 0.0000,  0.0000,  0.0000)
  15 Pd     2.830098    4.901874   12.310765    ( 0.0000,  0.0000,  0.0000)
  16 Ag     5.660196    4.901874   12.310765    ( 0.0000,  0.0000,  0.0000)
  17 Pd     8.490294    4.901874   12.310765    ( 0.0000,  0.0000,  0.0000)
  18 Ag     1.419376    0.838299   14.678796    ( 0.0000,  0.0000,  0.0000)
  19 Ag     4.222891    0.831487   14.688246    ( 0.0000,  0.0000,  0.0000)
  20 Pt     6.995870    0.829214   14.662648    ( 0.0000,  0.0000,  0.0000)
  21 Ag     2.847957    3.280851   14.712621    ( 0.0000,  0.0000,  0.0000)
  22 Ag     5.613129    3.275253   14.721933    ( 0.0000,  0.0000,  0.0000)
  23 Ag     8.408138    3.279978   14.721227    ( 0.0000,  0.0000,  0.0000)
  24 Pd     4.228259    5.666950   14.777863    ( 0.0000,  0.0000,  0.0000)
  25 Pd     7.026650    5.715312   14.732974    ( 0.0000,  0.0000,  0.0000)
  26 Ag     9.800819    5.684265   14.714614    ( 0.0000,  0.0000,  0.0000)
  27 Pt     0.031837    1.652068   17.056269    ( 0.0000,  0.0000,  0.0000)
  28 Pd     2.860337    1.680694   17.076438    ( 0.0000,  0.0000,  0.0000)
  29 Pd     5.591967    1.664316   17.076802    ( 0.0000,  0.0000,  0.0000)
  30 Pd     1.417561    4.097797   17.114842    ( 0.0000,  0.0000,  0.0000)
  31 Ru     4.286842    4.071049   17.267563    ( 0.0000,  0.0000,  0.0000)
  32 Pt     7.000343    4.092330   17.137988    ( 0.0000,  0.0000,  0.0000)
  33 Ag     2.788099    6.511443   17.056160    ( 0.0000,  0.0000,  0.0000)
  34 Pt     5.618355    6.459768   17.075690    ( 0.0000,  0.0000,  0.0000)
  35 Ru     8.278691    6.412351   17.340093    ( 0.0000,  0.0000,  0.0000)
  36 Pd     0.097097    0.020035   19.428997    ( 0.0000,  0.0000,  0.0000)
  37 Ru     2.864839    0.032364   19.236857    ( 0.0000,  0.0000,  0.0000)
  38 Pd     5.624830    0.019084   19.426614    ( 0.0000,  0.0000,  0.0000)
  39 Pt     1.456283    2.409488   19.387511    ( 0.0000,  0.0000,  0.0000)
  40 Pd     4.228231    2.430699   19.449620    ( 0.0000,  0.0000,  0.0000)
  41 Pd     7.077705    2.460802   19.432369    ( 0.0000,  0.0000,  0.0000)
  42 Pt     2.834989    4.839322   19.357402    ( 0.0000,  0.0000,  0.0000)
  43 Pd     5.661829    4.881147   19.484472    ( 0.0000,  0.0000,  0.0000)
  44 Ru     8.491994    4.906110   19.403111    ( 0.0000,  0.0000,  0.0000)
  45 O      8.307157    5.035216   21.350614    ( 0.0000,  0.0000,  0.0000)
  46 H      9.039506    5.557846   21.760661    ( 0.0000,  0.0000,  0.0000)

Unit cell:
           periodic     x           y           z      points  spacing
  1. axis:    yes    8.379498    0.000000    0.000000    35     0.2073
  2. axis:    yes    4.189749    7.256858    0.000000    35     0.2073
  3. axis:    no     0.000000    0.000000   29.243062   135     0.2166

  Lengths:   8.379498   8.379498  29.243062
  Angles:   90.000000  90.000000  60.000000

Effective grid spacing dv^(1/3) = 0.2207

                     log10-error:    total        iterations:
           time      wfs    density  energy       fermi  poisson
iter:   1  05:46:09  -3.59   +inf  -186.710932    2             
iter:   2  05:47:26  -2.34  -2.37  -205.873416    37            
iter:   3  05:48:42  -2.67  -1.64  -186.512957    36            
iter:   4  05:49:57  -3.71  -2.59  -186.287591    3             
iter:   5  05:51:14  -4.79  -3.28  -186.280761    2             
iter:   6  05:52:27  -5.35  -3.37  -186.274627    2             
iter:   7  05:53:42  -5.76  -3.71  -186.273634    2             
iter:   8  05:54:58  -6.11  -3.78  -186.274399    2             
iter:   9  05:56:15  -6.10  -3.61  -186.273827    2             
iter:  10  05:57:31  -6.17  -3.94  -186.272846    2             
iter:  11  05:58:45  -6.62  -3.94  -186.272816    2             
iter:  12  05:59:59  -6.96  -4.19  -186.272881    2             
iter:  13  06:01:14  -7.19  -4.25  -186.272772    2             
iter:  14  06:02:29  -6.90  -4.28  -186.272726    2             
iter:  15  06:03:42  -7.41  -4.22  -186.272989    2             

Converged after 15 iterations.

Dipole moment: (19.253565, 17.496165, -0.101026) |e|*Ang

Energy contributions relative to reference atoms: (reference = -9073466.092496)

Kinetic:       -174.967423
Potential:      +28.232900
External:        +0.000000
XC:             -34.116734
Entropy (-ST):   -2.042019
Local:           -4.400722
--------------------------
Free energy:   -187.293998
Extrapolated:  -186.272989

Fermi level: 0.88670

Showing only first 2 kpts
 Kpt  Band  Eigenvalues  Occupancy
  0   367      0.87344    0.13327
  0   368      0.88730    0.12463
  0   369      0.91099    0.10989
  0   370      0.93482    0.09549

  1   367      0.77686    0.18749
  1   368      0.80663    0.17253
  1   369      0.83602    0.15601
  1   370      0.85730    0.14324



Forces in eV/Ang:
  0 Pd    0.09684    0.50429   -0.41393
  1 Ag    0.10829    0.49240   -0.50320
  2 Pt   -0.24553    0.50945    0.85031
  3 Pd    0.10108    0.03423   -0.07026
  4 Pd    0.10879   -0.37258    0.21184
  5 Pt   -0.13064   -0.28804   -0.07396
  6 Pd   -0.16921   -0.39231   -0.04574
  7 Ag   -0.12493   -0.45371   -0.70444
  8 Pd   -0.24943   -0.30351    0.28162
  9 Ag    0.52894    0.20879    0.39359
 10 Ru    2.23385    1.25711    0.45494
 11 Ru   -1.87962    0.83463   -0.28964
 12 Pd    1.10941   -0.22030    0.03926
 13 Ru   -0.53302   -1.49205   -0.81455
 14 Ag   -0.41990    0.16364    0.30470
 15 Pd    0.16399   -0.57537    0.13817
 16 Ag   -0.15031   -0.36925    0.39863
 17 Pd   -0.37242    0.55212    0.06925
 18 Ag    0.01342    0.00542    0.01782
 19 Ag   -0.01096   -0.01184    0.01146
 20 Pt   -0.00691   -0.00534   -0.00210
 21 Ag   -0.00636    0.00346   -0.00332
 22 Ag    0.00169    0.00375   -0.00018
 23 Ag   -0.00107    0.00381   -0.00439
 24 Pd   -0.00281   -0.01035   -0.00498
 25 Pd    0.00603    0.00701    0.01993
 26 Ag   -0.00465   -0.00273   -0.00297
 27 Pt    0.02752    0.01039    0.00615
 28 Pd   -0.00102   -0.04803    0.00548
 29 Pd   -0.02421   -0.01344    0.00102
 30 Pd    0.00099   -0.02358   -0.02357
 31 Ru    0.00103   -0.00291   -0.00598
 32 Pt   -0.00187    0.05134   -0.00820
 33 Ag   -0.00920   -0.00719    0.00524
 34 Pt    0.08691   -0.00893    0.02703
 35 Ru   -0.07470    0.00999   -0.02917
 36 Pd    0.00768   -0.00887    0.01726
 37 Ru   -0.00047   -0.03113   -0.04928
 38 Pd   -0.01877   -0.00872    0.03136
 39 Pt    0.00619    0.00608    0.00397
 40 Pd   -0.00782   -0.00169   -0.00283
 41 Pd    0.00293    0.00553    0.01727
 42 Pt   -0.00424   -0.02213    0.01499
 43 Pd    0.00802    0.01512   -0.01430
 44 Ru   -0.03129    0.00051   -0.01792
 45 O    -0.02194    0.04201   -0.01778
 46 H     0.02026   -0.02426   -0.03543

Timing:                                      incl.     excl.
-------------------------------------------------------------------
Density initialized from wave functions:    32.395    32.394   0.2% |
 Symmetrize density:                         0.001     0.001   0.0% |
Forces:                                    178.596   178.596   1.0% |
Hamiltonian:                                29.488     0.102   0.0% |
 Atomic:                                     7.076     3.366   0.0% |
  XC Correction:                             3.710     3.710   0.0% |
 Calculate atomic Hamiltonians:             10.670    10.670   0.1% |
 Communicate:                                0.628     0.628   0.0% |
 Initialize Hamiltonian:                     0.001     0.001   0.0% |
 Poisson:                                    0.058     0.058   0.0% |
 XC 3D grid:                                10.953    10.953   0.1% |
LCAO initialization:                        64.700     3.474   0.0% |
 LCAO eigensolver:                           7.573     0.003   0.0% |
  Calculate projections:                     0.072     0.072   0.0% |
  DenseAtomicCorrection:                     0.063     0.063   0.0% |
  Distribute overlap matrix:                 0.650     0.650   0.0% |
  Orbital Layouts:                           0.599     0.599   0.0% |
  Potential matrix:                          6.130     6.130   0.0% |
  Sum over cells:                            0.056     0.056   0.0% |
 LCAO to grid:                              50.358    50.358   0.3% |
 Set positions (LCAO WFS):                   3.295     1.420   0.0% |
  Basic WFS set positions:                   0.004     0.004   0.0% |
  Basis functions set positions:             0.001     0.001   0.0% |
  P tci:                                     0.670     0.670   0.0% |
  ST tci:                                    0.856     0.856   0.0% |
  mktci:                                     0.343     0.343   0.0% |
PWDescriptor:                                0.039     0.039   0.0% |
Redistribute:                                0.057     0.057   0.0% |
SCF-cycle:                               18161.669   424.092   2.3% ||
 Davidson:                               16166.406  3630.009  19.6% |-------|
  Apply H:                                2794.330  2730.686  14.7% |-----|
   HMM T:                                   63.644    63.644   0.3% |
  Subspace diag:                          2299.472     0.076   0.0% |
   calc_h_matrix:                         1370.774   438.432   2.4% ||
    Apply H:                               932.342   909.179   4.9% |-|
     HMM T:                                 23.163    23.163   0.1% |
   diagonalize:                             90.908    90.908   0.5% |
   rotate_psi:                             837.714   837.714   4.5% |-|
  calc. matrices:                         5052.412  3242.559  17.5% |------|
   Apply H:                               1809.854  1767.728   9.5% |---|
    HMM T:                                  42.126    42.126   0.2% |
  diagonalize:                             749.732   749.732   4.0% |-|
  rotate_psi:                             1640.450  1640.450   8.8% |---|
 Density:                                  821.959     0.015   0.0% |
  Atomic density matrices:                   4.399     4.399   0.0% |
  Mix:                                     296.357   296.357   1.6% ||
  Multipole moments:                         0.387     0.387   0.0% |
  Pseudo density:                          520.802   520.785   2.8% ||
   Symmetrize density:                       0.017     0.017   0.0% |
 Hamiltonian:                              683.968     2.253   0.0% |
  Atomic:                                  166.019    84.126   0.5% |
   XC Correction:                           81.893    81.893   0.4% |
  Calculate atomic Hamiltonians:           240.668   240.668   1.3% ||
  Communicate:                              17.521    17.521   0.1% |
  Poisson:                                   1.318     1.318   0.0% |
  XC 3D grid:                              256.189   256.189   1.4% ||
 Orthonormalize:                            65.243     0.005   0.0% |
  calc_s_matrix:                             9.795     9.795   0.1% |
  inverse-cholesky:                          1.555     1.555   0.0% |
  projections:                              35.904    35.904   0.2% |
  rotate_psi_s:                             17.985    17.985   0.1% |
Set symmetry:                                0.001     0.001   0.0% |
Other:                                      80.249    80.249   0.4% |
-------------------------------------------------------------------
Total:                                             18547.194 100.0%

Date: Fri Mar  4 06:04:01 2022
