
  ___ ___ ___ _ _ _  
 |   |   |_  | | | | 
 | | | | | . | | | | 
 |__ |  _|___|_____|  1.5.1
 |___|_|             

User:   clausen@node043.cluster
Date:   Thu Mar  3 14:11:03 2022
Arch:   x86_64
Pid:    21435
Python: 3.6.12
gpaw:   /software/kemi/gpaw/1.5.1/gpaw
_gpaw:  /software/kemi/gpaw/1.5.1/bin/gpaw-python
ase:    /software/kemi/ase/3.17.0/ase (version 3.17.0)
numpy:  /opt/rh/rh-python36/root/usr/lib64/python3.6/site-packages/numpy (version 1.13.1)
scipy:  /opt/rh/rh-python36/root/usr/lib64/python3.6/site-packages/scipy (version 0.19.1)
units:  Angstrom and eV
cores:  16

Input parameters:
  kpts: [4 4 1]
  mode: {ecut: 400.0,
         gammacentered: False,
         name: pw}
  xc: RPBE

System changes: positions, numbers, cell, pbc, initial_charges, initial_magmoms 

Initialize ...

Pd-setup:
  name: Palladium
  id: 6da19bfba079f22767af9506641940b9
  Z: 46
  valence: 16
  core: 30
  charge: 0.0
  file: /software/kemi/gpaw-setups/0.9.20000/Pd.RPBE.gz
  cutoffs: 1.19(comp), 2.38(filt), 2.28(core), lmax=2
  valence states:
                energy  radius
    5s(0.00)    -3.225   1.228
    4p(6.00)   -51.131   1.360
    5p(0.00)    -0.373   1.360
    4d(10.00)    -3.964   1.228
    *s          23.987   1.228
    *d          23.247   1.228

  Using partial waves for Pd as LCAO basis

Ir-setup:
  name: Iridium
  id: 73b603359d1d5397a85ae3c2440f9033
  Z: 77
  valence: 15
  core: 62
  charge: 0.0
  file: /software/kemi/gpaw-setups/0.9.20000/Ir.RPBE.gz
  cutoffs: 1.26(comp), 2.40(filt), 2.36(core), lmax=2
  valence states:
                energy  radius
    6s(2.00)    -6.219   1.296
    5p(6.00)   -54.684   1.328
    6p(0.00)    -1.215   1.328
    5d(7.00)    -7.118   1.286
    *s          20.992   1.296
    *d          20.093   1.286

  Using partial waves for Ir as LCAO basis

Ru-setup:
  name: Ruthenium
  id: 76477906e28f51dc1b29884d53556fe9
  Z: 44
  valence: 16
  core: 28
  charge: 0.0
  file: /software/kemi/gpaw-setups/0.9.20000/Ru.RPBE.gz
  cutoffs: 1.23(comp), 2.16(filt), 1.30(core), lmax=2
  valence states:
                energy  radius
    4s(2.00)   -76.255   1.281
    5s(1.00)    -4.126   1.281
    4p(6.00)   -46.371   1.286
    5p(0.00)    -0.913   1.286
    4d(7.00)    -5.146   1.254
    *d          22.066   1.254

  Using partial waves for Ru as LCAO basis

Pt-setup:
  name: Platinum
  id: f04f522592575c47ad794f6b4a415b4b
  Z: 78
  valence: 16
  core: 62
  charge: 0.0
  file: /software/kemi/gpaw-setups/0.9.20000/Pt.RPBE.gz
  cutoffs: 1.29(comp), 2.26(filt), 2.26(core), lmax=2
  valence states:
                energy  radius
    6s(1.00)    -5.516   1.307
    5p(6.00)   -55.971   1.371
    6p(0.00)    -0.856   1.371
    5d(9.00)    -6.087   1.307
    *s          21.695   1.307
    *d          21.125   1.307

  Using partial waves for Pt as LCAO basis

Ag-setup:
  name: Silver
  id: c05e55bab2c3858b3f9398f6d75cb77c
  Z: 47
  valence: 17
  core: 30
  charge: 0.0
  file: /software/kemi/gpaw-setups/0.9.20000/Ag.RPBE.gz
  cutoffs: 1.25(comp), 2.35(filt), 2.19(core), lmax=2
  valence states:
                energy  radius
    5s(1.00)    -4.277   1.286
    4p(6.00)   -58.523   1.328
    5p(0.00)    -0.755   1.328
    4d(10.00)    -7.386   1.180
    *s          22.934   1.286
    *d          19.826   1.180

  Using partial waves for Ag as LCAO basis

O-setup:
  name: Oxygen
  id: 08071ca1eed670e7821b24b7eb4d558c
  Z: 8
  valence: 6
  core: 2
  charge: 0.0
  file: /software/kemi/gpaw-setups/0.9.20000/O.RPBE.gz
  cutoffs: 0.67(comp), 1.17(filt), 0.83(core), lmax=2
  valence states:
                energy  radius
    2s(2.00)   -24.041   0.688
    2p(4.00)    -8.984   0.598
    *s           3.170   0.688
    *p          18.228   0.598
    *d           0.000   0.619

  Using partial waves for O as LCAO basis

H-setup:
  name: Hydrogen
  id: ea3f9156a1dc40d47a60fdce8f8bd75d
  Z: 1
  valence: 1
  core: 0
  charge: 0.0
  file: /software/kemi/gpaw-setups/0.9.20000/H.RPBE.gz
  cutoffs: 0.48(comp), 0.85(filt), 0.53(core), lmax=2
  valence states:
                energy  radius
    1s(1.00)    -6.572   0.476
    *s          20.639   0.476
    *p           0.000   0.476

  Using partial waves for H as LCAO basis

Reference energy: -12877860.274276

Spin-paired calculation

Occupation numbers:
  Fermi-Dirac: width=0.1000 eV

Convergence criteria:
  Maximum total energy change: 0.0005 eV / electron
  Maximum integral of absolute density change: 0.0001 electrons
  Maximum integral of absolute eigenstate change: 4e-08 eV^2
  Maximum number of iterations: 333

Symmetries present (total): 1

  ( 1  0  0)
  ( 0  1  0)
  ( 0  0  1)

16 k-points: 4 x 4 x 1 Monkhorst-Pack grid
8 k-points in the irreducible part of the Brillouin zone
       k-points in crystal coordinates                weights
   0:     0.12500000   -0.37500000    0.00000000          2/16
   1:     0.12500000   -0.12500000    0.00000000          2/16
   2:     0.12500000    0.12500000    0.00000000          2/16
   3:     0.12500000    0.37500000    0.00000000          2/16
   4:     0.37500000   -0.37500000    0.00000000          2/16
   5:     0.37500000   -0.12500000    0.00000000          2/16
   6:     0.37500000    0.12500000    0.00000000          2/16
   7:     0.37500000    0.37500000    0.00000000          2/16

Wave functions: Plane wave expansion
  Cutoff energy: 400.000 eV
  Number of coefficients (min, max): 32894, 32940
  Pulay-stress correction: 0.000000 eV/Ang^3 (de/decut=0.000000)
  Using FFTW library
  ScaLapack parameters: grid=1x1, blocksize=None
  Wavefunction extrapolation:
    Improved wavefunction reuse through dual PAW basis 

Eigensolver
   Davidson(niter=2, smin=None, normalize=True) 

Densities:
  Coarse grid: 35*35*135 grid
  Fine grid: 70*70*270 grid
  Total Charge: 0.000000 

Density mixing:
  Method: separate
  Backend: pulay
  Linear mixing parameter: 0.05
  Mixing with 5 old densities
  Damping of long wave oscillations: 50 

Hamiltonian:
  XC and Coulomb potentials evaluated on a 70*70*270 grid
  Using the RPBE Exchange-Correlation functional
 

XC parameters: RPBE with 2 nearest neighbor stencil

Memory estimate:
  Process memory now: 151.31 MiB
  Calculator: 554.76 MiB
    Density: 54.46 MiB
      Arrays: 16.41 MiB
      Localized functions: 31.69 MiB
      Mixer: 6.36 MiB
    Hamiltonian: 11.75 MiB
      Arrays: 10.73 MiB
      XC: 0.00 MiB
      Poisson: 0.00 MiB
      vbar: 1.03 MiB
    Wavefunctions: 488.54 MiB
      Arrays psit_nG: 220.65 MiB
      Eigensolver: 252.59 MiB
      Projections: 2.77 MiB
      Projectors: 5.91 MiB
      PW-descriptor: 6.62 MiB

Total number of cores used: 16
Parallelization over k-points: 8
Domain decomposition: 1 x 1 x 2

Number of atoms: 47
Number of atomic orbitals: 551
Number of bands in calculation: 439
Bands to converge: occupied states only
Number of valence electrons: 724

... initialized

Initializing position-dependent things.

Density initialized from atomic densities
Creating initial wave functions:
  439 bands from LCAO basis set

                                             
                                             
                                             
                                             
                    H                        
                  O                          
                                             
                                             
                  Ag     Ir    Ir            
            Pd      Pd                       
                   Ru     PIr    Ir          
        Ir    Pt    PAg                      
                           Pd                
        Ir     Pd    IAg    Ir     Pt        
                                             
                Ag     Ru     Pd             
           Pt     Ag    PPd    Ir            
                                             
            Pt     Pt    PPt    Ru           
       Ag     Ag     Ag                      
              Ru    Ir     Pt                
         Pd    Ir     Ru                     
                                             
                                             
                                             
                                             
                                             

Positions:
   0 Pd     0.000000    1.624086   10.000000    ( 0.0000,  0.0000,  0.0000)
   1 Ir     2.812999    1.624086   10.000000    ( 0.0000,  0.0000,  0.0000)
   2 Ru     5.625998    1.624086   10.000000    ( 0.0000,  0.0000,  0.0000)
   3 Ru     1.406500    4.060215   10.000000    ( 0.0000,  0.0000,  0.0000)
   4 Ir     4.219499    4.060215   10.000000    ( 0.0000,  0.0000,  0.0000)
   5 Pt     7.032498    4.060215   10.000000    ( 0.0000,  0.0000,  0.0000)
   6 Pd     2.812999    6.496343   10.000000    ( 0.0000,  0.0000,  0.0000)
   7 Pd     5.625998    6.496343   10.000000    ( 0.0000,  0.0000,  0.0000)
   8 Ru     8.438997    6.496343   10.000000    ( 0.0000,  0.0000,  0.0000)
   9 Ag     0.000000    0.000000   12.296804    ( 0.0000,  0.0000,  0.0000)
  10 Ag     2.812999    0.000000   12.296804    ( 0.0000,  0.0000,  0.0000)
  11 Ag     5.625998    0.000000   12.296804    ( 0.0000,  0.0000,  0.0000)
  12 Pt     1.406500    2.436129   12.296804    ( 0.0000,  0.0000,  0.0000)
  13 Pt     4.219499    2.436129   12.296804    ( 0.0000,  0.0000,  0.0000)
  14 Pt     7.032498    2.436129   12.296804    ( 0.0000,  0.0000,  0.0000)
  15 Ru     2.812999    4.872257   12.296804    ( 0.0000,  0.0000,  0.0000)
  16 Pt     5.625998    4.872257   12.296804    ( 0.0000,  0.0000,  0.0000)
  17 Ir     8.438997    4.872257   12.296804    ( 0.0000,  0.0000,  0.0000)
  18 Pt     1.331112    0.739375   14.657283    ( 0.0000,  0.0000,  0.0000)
  19 Ag     4.181622    0.793852   14.645499    ( 0.0000,  0.0000,  0.0000)
  20 Pd     7.001587    0.862206   14.620346    ( 0.0000,  0.0000,  0.0000)
  21 Ag     2.800841    3.198617   14.645984    ( 0.0000,  0.0000,  0.0000)
  22 Ru     5.661352    3.374873   14.464570    ( 0.0000,  0.0000,  0.0000)
  23 Pd     8.454364    3.209063   14.568969    ( 0.0000,  0.0000,  0.0000)
  24 Ir     4.203312    5.613553   14.568997    ( 0.0000,  0.0000,  0.0000)
  25 Ir     7.031881    5.578044   14.561300    ( 0.0000,  0.0000,  0.0000)
  26 Pt     9.857688    5.665883   14.596939    ( 0.0000,  0.0000,  0.0000)
  27 Ir    -0.077764    1.506761   16.938800    ( 0.0000,  0.0000,  0.0000)
  28 Pd     2.746751    1.593087   16.991368    ( 0.0000,  0.0000,  0.0000)
  29 Ag     5.532334    1.594992   16.918159    ( 0.0000,  0.0000,  0.0000)
  30 Pd     1.401555    4.031321   16.973309    ( 0.0000,  0.0000,  0.0000)
  31 Pd     4.186062    4.107308   16.892321    ( 0.0000,  0.0000,  0.0000)
  32 Pd     7.007491    3.969527   16.736476    ( 0.0000,  0.0000,  0.0000)
  33 Ru     2.845276    6.541012   16.753610    ( 0.0000,  0.0000,  0.0000)
  34 Pd     5.662228    6.450069   16.794393    ( 0.0000,  0.0000,  0.0000)
  35 Ir     8.552515    6.378355   16.920371    ( 0.0000,  0.0000,  0.0000)
  36 Ir     0.061963   -0.029589   18.981657    ( 0.0000,  0.0000,  0.0000)
  37 Pt     2.802470   -0.097062   19.141410    ( 0.0000,  0.0000,  0.0000)
  38 Ag     5.661265    0.013033   19.406409    ( 0.0000,  0.0000,  0.0000)
  39 Pd     1.350042    2.376862   19.278970    ( 0.0000,  0.0000,  0.0000)
  40 Pd     4.315258    2.518491   19.256067    ( 0.0000,  0.0000,  0.0000)
  41 Ir     7.173708    2.513849   19.018418    ( 0.0000,  0.0000,  0.0000)
  42 Ag     2.809713    4.893314   19.379442    ( 0.0000,  0.0000,  0.0000)
  43 Ir     5.700233    4.913916   19.039342    ( 0.0000,  0.0000,  0.0000)
  44 Ir     8.278779    4.849064   19.000358    ( 0.0000,  0.0000,  0.0000)
  45 O      2.809713    4.893314   21.406409    ( 0.0000,  0.0000,  0.0000)
  46 H      3.459713    5.543314   21.806409    ( 0.0000,  0.0000,  0.0000)

Unit cell:
           periodic     x           y           z      points  spacing
  1. axis:    yes    8.465341    0.000000    0.000000    35     0.2095
  2. axis:    yes    4.232670    7.331200    0.000000    35     0.2095
  3. axis:    no     0.000000    0.000000   29.187217   135     0.2162

  Lengths:   8.465341   8.465341  29.187217
  Angles:   90.000000  90.000000  60.000000

Effective grid spacing dv^(1/3) = 0.2221

                     log10-error:    total        iterations:
           time      wfs    density  energy       fermi  poisson
iter:   1  14:13:24  +0.34   +inf  -325.314604    2             
iter:   2  14:14:24  -0.56  -1.16  -405.345285    35            
iter:   3  14:15:25  -0.64  -1.08  -352.750464    3             
iter:   4  14:16:26  -1.30  -1.14  -271.173390    34            
iter:   5  14:17:27  -1.72  -1.35  -250.359528    37            
iter:   6  14:18:28  -1.90  -1.44  -246.317182    33            
iter:   7  14:19:29  -2.18  -1.49  -243.305081    3             
iter:   8  14:20:30  -2.28  -1.55  -240.061727    3             
iter:   9  14:21:32  -2.00  -1.69  -242.296083    3             
iter:  10  14:22:33  -2.71  -1.70  -238.662738    3             
iter:  11  14:23:34  -2.82  -1.91  -238.487767    3             
iter:  12  14:24:35  -2.82  -1.99  -238.408368    3             
iter:  13  14:25:37  -3.08  -2.14  -238.533353    3             
iter:  14  14:26:38  -3.56  -2.17  -238.381823    3             
iter:  15  14:27:39  -3.15  -2.25  -238.112058    3             
iter:  16  14:28:40  -3.46  -2.48  -238.290601    3             
iter:  17  14:29:40  -3.44  -2.38  -238.074612    3             
iter:  18  14:30:42  -4.03  -2.67  -238.058339    3             
iter:  19  14:31:43  -4.37  -2.74  -238.025612    3             
iter:  20  14:32:44  -4.46  -2.91  -238.071900    2             
iter:  21  14:33:45  -4.36  -2.69  -238.014453    3             
iter:  22  14:34:47  -4.94  -3.04  -238.016723    2             
iter:  23  14:35:48  -4.71  -3.07  -238.016412    2             
iter:  24  14:36:49  -4.96  -3.07  -238.020567    2             
iter:  25  14:37:50  -4.79  -3.09  -238.017305    2             
iter:  26  14:38:50  -5.33  -3.11  -238.013770    2             
iter:  27  14:39:51  -5.24  -3.25  -238.012308    2             
iter:  28  14:40:52  -5.65  -3.37  -238.011814    2             
iter:  29  14:41:54  -6.16  -3.55  -238.011493    2             
iter:  30  14:42:55  -5.84  -3.61  -238.011867    2             
iter:  31  14:43:56  -6.39  -3.70  -238.011035    2             
iter:  32  14:44:57  -6.32  -3.75  -238.011734    2             
iter:  33  14:45:58  -6.85  -3.79  -238.011805    2             
iter:  34  14:46:59  -6.45  -3.76  -238.011227    2             
iter:  35  14:48:00  -6.97  -3.86  -238.011239    2             
iter:  36  14:49:00  -7.00  -4.00  -238.011420    2             
iter:  37  14:50:01  -7.30  -4.06  -238.011291    2             
iter:  38  14:51:01  -7.25  -4.08  -238.011623    2             
iter:  39  14:52:01  -7.04  -4.14  -238.011846    2             
iter:  40  14:53:03  -7.24  -3.93  -238.011410    2             
iter:  41  14:54:04  -7.30  -4.19  -238.011586    2             
iter:  42  14:55:06  -7.63  -4.29  -238.011646    2             

Converged after 42 iterations.

Dipole moment: (22.588576, 16.235852, -0.294706) |e|*Ang

Energy contributions relative to reference atoms: (reference = -12877860.274276)

Kinetic:       -228.697366
Potential:     +104.072932
External:        +0.000000
XC:            -105.439180
Entropy (-ST):   -2.302920
Local:           -6.796572
--------------------------
Free energy:   -239.163106
Extrapolated:  -238.011646

Fermi level: 0.92279

Showing only first 2 kpts
 Kpt  Band  Eigenvalues  Occupancy
  0   360      0.91637    0.12901
  0   361      0.94145    0.11337
  0   362      0.96053    0.10169
  0   363      0.98576    0.08690

  1   360      0.83576    0.17620
  1   361      0.85388    0.16644
  1   362      0.88409    0.14889
  1   363      0.90483    0.13620



Forces in eV/Ang:
  0 Pd   -0.12094    0.32931   -0.34537
  1 Ir    0.95157    0.68323    0.59586
  2 Ru   -1.08265    0.29041    0.69042
  3 Ru    0.41943    0.28628    1.61756
  4 Ir   -0.56066   -0.79342    1.17418
  5 Pt    0.15188    0.16709    0.05042
  6 Pd   -0.49524   -0.42431   -0.24424
  7 Pd    0.38832   -0.26500   -0.58126
  8 Ru    0.33300   -0.15558    0.55042
  9 Ag   -0.24352   -0.09771    0.05657
 10 Ag   -0.02579   -0.10405    0.05399
 11 Ag    0.08162   -0.16703   -0.13697
 12 Pt    0.10191    0.76760   -0.54187
 13 Pt    0.11734    0.56634   -0.72298
 14 Pt   -0.11155    0.21060   -0.22426
 15 Ru   -0.39309   -0.73515   -0.96516
 16 Pt   -0.41485    0.17443   -0.13165
 17 Ir    0.91643   -0.07853   -1.04868
 18 Pt    0.00122   -0.00520    0.00059
 19 Ag   -0.01112   -0.04720    0.02090
 20 Pd   -0.01492    0.00299    0.00396
 21 Ag   -0.00699   -0.00897   -0.01657
 22 Ru    0.01457   -0.01454    0.02575
 23 Pd   -0.06147   -0.03830    0.08322
 24 Ir    0.01264   -0.03443    0.02246
 25 Ir   -0.02305   -0.03395    0.03225
 26 Pt    0.00530   -0.01330    0.00318
 27 Ir    0.06234   -0.00154    0.02650
 28 Pd    0.01953   -0.02567   -0.04883
 29 Ag   -0.04042   -0.00310    0.01293
 30 Pd    0.06324   -0.01574    0.05039
 31 Pd   -0.03044   -0.00906    0.01589
 32 Pd    0.02443    0.01651    0.02348
 33 Ru    0.01755   -0.13160    0.17428
 34 Pd    0.02204    0.00489   -0.04015
 35 Ir    0.01495   -0.02935    0.04717
 36 Ir   -0.01852    0.04298   -0.22668
 37 Pt    0.06727   -0.02739   -0.02725
 38 Ag   -0.01421    0.03841    0.02446
 39 Pd   -0.09488   -0.14713   -0.05154
 40 Pd    0.08184   -0.06569   -0.02144
 41 Ir   -0.01637   -0.04938    0.02089
 42 Ag   -0.01066    0.11925   -0.73230
 43 Ir    0.19984   -0.04777   -0.03992
 44 Ir   -0.21290   -0.04249   -0.08768
 45 O     0.26217    0.26169    1.14791
 46 H    -0.39177   -0.43870   -0.37517

System changes: positions 

Initializing position-dependent things.

Density initialized from wave functions
                                             
                                             
                                             
                                             
                   H                         
                  O                          
                                             
                                             
                  Ag     Ir    Ir            
            Pd      Pd                       
                   Ru     PIr    Ir          
        Ir    Pt    PAg    Pd                
                                             
        Ir     Pd    IAg    Ir     Pt        
                                             
                Ag     Ru     Pd             
           Pt     Ag    PPd    Ir            
                                             
            Pt     Pt    PPt    Ru           
       Ag     Ag     Ag                      
              Ru    Ir     Pt                
         Pd    Ir     Ru                     
                                             
                                             
                                             
                                             
                                             

Positions:
   0 Pd     0.000000    1.624086   10.000000    ( 0.0000,  0.0000,  0.0000)
   1 Ir     2.812999    1.624086   10.000000    ( 0.0000,  0.0000,  0.0000)
   2 Ru     5.625998    1.624086   10.000000    ( 0.0000,  0.0000,  0.0000)
   3 Ru     1.406500    4.060215   10.000000    ( 0.0000,  0.0000,  0.0000)
   4 Ir     4.219499    4.060215   10.000000    ( 0.0000,  0.0000,  0.0000)
   5 Pt     7.032498    4.060215   10.000000    ( 0.0000,  0.0000,  0.0000)
   6 Pd     2.812999    6.496343   10.000000    ( 0.0000,  0.0000,  0.0000)
   7 Pd     5.625998    6.496343   10.000000    ( 0.0000,  0.0000,  0.0000)
   8 Ru     8.438997    6.496343   10.000000    ( 0.0000,  0.0000,  0.0000)
   9 Ag     0.000000    0.000000   12.296804    ( 0.0000,  0.0000,  0.0000)
  10 Ag     2.812999    0.000000   12.296804    ( 0.0000,  0.0000,  0.0000)
  11 Ag     5.625998    0.000000   12.296804    ( 0.0000,  0.0000,  0.0000)
  12 Pt     1.406500    2.436129   12.296804    ( 0.0000,  0.0000,  0.0000)
  13 Pt     4.219499    2.436129   12.296804    ( 0.0000,  0.0000,  0.0000)
  14 Pt     7.032498    2.436129   12.296804    ( 0.0000,  0.0000,  0.0000)
  15 Ru     2.812999    4.872257   12.296804    ( 0.0000,  0.0000,  0.0000)
  16 Pt     5.625998    4.872257   12.296804    ( 0.0000,  0.0000,  0.0000)
  17 Ir     8.438997    4.872257   12.296804    ( 0.0000,  0.0000,  0.0000)
  18 Pt     1.331235    0.738855   14.657342    ( 0.0000,  0.0000,  0.0000)
  19 Ag     4.180511    0.789132   14.647589    ( 0.0000,  0.0000,  0.0000)
  20 Pd     7.000095    0.862505   14.620742    ( 0.0000,  0.0000,  0.0000)
  21 Ag     2.800142    3.197720   14.644327    ( 0.0000,  0.0000,  0.0000)
  22 Ru     5.662810    3.373420   14.467145    ( 0.0000,  0.0000,  0.0000)
  23 Pd     8.448217    3.205233   14.577291    ( 0.0000,  0.0000,  0.0000)
  24 Ir     4.204576    5.610110   14.571243    ( 0.0000,  0.0000,  0.0000)
  25 Ir     7.029576    5.574650   14.564525    ( 0.0000,  0.0000,  0.0000)
  26 Pt     9.858218    5.664553   14.597258    ( 0.0000,  0.0000,  0.0000)
  27 Ir    -0.071530    1.506607   16.941450    ( 0.0000,  0.0000,  0.0000)
  28 Pd     2.748703    1.590520   16.986484    ( 0.0000,  0.0000,  0.0000)
  29 Ag     5.528292    1.594681   16.919452    ( 0.0000,  0.0000,  0.0000)
  30 Pd     1.407879    4.029746   16.978349    ( 0.0000,  0.0000,  0.0000)
  31 Pd     4.183018    4.106402   16.893909    ( 0.0000,  0.0000,  0.0000)
  32 Pd     7.009933    3.971178   16.738825    ( 0.0000,  0.0000,  0.0000)
  33 Ru     2.847031    6.527853   16.771038    ( 0.0000,  0.0000,  0.0000)
  34 Pd     5.664431    6.450558   16.790379    ( 0.0000,  0.0000,  0.0000)
  35 Ir     8.554010    6.375421   16.925088    ( 0.0000,  0.0000,  0.0000)
  36 Ir     0.060111   -0.025291   18.958989    ( 0.0000,  0.0000,  0.0000)
  37 Pt     2.809197   -0.099800   19.138685    ( 0.0000,  0.0000,  0.0000)
  38 Ag     5.659844    0.016874   19.408856    ( 0.0000,  0.0000,  0.0000)
  39 Pd     1.340554    2.362149   19.273816    ( 0.0000,  0.0000,  0.0000)
  40 Pd     4.323442    2.511922   19.253922    ( 0.0000,  0.0000,  0.0000)
  41 Ir     7.172071    2.508911   19.020508    ( 0.0000,  0.0000,  0.0000)
  42 Ag     2.808647    4.905239   19.306212    ( 0.0000,  0.0000,  0.0000)
  43 Ir     5.720217    4.909139   19.035350    ( 0.0000,  0.0000,  0.0000)
  44 Ir     8.257490    4.844815   18.991590    ( 0.0000,  0.0000,  0.0000)
  45 O      2.835929    4.919483   21.521201    ( 0.0000,  0.0000,  0.0000)
  46 H      3.420536    5.499444   21.768893    ( 0.0000,  0.0000,  0.0000)

Unit cell:
           periodic     x           y           z      points  spacing
  1. axis:    yes    8.465341    0.000000    0.000000    35     0.2095
  2. axis:    yes    4.232670    7.331200    0.000000    35     0.2095
  3. axis:    no     0.000000    0.000000   29.187217   135     0.2162

  Lengths:   8.465341   8.465341  29.187217
  Angles:   90.000000  90.000000  60.000000

Effective grid spacing dv^(1/3) = 0.2221

                     log10-error:    total        iterations:
           time      wfs    density  energy       fermi  poisson
iter:   1  14:56:34  -2.19   +inf  -247.116518    4             
iter:   2  14:57:48  -0.63  -1.63  -489.062598    38            
iter:   3  14:58:51  -1.02  -1.03  -256.484054    34            
iter:   4  14:59:40  -1.91  -1.60  -238.869331    35            
iter:   5  15:00:32  -3.11  -2.20  -238.122269    3             
iter:   6  15:01:34  -3.14  -2.37  -237.801902    3             
iter:   7  15:02:36  -3.65  -2.42  -237.701948    3             
iter:   8  15:03:38  -3.82  -2.60  -237.684512    2             
iter:   9  15:04:40  -4.55  -2.49  -237.557999    2             
iter:  10  15:05:43  -4.56  -2.94  -237.578000    3             
iter:  11  15:06:44  -3.94  -2.75  -237.533063    3             
iter:  12  15:07:47  -4.49  -2.98  -237.547741    3             
iter:  13  15:08:49  -4.81  -2.82  -237.520912    3             
iter:  14  15:09:51  -5.39  -3.19  -237.516256    2             
iter:  15  15:10:53  -5.47  -3.40  -237.516728    2             
iter:  16  15:11:55  -5.15  -3.45  -237.518602    2             
iter:  17  15:12:58  -5.77  -3.44  -237.516630    2             
iter:  18  15:14:01  -5.88  -3.48  -237.515797    2             
iter:  19  15:15:03  -6.17  -3.51  -237.516756    2             
iter:  20  15:16:04  -6.68  -3.70  -237.515942    2             
iter:  21  15:17:07  -6.58  -3.86  -237.516083    2             
iter:  22  15:18:09  -6.27  -3.97  -237.516220    2             
iter:  23  15:19:11  -6.49  -3.89  -237.515974    2             
iter:  24  15:20:18  -6.39  -3.80  -237.515619    2             
iter:  25  15:21:20  -6.79  -3.75  -237.516474    2             
iter:  26  15:22:22  -6.99  -4.06  -237.515782    2             
iter:  27  15:23:24  -7.21  -4.17  -237.515857    2             
iter:  28  15:24:26  -6.94  -4.14  -237.515940    2             
iter:  29  15:25:29  -6.72  -4.22  -237.515825    2             
iter:  30  15:26:30  -6.80  -3.98  -237.515713    2             
iter:  31  15:27:33  -7.18  -4.08  -237.516239    2             
iter:  32  15:28:34  -7.81  -4.24  -237.515860    2             

Converged after 32 iterations.

Dipole moment: (22.424867, 15.594189, -0.462931) |e|*Ang

Energy contributions relative to reference atoms: (reference = -12877860.274276)

Kinetic:       -215.883543
Potential:      +94.194268
External:        +0.000000
XC:            -107.713311
Entropy (-ST):   -2.304049
Local:           -6.961249
--------------------------
Free energy:   -238.667884
Extrapolated:  -237.515860

Fermi level: 0.84724

Showing only first 2 kpts
 Kpt  Band  Eigenvalues  Occupancy
  0   360      0.84100    0.12890
  0   361      0.86457    0.11420
  0   362      0.88960    0.09891
  0   363      0.91021    0.08689

  1   360      0.76109    0.17574
  1   361      0.77671    0.16734
  1   362      0.81165    0.14701
  1   363      0.82998    0.13576



Forces in eV/Ang:
  0 Pd   -0.12015    0.32632   -0.34656
  1 Ir    0.94947    0.68166    0.59734
  2 Ru   -1.08307    0.28771    0.69469
  3 Ru    0.42102    0.28662    1.62031
  4 Ir   -0.56161   -0.79193    1.17666
  5 Pt    0.15478    0.16787    0.05810
  6 Pd   -0.49741   -0.42352   -0.24119
  7 Pd    0.38617   -0.26039   -0.57744
  8 Ru    0.33605   -0.15378    0.55548
  9 Ag   -0.24972   -0.10243    0.06794
 10 Ag   -0.02302   -0.10716    0.06348
 11 Ag    0.08198   -0.16758   -0.12959
 12 Pt    0.08753    0.77360   -0.52511
 13 Pt    0.11669    0.55382   -0.71506
 14 Pt   -0.10496    0.20636   -0.21499
 15 Ru   -0.40015   -0.72922   -0.96646
 16 Pt   -0.41537    0.17151   -0.11839
 17 Ir    0.92046   -0.08499   -1.04445
 18 Pt   -0.02062    0.00189   -0.01991
 19 Ag    0.00055   -0.03342    0.00475
 20 Pd   -0.00614   -0.05676    0.06531
 21 Ag   -0.01349   -0.01495   -0.00893
 22 Ru   -0.01031   -0.02563    0.02300
 23 Pd   -0.00074   -0.02151    0.03338
 24 Ir   -0.01209   -0.00944    0.00448
 25 Ir    0.01137   -0.01575   -0.01217
 26 Pt   -0.00229   -0.02857    0.01803
 27 Ir    0.00656    0.07497   -0.13735
 28 Pd    0.02483   -0.01283   -0.02373
 29 Ag    0.02909   -0.02410   -0.02213
 30 Pd   -0.04063   -0.06786   -0.05561
 31 Pd    0.07524   -0.06086   -0.05413
 32 Pd   -0.02748   -0.05494   -0.04203
 33 Ru   -0.03880    0.00612   -0.00458
 34 Pd    0.03521   -0.02971   -0.02882
 35 Ir    0.04414    0.00214   -0.00312
 36 Ir   -0.01007   -0.07253    0.05408
 37 Pt    0.01438    0.03987   -0.03362
 38 Ag    0.00349   -0.00816    0.06328
 39 Pd    0.00897   -0.06088   -0.04258
 40 Pd    0.00826    0.00458    0.01003
 41 Ir   -0.05705   -0.07411   -0.02542
 42 Ag   -0.02532    0.02005    0.87483
 43 Ir   -0.15143   -0.05689   -0.03358
 44 Ir    0.18699   -0.02443    0.00765
 45 O    -6.06258   -5.97858   -3.09558
 46 H     5.98038    5.89183    2.54686

System changes: positions 

Initializing position-dependent things.

Density initialized from wave functions
                                             
                                             
                                             
                                             
                    H                        
                  O                          
                                             
                                             
                  Ag     Ir    Ir            
            Pd      Pd                       
                   Ru     PIr    Ir          
        Ir    Pt    PAg                      
                           Pd                
        Ir     Pd    IAg    Ir     Pt        
                                             
                Ag     Ru     Pd             
           Pt     Ag    PPd    Ir            
                                             
            Pt     Pt    PPt    Ru           
       Ag     Ag     Ag                      
              Ru    Ir     Pt                
         Pd    Ir     Ru                     
                                             
                                             
                                             
                                             
                                             

Positions:
   0 Pd     0.000000    1.624086   10.000000    ( 0.0000,  0.0000,  0.0000)
   1 Ir     2.812999    1.624086   10.000000    ( 0.0000,  0.0000,  0.0000)
   2 Ru     5.625998    1.624086   10.000000    ( 0.0000,  0.0000,  0.0000)
   3 Ru     1.406500    4.060215   10.000000    ( 0.0000,  0.0000,  0.0000)
   4 Ir     4.219499    4.060215   10.000000    ( 0.0000,  0.0000,  0.0000)
   5 Pt     7.032498    4.060215   10.000000    ( 0.0000,  0.0000,  0.0000)
   6 Pd     2.812999    6.496343   10.000000    ( 0.0000,  0.0000,  0.0000)
   7 Pd     5.625998    6.496343   10.000000    ( 0.0000,  0.0000,  0.0000)
   8 Ru     8.438997    6.496343   10.000000    ( 0.0000,  0.0000,  0.0000)
   9 Ag     0.000000    0.000000   12.296804    ( 0.0000,  0.0000,  0.0000)
  10 Ag     2.812999    0.000000   12.296804    ( 0.0000,  0.0000,  0.0000)
  11 Ag     5.625998    0.000000   12.296804    ( 0.0000,  0.0000,  0.0000)
  12 Pt     1.406500    2.436129   12.296804    ( 0.0000,  0.0000,  0.0000)
  13 Pt     4.219499    2.436129   12.296804    ( 0.0000,  0.0000,  0.0000)
  14 Pt     7.032498    2.436129   12.296804    ( 0.0000,  0.0000,  0.0000)
  15 Ru     2.812999    4.872257   12.296804    ( 0.0000,  0.0000,  0.0000)
  16 Pt     5.625998    4.872257   12.296804    ( 0.0000,  0.0000,  0.0000)
  17 Ir     8.438997    4.872257   12.296804    ( 0.0000,  0.0000,  0.0000)
  18 Pt     1.331135    0.739278   14.657294    ( 0.0000,  0.0000,  0.0000)
  19 Ag     4.181416    0.792976   14.645887    ( 0.0000,  0.0000,  0.0000)
  20 Pd     7.001310    0.862262   14.620420    ( 0.0000,  0.0000,  0.0000)
  21 Ag     2.800711    3.198451   14.645676    ( 0.0000,  0.0000,  0.0000)
  22 Ru     5.661623    3.374603   14.465048    ( 0.0000,  0.0000,  0.0000)
  23 Pd     8.453222    3.208352   14.570514    ( 0.0000,  0.0000,  0.0000)
  24 Ir     4.203547    5.612914   14.569414    ( 0.0000,  0.0000,  0.0000)
  25 Ir     7.031453    5.577414   14.561898    ( 0.0000,  0.0000,  0.0000)
  26 Pt     9.857787    5.665636   14.596998    ( 0.0000,  0.0000,  0.0000)
  27 Ir    -0.076606    1.506733   16.939292    ( 0.0000,  0.0000,  0.0000)
  28 Pd     2.747113    1.592611   16.990461    ( 0.0000,  0.0000,  0.0000)
  29 Ag     5.531584    1.594934   16.918399    ( 0.0000,  0.0000,  0.0000)
  30 Pd     1.402729    4.031028   16.974245    ( 0.0000,  0.0000,  0.0000)
  31 Pd     4.185497    4.107140   16.892616    ( 0.0000,  0.0000,  0.0000)
  32 Pd     7.007944    3.969833   16.736912    ( 0.0000,  0.0000,  0.0000)
  33 Ru     2.845602    6.538569   16.756846    ( 0.0000,  0.0000,  0.0000)
  34 Pd     5.662637    6.450160   16.793648    ( 0.0000,  0.0000,  0.0000)
  35 Ir     8.552792    6.377811   16.921247    ( 0.0000,  0.0000,  0.0000)
  36 Ir     0.061619   -0.028791   18.977449    ( 0.0000,  0.0000,  0.0000)
  37 Pt     2.803719   -0.097570   19.140904    ( 0.0000,  0.0000,  0.0000)
  38 Ag     5.661001    0.013746   19.406864    ( 0.0000,  0.0000,  0.0000)
  39 Pd     1.348281    2.374130   19.278013    ( 0.0000,  0.0000,  0.0000)
  40 Pd     4.316777    2.517271   19.255669    ( 0.0000,  0.0000,  0.0000)
  41 Ir     7.173404    2.512932   19.018806    ( 0.0000,  0.0000,  0.0000)
  42 Ag     2.809515    4.895528   19.365847    ( 0.0000,  0.0000,  0.0000)
  43 Ir     5.703943    4.913029   19.038601    ( 0.0000,  0.0000,  0.0000)
  44 Ir     8.274827    4.848275   18.998730    ( 0.0000,  0.0000,  0.0000)
  45 O      2.814580    4.898173   21.427720    ( 0.0000,  0.0000,  0.0000)
  46 H      3.452440    5.535170   21.799445    ( 0.0000,  0.0000,  0.0000)

Unit cell:
           periodic     x           y           z      points  spacing
  1. axis:    yes    8.465341    0.000000    0.000000    35     0.2095
  2. axis:    yes    4.232670    7.331200    0.000000    35     0.2095
  3. axis:    no     0.000000    0.000000   29.187217   135     0.2162

  Lengths:   8.465341   8.465341  29.187217
  Angles:   90.000000  90.000000  60.000000

Effective grid spacing dv^(1/3) = 0.2221

                     log10-error:    total        iterations:
           time      wfs    density  energy       fermi  poisson
iter:   1  15:30:05  -2.20   +inf  -244.620379    37            
iter:   2  15:31:07  -1.11  -1.77  -410.801910    37            
iter:   3  15:32:09  -1.56  -1.13  -243.158057    38            
iter:   4  15:33:11  -2.45  -1.83  -238.451610    4             
iter:   5  15:34:13  -3.49  -2.52  -238.385097    2             
iter:   6  15:35:16  -3.83  -2.53  -238.187271    3             
iter:   7  15:36:18  -3.86  -2.72  -238.100737    3             
iter:   8  15:37:20  -4.20  -2.87  -238.070301    3             
iter:   9  15:38:22  -4.57  -2.98  -238.080145    3             
iter:  10  15:39:24  -4.01  -2.93  -238.371706    3             
iter:  11  15:40:32  -4.05  -2.38  -238.051271    3             
iter:  12  15:41:38  -4.75  -3.12  -238.048293    3             
iter:  13  15:42:45  -5.31  -3.22  -238.042271    3             
iter:  14  15:43:46  -5.82  -3.21  -238.040263    2             
iter:  15  15:44:40  -5.89  -3.29  -238.039905    2             
iter:  16  15:45:40  -5.42  -3.31  -238.038376    2             
iter:  17  15:46:40  -5.08  -3.50  -238.050535    2             
iter:  18  15:47:42  -5.84  -3.14  -238.038810    2             
iter:  19  15:48:44  -6.21  -3.81  -238.037534    2             
iter:  20  15:49:46  -6.08  -3.80  -238.039950    2             
iter:  21  15:50:48  -6.56  -3.66  -238.038845    2             
iter:  22  15:51:51  -6.50  -3.96  -238.038685    2             
iter:  23  15:52:53  -7.09  -4.04  -238.038431    2             
iter:  24  15:53:55  -6.98  -4.23  -238.038178    2             
iter:  25  15:54:57  -7.53  -4.14  -238.038340    2             

Converged after 25 iterations.

Dipole moment: (22.558239, 16.118532, -0.324777) |e|*Ang

Energy contributions relative to reference atoms: (reference = -12877860.274276)

Kinetic:       -223.179542
Potential:      +99.184437
External:        +0.000000
XC:            -105.924735
Entropy (-ST):   -2.303036
Local:           -6.966982
--------------------------
Free energy:   -239.189858
Extrapolated:  -238.038340

Fermi level: 0.90800

Showing only first 2 kpts
 Kpt  Band  Eigenvalues  Occupancy
  0   360      0.90174    0.12892
  0   361      0.92640    0.11353
  0   362      0.94653    0.10121
  0   363      0.97069    0.08706

  1   360      0.82140    0.17598
  1   361      0.83875    0.16663
  1   362      0.86983    0.14857
  1   363      0.89019    0.13610



Forces in eV/Ang:
  0 Pd   -0.12124    0.32520   -0.34852
  1 Ir    0.94835    0.68073    0.59526
  2 Ru   -1.08009    0.28715    0.68666
  3 Ru    0.41975    0.28731    1.61571
  4 Ir   -0.56105   -0.79243    1.17441
  5 Pt    0.15262    0.16511    0.05275
  6 Pd   -0.49622   -0.42125   -0.24337
  7 Pd    0.38608   -0.25999   -0.57979
  8 Ru    0.33700   -0.15392    0.55075
  9 Ag   -0.24713   -0.09787    0.05231
 10 Ag   -0.02348   -0.10274    0.05117
 11 Ag    0.08284   -0.16584   -0.14008
 12 Pt    0.10029    0.76962   -0.54498
 13 Pt    0.11457    0.56090   -0.72725
 14 Pt   -0.10867    0.20608   -0.23025
 15 Ru   -0.39571   -0.73295   -0.97233
 16 Pt   -0.41544    0.17653   -0.13933
 17 Ir    0.91842   -0.08014   -1.05646
 18 Pt   -0.00542   -0.00219   -0.00374
 19 Ag   -0.00602   -0.04131    0.01938
 20 Pd   -0.01709   -0.00693    0.01385
 21 Ag   -0.00948   -0.01146   -0.01253
 22 Ru    0.00925   -0.01891    0.02658
 23 Pd   -0.04760   -0.03774    0.08088
 24 Ir    0.00430   -0.02803    0.01726
 25 Ir   -0.01463   -0.02943    0.02356
 26 Pt    0.00547   -0.01751    0.00414
 27 Ir    0.05136    0.01530   -0.00838
 28 Pd    0.02642   -0.02096   -0.04459
 29 Ag   -0.03265   -0.00510    0.00572
 30 Pd    0.04771   -0.03345    0.03001
 31 Pd   -0.01240   -0.02447    0.00403
 32 Pd    0.01410   -0.00006    0.00629
 33 Ru    0.00679   -0.10681    0.13611
 34 Pd    0.02876   -0.00221   -0.03719
 35 Ir    0.01754   -0.01807    0.03411
 36 Ir   -0.01033    0.02738   -0.17264
 37 Pt    0.05988   -0.00335   -0.02325
 38 Ag   -0.01691    0.03300    0.03459
 39 Pd   -0.06449   -0.12517   -0.03208
 40 Pd    0.06154   -0.05794   -0.00521
 41 Ir   -0.02861   -0.05596    0.01903
 42 Ag   -0.02696    0.08653   -0.32480
 43 Ir    0.13294   -0.05363   -0.04349
 44 Ir   -0.12251   -0.03891   -0.05087
 45 O    -0.57138   -0.56237    0.11829
 46 H     0.39771    0.35304    0.12034

System changes: positions 

Initializing position-dependent things.

Density initialized from wave functions
                                             
                                             
                                             
                                             
                    H                        
                 O                           
                                             
                                             
                  Ag     Ir    Ir            
                    Pd                       
            Pd     Ru     PIr    Ir          
        Ir    Pt    PAg    Pd                
                                             
        Ir     Pd    IAg    Ir     Pt        
                                             
                Ag     Ru     Pd             
           Pt     Ag    PPd    Ir            
                                             
            Pt     Pt    PPt    Ru           
       Ag     Ag     Ag                      
              Ru    Ir     Pt                
         Pd    Ir     Ru                     
                                             
                                             
                                             
                                             
                                             

Positions:
   0 Pd     0.000000    1.624086   10.000000    ( 0.0000,  0.0000,  0.0000)
   1 Ir     2.812999    1.624086   10.000000    ( 0.0000,  0.0000,  0.0000)
   2 Ru     5.625998    1.624086   10.000000    ( 0.0000,  0.0000,  0.0000)
   3 Ru     1.406500    4.060215   10.000000    ( 0.0000,  0.0000,  0.0000)
   4 Ir     4.219499    4.060215   10.000000    ( 0.0000,  0.0000,  0.0000)
   5 Pt     7.032498    4.060215   10.000000    ( 0.0000,  0.0000,  0.0000)
   6 Pd     2.812999    6.496343   10.000000    ( 0.0000,  0.0000,  0.0000)
   7 Pd     5.625998    6.496343   10.000000    ( 0.0000,  0.0000,  0.0000)
   8 Ru     8.438997    6.496343   10.000000    ( 0.0000,  0.0000,  0.0000)
   9 Ag     0.000000    0.000000   12.296804    ( 0.0000,  0.0000,  0.0000)
  10 Ag     2.812999    0.000000   12.296804    ( 0.0000,  0.0000,  0.0000)
  11 Ag     5.625998    0.000000   12.296804    ( 0.0000,  0.0000,  0.0000)
  12 Pt     1.406500    2.436129   12.296804    ( 0.0000,  0.0000,  0.0000)
  13 Pt     4.219499    2.436129   12.296804    ( 0.0000,  0.0000,  0.0000)
  14 Pt     7.032498    2.436129   12.296804    ( 0.0000,  0.0000,  0.0000)
  15 Ru     2.812999    4.872257   12.296804    ( 0.0000,  0.0000,  0.0000)
  16 Pt     5.625998    4.872257   12.296804    ( 0.0000,  0.0000,  0.0000)
  17 Ir     8.438997    4.872257   12.296804    ( 0.0000,  0.0000,  0.0000)
  18 Pt     1.330655    0.738833   14.656952    ( 0.0000,  0.0000,  0.0000)
  19 Ag     4.180331    0.786815   14.648722    ( 0.0000,  0.0000,  0.0000)
  20 Pd     6.998966    0.861711   14.621959    ( 0.0000,  0.0000,  0.0000)
  21 Ag     2.799468    3.196924   14.643708    ( 0.0000,  0.0000,  0.0000)
  22 Ru     5.663179    3.372097   14.468807    ( 0.0000,  0.0000,  0.0000)
  23 Pd     8.445810    3.202938   14.582167    ( 0.0000,  0.0000,  0.0000)
  24 Ir     4.204531    5.608627   14.572109    ( 0.0000,  0.0000,  0.0000)
  25 Ir     7.028991    5.573011   14.565648    ( 0.0000,  0.0000,  0.0000)
  26 Pt     9.858560    5.663322   14.597547    ( 0.0000,  0.0000,  0.0000)
  27 Ir    -0.068785    1.508171   16.939642    ( 0.0000,  0.0000,  0.0000)
  28 Pd     2.750580    1.589409   16.983906    ( 0.0000,  0.0000,  0.0000)
  29 Ag     5.526577    1.594294   16.919536    ( 0.0000,  0.0000,  0.0000)
  30 Pd     1.410231    4.027037   16.979435    ( 0.0000,  0.0000,  0.0000)
  31 Pd     4.182926    4.104328   16.893717    ( 0.0000,  0.0000,  0.0000)
  32 Pd     7.010416    3.970559   16.738573    ( 0.0000,  0.0000,  0.0000)
  33 Ru     2.847048    6.522217   16.777975    ( 0.0000,  0.0000,  0.0000)
  34 Pd     5.666445    6.450159   16.788206    ( 0.0000,  0.0000,  0.0000)
  35 Ir     8.555182    6.374730   16.926697    ( 0.0000,  0.0000,  0.0000)
  36 Ir     0.059781   -0.024189   18.950399    ( 0.0000,  0.0000,  0.0000)
  37 Pt     2.812598   -0.099114   19.137407    ( 0.0000,  0.0000,  0.0000)
  38 Ag     5.658706    0.018699   19.411354    ( 0.0000,  0.0000,  0.0000)
  39 Pd     1.337724    2.355282   19.272569    ( 0.0000,  0.0000,  0.0000)
  40 Pd     4.326466    2.508653   19.254205    ( 0.0000,  0.0000,  0.0000)
  41 Ir     7.169861    2.505234   19.021607    ( 0.0000,  0.0000,  0.0000)
  42 Ag     2.806387    4.909335   19.301393    ( 0.0000,  0.0000,  0.0000)
  43 Ir     5.725894    4.905631   19.032548    ( 0.0000,  0.0000,  0.0000)
  44 Ir     8.253324    4.842560   18.989833    ( 0.0000,  0.0000,  0.0000)
  45 O      2.769950    4.854409   21.490273    ( 0.0000,  0.0000,  0.0000)
  46 H      3.474223    5.550474   21.794655    ( 0.0000,  0.0000,  0.0000)

Unit cell:
           periodic     x           y           z      points  spacing
  1. axis:    yes    8.465341    0.000000    0.000000    35     0.2095
  2. axis:    yes    4.232670    7.331200    0.000000    35     0.2095
  3. axis:    no     0.000000    0.000000   29.187217   135     0.2162

  Lengths:   8.465341   8.465341  29.187217
  Angles:   90.000000  90.000000  60.000000

Effective grid spacing dv^(1/3) = 0.2221

                     log10-error:    total        iterations:
           time      wfs    density  energy       fermi  poisson
iter:   1  15:56:27  -2.20   +inf  -240.040469    3             
iter:   2  15:57:29  -1.94  -2.04  -276.376553    3             
iter:   3  15:58:31  -2.22  -1.41  -238.675051    4             
iter:   4  15:59:32  -3.01  -2.29  -239.238711    3             
iter:   5  16:00:33  -3.18  -2.16  -238.250462    4             
iter:   6  16:01:34  -3.78  -2.41  -238.014551    3             
iter:   7  16:02:35  -4.91  -2.99  -238.011308    3             
iter:   8  16:03:36  -4.89  -3.04  -238.006568    3             
iter:   9  16:04:37  -4.22  -2.94  -237.988473    3             
iter:  10  16:05:38  -4.74  -3.14  -237.987564    3             
iter:  11  16:06:39  -5.27  -3.23  -237.981600    3             
iter:  12  16:07:40  -5.75  -3.35  -237.983916    2             
iter:  13  16:08:42  -5.91  -3.39  -237.981615    2             
iter:  14  16:09:42  -6.06  -3.56  -237.981855    2             
iter:  15  16:10:44  -5.65  -3.62  -237.984586    2             
iter:  16  16:11:45  -5.74  -3.44  -237.983965    2             
iter:  17  16:12:46  -6.03  -3.60  -237.981424    2             
iter:  18  16:13:47  -6.11  -3.67  -237.983674    2             
iter:  19  16:14:47  -6.28  -3.53  -237.981267    2             
iter:  20  16:15:48  -6.70  -3.91  -237.981750    2             
iter:  21  16:16:49  -7.10  -3.85  -237.981512    2             
iter:  22  16:17:50  -6.89  -3.92  -237.981129    2             
iter:  23  16:18:51  -6.45  -4.21  -237.980417    2             
iter:  24  16:19:53  -7.15  -4.07  -237.981050    2             
iter:  25  16:20:53  -7.24  -4.37  -237.980773    2             
iter:  26  16:21:55  -7.61  -4.19  -237.980909    2             

Converged after 26 iterations.

Dipole moment: (24.543763, 15.341410, -0.412432) |e|*Ang

Energy contributions relative to reference atoms: (reference = -12877860.274276)

Kinetic:       -223.661910
Potential:      +99.201138
External:        +0.000000
XC:            -105.476367
Entropy (-ST):   -2.302314
Local:           -6.892613
--------------------------
Free energy:   -239.132066
Extrapolated:  -237.980909

Fermi level: 0.87106

Showing only first 2 kpts
 Kpt  Band  Eigenvalues  Occupancy
  0   360      0.86449    0.12910
  0   361      0.88801    0.11443
  0   362      0.91421    0.09844
  0   363      0.93466    0.08653

  1   360      0.78476    0.17582
  1   361      0.80068    0.16725
  1   362      0.83683    0.14619
  1   363      0.85330    0.13607



Forces in eV/Ang:
  0 Pd   -0.11944    0.32482   -0.34897
  1 Ir    0.94754    0.67966    0.59459
  2 Ru   -1.08212    0.28703    0.69611
  3 Ru    0.42055    0.28515    1.61800
  4 Ir   -0.56048   -0.78868    1.17384
  5 Pt    0.15588    0.16949    0.05581
  6 Pd   -0.49387   -0.42299   -0.24189
  7 Pd    0.38481   -0.25924   -0.57935
  8 Ru    0.33418   -0.15376    0.55605
  9 Ag   -0.25124   -0.10417    0.06810
 10 Ag   -0.02341   -0.10967    0.06429
 11 Ag    0.08195   -0.16781   -0.12741
 12 Pt    0.07844    0.77438   -0.52183
 13 Pt    0.11795    0.54787   -0.71256
 14 Pt   -0.10154    0.20497   -0.21090
 15 Ru   -0.40221   -0.72780   -0.96089
 16 Pt   -0.41525    0.16788   -0.10966
 17 Ir    0.92056   -0.08850   -1.04120
 18 Pt   -0.01901    0.00008   -0.02727
 19 Ag   -0.00261   -0.02807   -0.01266
 20 Pd    0.00014   -0.07216    0.06901
 21 Ag   -0.01156   -0.01699   -0.00898
 22 Ru   -0.02157   -0.02023    0.00377
 23 Pd    0.02406   -0.01072   -0.01348
 24 Ir   -0.01469   -0.00606    0.00456
 25 Ir    0.02198   -0.01075   -0.03523
 26 Pt   -0.00992   -0.03573    0.01934
 27 Ir   -0.01307    0.08743   -0.17180
 28 Pd    0.01232   -0.01145   -0.01284
 29 Ag    0.05899   -0.03530   -0.02418
 30 Pd   -0.06656   -0.05911   -0.07791
 31 Pd    0.08924   -0.04878   -0.05084
 32 Pd   -0.03577   -0.06196   -0.04119
 33 Ru   -0.04055    0.03574   -0.03832
 34 Pd    0.02860   -0.04049   -0.02061
 35 Ir    0.05796   -0.01308   -0.01601
 36 Ir    0.00328   -0.10511    0.12521
 37 Pt   -0.01911    0.03491   -0.01386
 38 Ag    0.00296   -0.01014    0.05662
 39 Pd    0.04061   -0.02449   -0.00850
 40 Pd   -0.02177    0.03374    0.03745
 41 Ir   -0.04973   -0.06873   -0.01376
 42 Ag   -0.04013   -0.03497    0.75861
 43 Ir   -0.21422   -0.04088   -0.02910
 44 Ir    0.26389   -0.02679    0.06613
 45 O     1.21583    1.16898   -0.18005
 46 H    -1.23718   -1.27511   -0.53541

System changes: positions 

Initializing position-dependent things.

Density initialized from wave functions
                                             
                                             
                                             
                                             
                    H                        
                 O                           
                                             
                                             
                  Ag     Ir    Ir            
            Pd      Pd                       
                   Ru     PIr    Ir          
        Ir    Pt    PAg    Pd                
                                             
        Ir     Pd    IAg    Ir     Pt        
                                             
                Ag     Ru     Pd             
           Pt     Ag    PPd    Ir            
                                             
            Pt     Pt    PPt    Ru           
       Ag     Ag     Ag                      
              Ru    Ir     Pt                
         Pd    Ir     Ru                     
                                             
                                             
                                             
                                             
                                             

Positions:
   0 Pd     0.000000    1.624086   10.000000    ( 0.0000,  0.0000,  0.0000)
   1 Ir     2.812999    1.624086   10.000000    ( 0.0000,  0.0000,  0.0000)
   2 Ru     5.625998    1.624086   10.000000    ( 0.0000,  0.0000,  0.0000)
   3 Ru     1.406500    4.060215   10.000000    ( 0.0000,  0.0000,  0.0000)
   4 Ir     4.219499    4.060215   10.000000    ( 0.0000,  0.0000,  0.0000)
   5 Pt     7.032498    4.060215   10.000000    ( 0.0000,  0.0000,  0.0000)
   6 Pd     2.812999    6.496343   10.000000    ( 0.0000,  0.0000,  0.0000)
   7 Pd     5.625998    6.496343   10.000000    ( 0.0000,  0.0000,  0.0000)
   8 Ru     8.438997    6.496343   10.000000    ( 0.0000,  0.0000,  0.0000)
   9 Ag     0.000000    0.000000   12.296804    ( 0.0000,  0.0000,  0.0000)
  10 Ag     2.812999    0.000000   12.296804    ( 0.0000,  0.0000,  0.0000)
  11 Ag     5.625998    0.000000   12.296804    ( 0.0000,  0.0000,  0.0000)
  12 Pt     1.406500    2.436129   12.296804    ( 0.0000,  0.0000,  0.0000)
  13 Pt     4.219499    2.436129   12.296804    ( 0.0000,  0.0000,  0.0000)
  14 Pt     7.032498    2.436129   12.296804    ( 0.0000,  0.0000,  0.0000)
  15 Ru     2.812999    4.872257   12.296804    ( 0.0000,  0.0000,  0.0000)
  16 Pt     5.625998    4.872257   12.296804    ( 0.0000,  0.0000,  0.0000)
  17 Ir     8.438997    4.872257   12.296804    ( 0.0000,  0.0000,  0.0000)
  18 Pt     1.330977    0.739132   14.657182    ( 0.0000,  0.0000,  0.0000)
  19 Ag     4.181060    0.790951   14.646819    ( 0.0000,  0.0000,  0.0000)
  20 Pd     7.000540    0.862081   14.620925    ( 0.0000,  0.0000,  0.0000)
  21 Ag     2.800302    3.197949   14.645030    ( 0.0000,  0.0000,  0.0000)
  22 Ru     5.662134    3.373780   14.466283    ( 0.0000,  0.0000,  0.0000)
  23 Pd     8.450787    3.206573   14.574343    ( 0.0000,  0.0000,  0.0000)
  24 Ir     4.203871    5.611505   14.570299    ( 0.0000,  0.0000,  0.0000)
  25 Ir     7.030644    5.575967   14.563130    ( 0.0000,  0.0000,  0.0000)
  26 Pt     9.858041    5.664875   14.597179    ( 0.0000,  0.0000,  0.0000)
  27 Ir    -0.074036    1.507206   16.939407    ( 0.0000,  0.0000,  0.0000)
  28 Pd     2.748252    1.591559   16.988307    ( 0.0000,  0.0000,  0.0000)
  29 Ag     5.529939    1.594724   16.918773    ( 0.0000,  0.0000,  0.0000)
  30 Pd     1.405194    4.029717   16.975950    ( 0.0000,  0.0000,  0.0000)
  31 Pd     4.184652    4.106216   16.892978    ( 0.0000,  0.0000,  0.0000)
  32 Pd     7.008756    3.970072   16.737458    ( 0.0000,  0.0000,  0.0000)
  33 Ru     2.846077    6.533196   16.763788    ( 0.0000,  0.0000,  0.0000)
  34 Pd     5.663888    6.450159   16.791860    ( 0.0000,  0.0000,  0.0000)
  35 Ir     8.553578    6.376798   16.923038    ( 0.0000,  0.0000,  0.0000)
  36 Ir     0.061015   -0.027279   18.968561    ( 0.0000,  0.0000,  0.0000)
  37 Pt     2.806636   -0.098077   19.139755    ( 0.0000,  0.0000,  0.0000)
  38 Ag     5.660247    0.015373   19.408339    ( 0.0000,  0.0000,  0.0000)
  39 Pd     1.344812    2.367937   19.276224    ( 0.0000,  0.0000,  0.0000)
  40 Pd     4.319961    2.514440   19.255188    ( 0.0000,  0.0000,  0.0000)
  41 Ir     7.172240    2.510403   19.019726    ( 0.0000,  0.0000,  0.0000)
  42 Ag     2.808487    4.900065   19.344669    ( 0.0000,  0.0000,  0.0000)
  43 Ir     5.711155    4.910598   19.036612    ( 0.0000,  0.0000,  0.0000)
  44 Ir     8.267762    4.846397   18.995807    ( 0.0000,  0.0000,  0.0000)
  45 O      2.799915    4.883793   21.448273    ( 0.0000,  0.0000,  0.0000)
  46 H      3.459597    5.540199   21.797871    ( 0.0000,  0.0000,  0.0000)

Unit cell:
           periodic     x           y           z      points  spacing
  1. axis:    yes    8.465341    0.000000    0.000000    35     0.2095
  2. axis:    yes    4.232670    7.331200    0.000000    35     0.2095
  3. axis:    no     0.000000    0.000000   29.187217   135     0.2162

  Lengths:   8.465341   8.465341  29.187217
  Angles:   90.000000  90.000000  60.000000

Effective grid spacing dv^(1/3) = 0.2221

                     log10-error:    total        iterations:
           time      wfs    density  energy       fermi  poisson
iter:   1  16:23:26  -2.68   +inf  -239.039163    3             
iter:   2  16:24:34  -2.49  -2.29  -240.299020    35            
iter:   3  16:25:35  -2.16  -2.06  -259.804056    3             
iter:   4  16:26:36  -2.41  -1.51  -239.557680    3             
iter:   5  16:27:37  -3.41  -2.06  -238.216086    3             
iter:   6  16:28:39  -4.29  -2.76  -238.120548    3             
iter:   7  16:29:41  -4.13  -2.96  -238.076584    3             
iter:   8  16:30:42  -4.99  -3.09  -238.073717    2             
iter:   9  16:31:43  -4.66  -3.09  -238.106595    3             
iter:  10  16:32:44  -5.10  -2.76  -238.063935    3             
iter:  11  16:33:46  -4.80  -3.38  -238.067889    3             
iter:  12  16:34:46  -5.17  -3.14  -238.059452    3             
iter:  13  16:35:46  -5.57  -3.39  -238.060330    2             
iter:  14  16:36:47  -6.24  -3.32  -238.058360    2             
iter:  15  16:37:49  -5.73  -3.46  -238.057641    2             
iter:  16  16:38:49  -5.63  -3.62  -238.059827    2             
iter:  17  16:39:49  -6.70  -3.65  -238.057812    2             
iter:  18  16:40:50  -7.01  -4.07  -238.057967    2             
iter:  19  16:41:49  -6.86  -4.02  -238.058311    2             
iter:  20  16:42:51  -6.91  -4.15  -238.057944    2             
iter:  21  16:43:51  -7.20  -4.33  -238.057774    2             
iter:  22  16:44:51  -7.90  -4.39  -238.057856    2             

Converged after 22 iterations.

Dipole moment: (23.207711, 15.859983, -0.358605) |e|*Ang

Energy contributions relative to reference atoms: (reference = -12877860.274276)

Kinetic:       -224.131294
Potential:      +99.849628
External:        +0.000000
XC:            -105.753301
Entropy (-ST):   -2.302674
Local:           -6.871553
--------------------------
Free energy:   -239.209193
Extrapolated:  -238.057856

Fermi level: 0.89439

Showing only first 2 kpts
 Kpt  Band  Eigenvalues  Occupancy
  0   360      0.88805    0.12897
  0   361      0.91220    0.11390
  0   362      0.93455    0.10024
  0   363      0.95729    0.08694

  1   360      0.80779    0.17598
  1   361      0.82473    0.16686
  1   362      0.85760    0.14774
  1   363      0.87640    0.13621



Forces in eV/Ang:
  0 Pd   -0.12081    0.32477   -0.34808
  1 Ir    0.94856    0.67999    0.59645
  2 Ru   -1.08070    0.28736    0.69071
  3 Ru    0.41901    0.28708    1.61832
  4 Ir   -0.56065   -0.79072    1.17520
  5 Pt    0.15412    0.16701    0.05437
  6 Pd   -0.49551   -0.42139   -0.24146
  7 Pd    0.38565   -0.25967   -0.57884
  8 Ru    0.33549   -0.15441    0.55361
  9 Ag   -0.24865   -0.10064    0.06066
 10 Ag   -0.02359   -0.10557    0.05746
 11 Ag    0.08248   -0.16752   -0.13273
 12 Pt    0.09276    0.77021   -0.53456
 13 Pt    0.11576    0.55661   -0.71855
 14 Pt   -0.10648    0.20564   -0.22091
 15 Ru   -0.39711   -0.72942   -0.96447
 16 Pt   -0.41527    0.17396   -0.12705
 17 Ir    0.91868   -0.08170   -1.04823
 18 Pt   -0.01072   -0.00297   -0.01042
 19 Ag   -0.00363   -0.03705    0.01034
 20 Pd   -0.01126   -0.02748    0.03289
 21 Ag   -0.00839   -0.01347   -0.01088
 22 Ru    0.00060   -0.02153    0.02310
 23 Pd   -0.02542   -0.02962    0.05075
 24 Ir   -0.00207   -0.01986    0.01355
 25 Ir   -0.00309   -0.02283    0.00699
 26 Pt    0.00080   -0.01953    0.01016
 27 Ir    0.03162    0.04052   -0.05987
 28 Pd    0.01932   -0.01800   -0.03749
 29 Ag   -0.00134   -0.01429   -0.00868
 30 Pd    0.01129   -0.03729   -0.00522
 31 Pd    0.01331   -0.02733   -0.01127
 32 Pd    0.00027   -0.02308   -0.00651
 33 Ru   -0.00743   -0.06690    0.09011
 34 Pd    0.02629   -0.01085   -0.03306
 35 Ir    0.03127   -0.01666    0.01679
 36 Ir   -0.01422   -0.02955   -0.05736
 37 Pt    0.02516   -0.00201   -0.01132
 38 Ag    0.00310    0.01412    0.05220
 39 Pd   -0.03828   -0.09587   -0.02493
 40 Pd    0.04028   -0.01462    0.01341
 41 Ir   -0.03416   -0.05892    0.01267
 42 Ag   -0.01585    0.06025    0.07381
 43 Ir    0.02125   -0.04205   -0.01391
 44 Ir   -0.02181   -0.03572   -0.02046
 45 O    -0.02097   -0.03565    0.13677
 46 H    -0.17110   -0.21915   -0.15170

System changes: positions 

Initializing position-dependent things.

Density initialized from wave functions
                                             
                                             
                                             
                                             
                    H                        
                 O                           
                                             
                                             
                  Ag     Ir    Ir            
            Pd      Pd                       
                   Ru     PIr    Ir          
        Ir    Pt    PAg    Pd                
                                             
        Ir     Pd    IAg    Ir     Pt        
                                             
                Ag     Ru     Pd             
           Pt     Ag    PPd    Ir            
                                             
            Pt     Pt    PPt    Ru           
       Ag     Ag     Ag                      
              Ru    Ir     Pt                
         Pd    Ir     Ru                     
                                             
                                             
                                             
                                             
                                             

Positions:
   0 Pd     0.000000    1.624086   10.000000    ( 0.0000,  0.0000,  0.0000)
   1 Ir     2.812999    1.624086   10.000000    ( 0.0000,  0.0000,  0.0000)
   2 Ru     5.625998    1.624086   10.000000    ( 0.0000,  0.0000,  0.0000)
   3 Ru     1.406500    4.060215   10.000000    ( 0.0000,  0.0000,  0.0000)
   4 Ir     4.219499    4.060215   10.000000    ( 0.0000,  0.0000,  0.0000)
   5 Pt     7.032498    4.060215   10.000000    ( 0.0000,  0.0000,  0.0000)
   6 Pd     2.812999    6.496343   10.000000    ( 0.0000,  0.0000,  0.0000)
   7 Pd     5.625998    6.496343   10.000000    ( 0.0000,  0.0000,  0.0000)
   8 Ru     8.438997    6.496343   10.000000    ( 0.0000,  0.0000,  0.0000)
   9 Ag     0.000000    0.000000   12.296804    ( 0.0000,  0.0000,  0.0000)
  10 Ag     2.812999    0.000000   12.296804    ( 0.0000,  0.0000,  0.0000)
  11 Ag     5.625998    0.000000   12.296804    ( 0.0000,  0.0000,  0.0000)
  12 Pt     1.406500    2.436129   12.296804    ( 0.0000,  0.0000,  0.0000)
  13 Pt     4.219499    2.436129   12.296804    ( 0.0000,  0.0000,  0.0000)
  14 Pt     7.032498    2.436129   12.296804    ( 0.0000,  0.0000,  0.0000)
  15 Ru     2.812999    4.872257   12.296804    ( 0.0000,  0.0000,  0.0000)
  16 Pt     5.625998    4.872257   12.296804    ( 0.0000,  0.0000,  0.0000)
  17 Ir     8.438997    4.872257   12.296804    ( 0.0000,  0.0000,  0.0000)
  18 Pt     1.329631    0.738769   14.655911    ( 0.0000,  0.0000,  0.0000)
  19 Ag     4.180560    0.786012   14.648344    ( 0.0000,  0.0000,  0.0000)
  20 Pd     6.998935    0.858791   14.624958    ( 0.0000,  0.0000,  0.0000)
  21 Ag     2.799164    3.196198   14.643583    ( 0.0000,  0.0000,  0.0000)
  22 Ru     5.662349    3.370967   14.469400    ( 0.0000,  0.0000,  0.0000)
  23 Pd     8.447085    3.202517   14.581588    ( 0.0000,  0.0000,  0.0000)
  24 Ir     4.203676    5.608763   14.572131    ( 0.0000,  0.0000,  0.0000)
  25 Ir     7.030062    5.572854   14.564320    ( 0.0000,  0.0000,  0.0000)
  26 Pt     9.858234    5.662317   14.598411    ( 0.0000,  0.0000,  0.0000)
  27 Ir    -0.069549    1.512162   16.932301    ( 0.0000,  0.0000,  0.0000)
  28 Pd     2.750966    1.589151   16.983249    ( 0.0000,  0.0000,  0.0000)
  29 Ag     5.529216    1.593000   16.917862    ( 0.0000,  0.0000,  0.0000)
  30 Pd     1.407288    4.024785   16.975821    ( 0.0000,  0.0000,  0.0000)
  31 Pd     4.186016    4.102591   16.891719    ( 0.0000,  0.0000,  0.0000)
  32 Pd     7.009001    3.967377   16.736756    ( 0.0000,  0.0000,  0.0000)
  33 Ru     2.845311    6.523744   16.776352    ( 0.0000,  0.0000,  0.0000)
  34 Pd     5.667434    6.448855   16.787435    ( 0.0000,  0.0000,  0.0000)
  35 Ir     8.557459    6.374628   16.925513    ( 0.0000,  0.0000,  0.0000)
  36 Ir     0.059250   -0.030192   18.959102    ( 0.0000,  0.0000,  0.0000)
  37 Pt     2.810567   -0.098253   19.138059    ( 0.0000,  0.0000,  0.0000)
  38 Ag     5.660270    0.017562   19.414946    ( 0.0000,  0.0000,  0.0000)
  39 Pd     1.339417    2.354847   19.272894    ( 0.0000,  0.0000,  0.0000)
  40 Pd     4.325574    2.511741   19.256687    ( 0.0000,  0.0000,  0.0000)
  41 Ir     7.167778    2.502653   19.021508    ( 0.0000,  0.0000,  0.0000)
  42 Ag     2.806112    4.908348   19.348916    ( 0.0000,  0.0000,  0.0000)
  43 Ir     5.715722    4.904807   19.034210    ( 0.0000,  0.0000,  0.0000)
  44 Ir     8.263437    4.841642   18.992715    ( 0.0000,  0.0000,  0.0000)
  45 O      2.782954    4.865381   21.461098    ( 0.0000,  0.0000,  0.0000)
  46 H      3.451351    5.525687   21.785267    ( 0.0000,  0.0000,  0.0000)

Unit cell:
           periodic     x           y           z      points  spacing
  1. axis:    yes    8.465341    0.000000    0.000000    35     0.2095
  2. axis:    yes    4.232670    7.331200    0.000000    35     0.2095
  3. axis:    no     0.000000    0.000000   29.187217   135     0.2162

  Lengths:   8.465341   8.465341  29.187217
  Angles:   90.000000  90.000000  60.000000

Effective grid spacing dv^(1/3) = 0.2221

                     log10-error:    total        iterations:
           time      wfs    density  energy       fermi  poisson
iter:   1  16:46:20  -3.17   +inf  -238.178490    3             
iter:   2  16:47:23  -3.19  -2.65  -240.728425    3             
iter:   3  16:48:25  -3.46  -1.93  -238.118412    3             
iter:   4  16:49:27  -4.10  -2.79  -238.141825    3             
iter:   5  16:50:30  -4.73  -2.78  -238.072465    3             
iter:   6  16:51:32  -5.44  -3.41  -238.070354    2             
iter:   7  16:52:35  -5.92  -3.52  -238.069979    2             
iter:   8  16:53:37  -5.87  -3.56  -238.069412    2             
iter:   9  16:54:39  -5.31  -3.61  -238.068898    2             
iter:  10  16:55:41  -5.98  -3.82  -238.070879    2             
iter:  11  16:56:44  -6.40  -3.77  -238.069157    2             
iter:  12  16:57:47  -6.88  -3.76  -238.069304    2             
iter:  13  16:58:49  -6.88  -3.92  -238.069411    2             
iter:  14  16:59:52  -6.61  -4.08  -238.069262    2             
iter:  15  17:00:55  -6.76  -4.23  -238.069341    2             
iter:  16  17:01:57  -7.45  -4.23  -238.069293    2             

Converged after 16 iterations.

Dipole moment: (23.879594, 15.606363, -0.371969) |e|*Ang

Energy contributions relative to reference atoms: (reference = -12877860.274276)

Kinetic:       -223.877588
Potential:      +99.600810
External:        +0.000000
XC:            -105.755012
Entropy (-ST):   -2.300826
Local:           -6.887090
--------------------------
Free energy:   -239.219706
Extrapolated:  -238.069293

Fermi level: 0.88841

Showing only first 2 kpts
 Kpt  Band  Eigenvalues  Occupancy
  0   360      0.88183    0.12911
  0   361      0.90611    0.11397
  0   362      0.92955    0.09964
  0   363      0.95249    0.08627

  1   360      0.80182    0.17597
  1   361      0.81884    0.16681
  1   362      0.85359    0.14655
  1   363      0.86999    0.13649



Forces in eV/Ang:
  0 Pd   -0.12092    0.32458   -0.34805
  1 Ir    0.94891    0.67930    0.59398
  2 Ru   -1.08071    0.28726    0.69299
  3 Ru    0.41944    0.28558    1.61770
  4 Ir   -0.56044   -0.78934    1.17556
  5 Pt    0.15661    0.16921    0.05910
  6 Pd   -0.49520   -0.42094   -0.24203
  7 Pd    0.38571   -0.25962   -0.57897
  8 Ru    0.33475   -0.15501    0.55393
  9 Ag   -0.25517   -0.10461    0.06807
 10 Ag   -0.02174   -0.11064    0.06156
 11 Ag    0.08446   -0.16703   -0.12470
 12 Pt    0.07916    0.77913   -0.52598
 13 Pt    0.12017    0.55130   -0.70877
 14 Pt   -0.10392    0.20351   -0.20190
 15 Ru   -0.40051   -0.73193   -0.95430
 16 Pt   -0.41767    0.15916   -0.10045
 17 Ir    0.92015   -0.09470   -1.03852
 18 Pt   -0.00308   -0.01988   -0.02853
 19 Ag   -0.00744   -0.02549   -0.01644
 20 Pd   -0.00668   -0.07139    0.02902
 21 Ag   -0.00129   -0.01374   -0.02048
 22 Ru   -0.02316   -0.01106   -0.03129
 23 Pd    0.01331   -0.00533   -0.04501
 24 Ir   -0.01509   -0.00328    0.00283
 25 Ir    0.01479   -0.01296   -0.02947
 26 Pt    0.00055   -0.02907   -0.00239
 27 Ir   -0.03295   -0.02723    0.01241
 28 Pd    0.02750   -0.01511    0.00390
 29 Ag    0.03104   -0.03682    0.00295
 30 Pd    0.00637   -0.02817    0.01605
 31 Pd    0.01930   -0.03126    0.01076
 32 Pd   -0.01561   -0.01717    0.02458
 33 Ru   -0.00166    0.02732   -0.00431
 34 Pd    0.01992   -0.02386    0.00141
 35 Ir    0.02201   -0.02444    0.02519
 36 Ir    0.01333   -0.04128   -0.02139
 37 Pt   -0.00756   -0.01979   -0.04739
 38 Ag   -0.01413   -0.00988    0.04702
 39 Pd    0.00228   -0.03228   -0.04499
 40 Pd   -0.02327    0.01657   -0.00556
 41 Ir    0.02842   -0.03482   -0.06780
 42 Ag   -0.02580   -0.02451    0.18184
 43 Ir   -0.07361    0.01195   -0.03249
 44 Ir    0.08191   -0.03817   -0.00417
 45 O     0.07172    0.05306   -0.15244
 46 H    -0.17118   -0.22373   -0.10124

System changes: positions 

Initializing position-dependent things.

Density initialized from wave functions
                                             
                                             
                                             
                                             
                   H                         
                 O                           
                                             
                                             
                  Ag     Ir    Ir            
            Pd      Pd                       
                   Ru     PIr    Ir          
        Ir    Pt    PAg    Pd                
                                             
        Ir     Pd    IAg    Ir     Pt        
                                             
                Ag     Ru     Pd             
           Pt     Ag    PPd    Ir            
                                             
            Pt     Pt    PPt    Ru           
       Ag     Ag     Ag                      
              Ru    Ir     Pt                
         Pd    Ir     Ru                     
                                             
                                             
                                             
                                             
                                             

Positions:
   0 Pd     0.000000    1.624086   10.000000    ( 0.0000,  0.0000,  0.0000)
   1 Ir     2.812999    1.624086   10.000000    ( 0.0000,  0.0000,  0.0000)
   2 Ru     5.625998    1.624086   10.000000    ( 0.0000,  0.0000,  0.0000)
   3 Ru     1.406500    4.060215   10.000000    ( 0.0000,  0.0000,  0.0000)
   4 Ir     4.219499    4.060215   10.000000    ( 0.0000,  0.0000,  0.0000)
   5 Pt     7.032498    4.060215   10.000000    ( 0.0000,  0.0000,  0.0000)
   6 Pd     2.812999    6.496343   10.000000    ( 0.0000,  0.0000,  0.0000)
   7 Pd     5.625998    6.496343   10.000000    ( 0.0000,  0.0000,  0.0000)
   8 Ru     8.438997    6.496343   10.000000    ( 0.0000,  0.0000,  0.0000)
   9 Ag     0.000000    0.000000   12.296804    ( 0.0000,  0.0000,  0.0000)
  10 Ag     2.812999    0.000000   12.296804    ( 0.0000,  0.0000,  0.0000)
  11 Ag     5.625998    0.000000   12.296804    ( 0.0000,  0.0000,  0.0000)
  12 Pt     1.406500    2.436129   12.296804    ( 0.0000,  0.0000,  0.0000)
  13 Pt     4.219499    2.436129   12.296804    ( 0.0000,  0.0000,  0.0000)
  14 Pt     7.032498    2.436129   12.296804    ( 0.0000,  0.0000,  0.0000)
  15 Ru     2.812999    4.872257   12.296804    ( 0.0000,  0.0000,  0.0000)
  16 Pt     5.625998    4.872257   12.296804    ( 0.0000,  0.0000,  0.0000)
  17 Ir     8.438997    4.872257   12.296804    ( 0.0000,  0.0000,  0.0000)
  18 Pt     1.328433    0.736123   14.651750    ( 0.0000,  0.0000,  0.0000)
  19 Ag     4.179203    0.779105   14.647783    ( 0.0000,  0.0000,  0.0000)
  20 Pd     6.996775    0.848399   14.630870    ( 0.0000,  0.0000,  0.0000)
  21 Ag     2.798135    3.193307   14.639977    ( 0.0000,  0.0000,  0.0000)
  22 Ru     5.660005    3.367627   14.468082    ( 0.0000,  0.0000,  0.0000)
  23 Pd     8.445209    3.198602   14.582497    ( 0.0000,  0.0000,  0.0000)
  24 Ir     4.201942    5.606051   14.573974    ( 0.0000,  0.0000,  0.0000)
  25 Ir     7.031030    5.568757   14.562192    ( 0.0000,  0.0000,  0.0000)
  26 Pt     9.858578    5.656990   14.598873    ( 0.0000,  0.0000,  0.0000)
  27 Ir    -0.069519    1.511820   16.930087    ( 0.0000,  0.0000,  0.0000)
  28 Pd     2.756469    1.585428   16.979701    ( 0.0000,  0.0000,  0.0000)
  29 Ag     5.531465    1.587567   16.917975    ( 0.0000,  0.0000,  0.0000)
  30 Pd     1.410731    4.017900   16.978745    ( 0.0000,  0.0000,  0.0000)
  31 Pd     4.188536    4.096278   16.892556    ( 0.0000,  0.0000,  0.0000)
  32 Pd     7.007755    3.964031   16.739619    ( 0.0000,  0.0000,  0.0000)
  33 Ru     2.844992    6.518679   16.786743    ( 0.0000,  0.0000,  0.0000)
  34 Pd     5.672520    6.445296   16.784155    ( 0.0000,  0.0000,  0.0000)
  35 Ir     8.562605    6.369979   16.930942    ( 0.0000,  0.0000,  0.0000)
  36 Ir     0.059599   -0.035629   18.945912    ( 0.0000,  0.0000,  0.0000)
  37 Pt     2.813633   -0.100904   19.130749    ( 0.0000,  0.0000,  0.0000)
  38 Ag     5.658037    0.018583   19.424987    ( 0.0000,  0.0000,  0.0000)
  39 Pd     1.334760    2.340228   19.264713    ( 0.0000,  0.0000,  0.0000)
  40 Pd     4.327694    2.510432   19.256541    ( 0.0000,  0.0000,  0.0000)
  41 Ir     7.168052    2.492784   19.014908    ( 0.0000,  0.0000,  0.0000)
  42 Ag     2.800997    4.912520   19.360672    ( 0.0000,  0.0000,  0.0000)
  43 Ir     5.713815    4.901592   19.027686    ( 0.0000,  0.0000,  0.0000)
  44 Ir     8.266727    4.833395   18.988863    ( 0.0000,  0.0000,  0.0000)
  45 O      2.766919    4.846655   21.456598    ( 0.0000,  0.0000,  0.0000)
  46 H      3.437289    5.500715   21.769191    ( 0.0000,  0.0000,  0.0000)

Unit cell:
           periodic     x           y           z      points  spacing
  1. axis:    yes    8.465341    0.000000    0.000000    35     0.2095
  2. axis:    yes    4.232670    7.331200    0.000000    35     0.2095
  3. axis:    no     0.000000    0.000000   29.187217   135     0.2162

  Lengths:   8.465341   8.465341  29.187217
  Angles:   90.000000  90.000000  60.000000

Effective grid spacing dv^(1/3) = 0.2221

                     log10-error:    total        iterations:
           time      wfs    density  energy       fermi  poisson
iter:   1  17:03:27  -2.98   +inf  -239.352601    3             
iter:   2  17:04:30  -1.74  -2.09  -296.048786    36            
iter:   3  17:05:32  -2.18  -1.35  -239.762760    37            
iter:   4  17:06:34  -3.02  -2.09  -238.193241    3             
iter:   5  17:07:37  -4.01  -2.69  -238.106881    3             
iter:   6  17:08:39  -4.62  -3.02  -238.085623    3             
iter:   7  17:09:41  -5.24  -3.38  -238.083352    2             
iter:   8  17:10:44  -5.32  -3.47  -238.082920    2             
iter:   9  17:11:54  -5.43  -3.50  -238.083360    2             
iter:  10  17:12:57  -5.44  -3.38  -238.080466    3             
iter:  11  17:13:59  -6.03  -3.61  -238.082091    2             
iter:  12  17:15:01  -6.29  -3.71  -238.080837    2             
iter:  13  17:16:04  -6.64  -3.76  -238.080809    2             
iter:  14  17:17:06  -6.42  -3.92  -238.081284    2             
iter:  15  17:18:08  -6.72  -3.92  -238.081161    2             
iter:  16  17:19:10  -6.79  -3.88  -238.080874    2             
iter:  17  17:20:13  -6.90  -4.12  -238.081420    2             
iter:  18  17:21:15  -7.25  -3.97  -238.080829    2             
iter:  19  17:22:18  -7.34  -4.23  -238.080965    2             
iter:  20  17:23:20  -7.29  -4.18  -238.080993    2             
iter:  21  17:24:27  -7.27  -4.25  -238.080898    2             
iter:  22  17:25:29  -7.54  -4.43  -238.080823    2             

Converged after 22 iterations.

Dipole moment: (24.325739, 15.450631, -0.367925) |e|*Ang

Energy contributions relative to reference atoms: (reference = -12877860.274276)

Kinetic:       -221.890208
Potential:      +97.932025
External:        +0.000000
XC:            -106.085220
Entropy (-ST):   -2.296134
Local:           -6.889352
--------------------------
Free energy:   -239.228890
Extrapolated:  -238.080823

Fermi level: 0.89099

Showing only first 2 kpts
 Kpt  Band  Eigenvalues  Occupancy
  0   360      0.88468    0.12895
  0   361      0.90935    0.11356
  0   362      0.93360    0.09877
  0   363      0.95551    0.08602

  1   360      0.80362    0.17638
  1   361      0.82218    0.16639
  1   362      0.85651    0.14634
  1   363      0.87262    0.13645



Forces in eV/Ang:
  0 Pd   -0.12117    0.32552   -0.35065
  1 Ir    0.95058    0.67989    0.59184
  2 Ru   -1.08127    0.28855    0.69114
  3 Ru    0.42111    0.28393    1.61263
  4 Ir   -0.55989   -0.78932    1.17360
  5 Pt    0.15842    0.17172    0.05750
  6 Pd   -0.49482   -0.42151   -0.24244
  7 Pd    0.38620   -0.25899   -0.58125
  8 Ru    0.33458   -0.15457    0.55273
  9 Ag   -0.26455   -0.10849    0.06403
 10 Ag   -0.02131   -0.11470    0.04705
 11 Ag    0.08899   -0.16824   -0.12129
 12 Pt    0.07057    0.77355   -0.54055
 13 Pt    0.12208    0.53811   -0.71986
 14 Pt   -0.10696    0.18292   -0.18942
 15 Ru   -0.40186   -0.73025   -0.95969
 16 Pt   -0.42635    0.15876   -0.09934
 17 Ir    0.92143   -0.09797   -1.04427
 18 Pt   -0.00311   -0.01399    0.01349
 19 Ag   -0.00050   -0.01024   -0.00931
 20 Pd    0.00825   -0.02495   -0.02102
 21 Ag    0.00391   -0.02150    0.01202
 22 Ru   -0.00103   -0.00585   -0.00356
 23 Pd    0.00089   -0.02248   -0.03050
 24 Ir    0.00803   -0.01503   -0.00518
 25 Ir    0.00742   -0.03101   -0.01317
 26 Pt   -0.01501   -0.02854    0.00809
 27 Ir    0.02266   -0.01044   -0.09353
 28 Pd    0.00302   -0.01757   -0.01564
 29 Ag    0.00480   -0.03638   -0.00713
 30 Pd    0.01470   -0.01809   -0.01629
 31 Pd   -0.00615   -0.00515   -0.00456
 32 Pd   -0.00667   -0.01405   -0.04750
 33 Ru   -0.01262   -0.02467   -0.01931
 34 Pd    0.01137   -0.02387   -0.04441
 35 Ir    0.03798   -0.02924   -0.00822
 36 Ir   -0.01241   -0.10075    0.09090
 37 Pt   -0.00561   -0.05528   -0.01392
 38 Ag   -0.00372   -0.00192    0.03188
 39 Pd    0.05489    0.00378   -0.01229
 40 Pd   -0.02810    0.02060   -0.00901
 41 Ir   -0.01043    0.01777    0.01870
 42 Ag   -0.02744   -0.07198   -0.01200
 43 Ir   -0.01692    0.00883   -0.00704
 44 Ir    0.00683   -0.02520    0.04567
 45 O    -0.11564   -0.11161   -0.09427
 46 H     0.01543   -0.03662    0.04468

System changes: positions 

Initializing position-dependent things.

Density initialized from wave functions
                                             
                                             
                                             
                                             
                   H                         
                 O                           
                                             
                                             
                 Ag      Ir    Ir            
                    Pd                       
            Pd     Ru     PIr    Ir          
        Ir    Pt    PAg    Pd                
                                             
        Ir     Pd    IAg    Ir     Pt        
                                             
                Ag     Ru     Pd             
           Pt     Ag    PPd    Ir            
                                             
            Pt     Pt    PPt    Ru           
       Ag     Ag     Ag                      
              Ru    Ir     Pt                
         Pd    Ir     Ru                     
                                             
                                             
                                             
                                             
                                             

Positions:
   0 Pd     0.000000    1.624086   10.000000    ( 0.0000,  0.0000,  0.0000)
   1 Ir     2.812999    1.624086   10.000000    ( 0.0000,  0.0000,  0.0000)
   2 Ru     5.625998    1.624086   10.000000    ( 0.0000,  0.0000,  0.0000)
   3 Ru     1.406500    4.060215   10.000000    ( 0.0000,  0.0000,  0.0000)
   4 Ir     4.219499    4.060215   10.000000    ( 0.0000,  0.0000,  0.0000)
   5 Pt     7.032498    4.060215   10.000000    ( 0.0000,  0.0000,  0.0000)
   6 Pd     2.812999    6.496343   10.000000    ( 0.0000,  0.0000,  0.0000)
   7 Pd     5.625998    6.496343   10.000000    ( 0.0000,  0.0000,  0.0000)
   8 Ru     8.438997    6.496343   10.000000    ( 0.0000,  0.0000,  0.0000)
   9 Ag     0.000000    0.000000   12.296804    ( 0.0000,  0.0000,  0.0000)
  10 Ag     2.812999    0.000000   12.296804    ( 0.0000,  0.0000,  0.0000)
  11 Ag     5.625998    0.000000   12.296804    ( 0.0000,  0.0000,  0.0000)
  12 Pt     1.406500    2.436129   12.296804    ( 0.0000,  0.0000,  0.0000)
  13 Pt     4.219499    2.436129   12.296804    ( 0.0000,  0.0000,  0.0000)
  14 Pt     7.032498    2.436129   12.296804    ( 0.0000,  0.0000,  0.0000)
  15 Ru     2.812999    4.872257   12.296804    ( 0.0000,  0.0000,  0.0000)
  16 Pt     5.625998    4.872257   12.296804    ( 0.0000,  0.0000,  0.0000)
  17 Ir     8.438997    4.872257   12.296804    ( 0.0000,  0.0000,  0.0000)
  18 Pt     1.326501    0.731135   14.648923    ( 0.0000,  0.0000,  0.0000)
  19 Ag     4.177493    0.769066   14.646169    ( 0.0000,  0.0000,  0.0000)
  20 Pd     6.995281    0.832979   14.634988    ( 0.0000,  0.0000,  0.0000)
  21 Ag     2.797368    3.186777   14.637412    ( 0.0000,  0.0000,  0.0000)
  22 Ru     5.657404    3.362649   14.466723    ( 0.0000,  0.0000,  0.0000)
  23 Pd     8.442382    3.190317   14.580630    ( 0.0000,  0.0000,  0.0000)
  24 Ir     4.201245    5.600335   14.575667    ( 0.0000,  0.0000,  0.0000)
  25 Ir     7.032925    5.559203   14.558340    ( 0.0000,  0.0000,  0.0000)
  26 Pt     9.856867    5.646652   14.600741    ( 0.0000,  0.0000,  0.0000)
  27 Ir    -0.065255    1.510673   16.913485    ( 0.0000,  0.0000,  0.0000)
  28 Pd     2.763396    1.578336   16.972566    ( 0.0000,  0.0000,  0.0000)
  29 Ag     5.534324    1.576151   16.917021    ( 0.0000,  0.0000,  0.0000)
  30 Pd     1.417238    4.007028   16.979900    ( 0.0000,  0.0000,  0.0000)
  31 Pd     4.190441    4.088094   16.892741    ( 0.0000,  0.0000,  0.0000)
  32 Pd     7.005624    3.958073   16.736076    ( 0.0000,  0.0000,  0.0000)
[...]
  25 Ir     7.033465    5.559035   14.556045    ( 0.0000,  0.0000,  0.0000)
  26 Pt     9.855909    5.647681   14.599890    ( 0.0000,  0.0000,  0.0000)
  27 Ir    -0.064925    1.506092   16.917056    ( 0.0000,  0.0000,  0.0000)
  28 Pd     2.759624    1.578394   16.973694    ( 0.0000,  0.0000,  0.0000)
  29 Ag     5.534205    1.577080   16.917487    ( 0.0000,  0.0000,  0.0000)
  30 Pd     1.413726    4.010125   16.976218    ( 0.0000,  0.0000,  0.0000)
  31 Pd     4.189562    4.091711   16.891339    ( 0.0000,  0.0000,  0.0000)
  32 Pd     7.007876    3.958212   16.734337    ( 0.0000,  0.0000,  0.0000)
  33 Ru     2.842925    6.508821   16.793253    ( 0.0000,  0.0000,  0.0000)
  34 Pd     5.675771    6.439376   16.777108    ( 0.0000,  0.0000,  0.0000)
  35 Ir     8.575200    6.360189   16.934583    ( 0.0000,  0.0000,  0.0000)
  36 Ir     0.058082   -0.056921   18.944124    ( 0.0000,  0.0000,  0.0000)
  37 Pt     2.815377   -0.113027   19.124857    ( 0.0000,  0.0000,  0.0000)
  38 Ag     5.656269    0.019121   19.438260    ( 0.0000,  0.0000,  0.0000)
  39 Pd     1.340243    2.332013   19.259226    ( 0.0000,  0.0000,  0.0000)
  40 Pd     4.325389    2.511319   19.255794    ( 0.0000,  0.0000,  0.0000)
  41 Ir     7.166921    2.486640   19.014135    ( 0.0000,  0.0000,  0.0000)
  42 Ag     2.791343    4.902364   19.358603    ( 0.0000,  0.0000,  0.0000)
  43 Ir     5.710133    4.900915   19.021463    ( 0.0000,  0.0000,  0.0000)
  44 Ir     8.269748    4.821624   18.994897    ( 0.0000,  0.0000,  0.0000)
  45 O      2.756277    4.824715   21.445719    ( 0.0000,  0.0000,  0.0000)
  46 H      3.426400    5.470919   21.764140    ( 0.0000,  0.0000,  0.0000)

Unit cell:
           periodic     x           y           z      points  spacing
  1. axis:    yes    8.465341    0.000000    0.000000    35     0.2095
  2. axis:    yes    4.232670    7.331200    0.000000    35     0.2095
  3. axis:    no     0.000000    0.000000   29.187217   135     0.2162

  Lengths:   8.465341   8.465341  29.187217
  Angles:   90.000000  90.000000  60.000000

Effective grid spacing dv^(1/3) = 0.2221

                     log10-error:    total        iterations:
           time      wfs    density  energy       fermi  poisson
iter:   1  18:09:09  -3.31   +inf  -238.482047    3             
iter:   2  18:10:10  -2.40  -2.37  -255.690567    3             
iter:   3  18:11:11  -2.77  -1.55  -238.175989    3             
iter:   4  18:12:12  -3.78  -2.67  -238.091787    2             
iter:   5  18:13:13  -4.77  -3.42  -238.094162    3             
iter:   6  18:14:15  -5.42  -3.33  -238.091972    2             
iter:   7  18:15:16  -5.73  -3.44  -238.091082    2             
iter:   8  18:16:22  -5.56  -3.62  -238.089274    2             
iter:   9  18:17:25  -5.65  -3.73  -238.090181    2             
iter:  10  18:18:27  -6.11  -3.74  -238.088776    2             
iter:  11  18:19:27  -6.76  -4.01  -238.088752    2             
iter:  12  18:20:27  -6.61  -4.07  -238.088445    2             
iter:  13  18:21:28  -6.79  -4.09  -238.088811    2             
iter:  14  18:22:29  -6.60  -3.95  -238.088798    2             
iter:  15  18:23:30  -7.39  -4.24  -238.088775    2             
iter:  16  18:24:31  -7.60  -4.40  -238.088730    2             

Converged after 16 iterations.

Dipole moment: (24.333284, 16.207996, -0.359725) |e|*Ang

Energy contributions relative to reference atoms: (reference = -12877860.274276)

Kinetic:       -222.010448
Potential:      +98.082597
External:        +0.000000
XC:            -106.126059
Entropy (-ST):   -2.294864
Local:           -6.887387
--------------------------
Free energy:   -239.236162
Extrapolated:  -238.088730

Fermi level: 0.89506

Showing only first 2 kpts
 Kpt  Band  Eigenvalues  Occupancy
  0   360      0.88834    0.12920
  0   361      0.91221    0.11431
  0   362      0.93767    0.09877
  0   363      0.95864    0.08655

  1   360      0.80706    0.17671
  1   361      0.82714    0.16590
  1   362      0.85944    0.14703
  1   363      0.87688    0.13634



Forces in eV/Ang:
  0 Pd   -0.12118    0.32535   -0.34927
  1 Ir    0.94881    0.68023    0.59295
  2 Ru   -1.07982    0.28989    0.69151
  3 Ru    0.42072    0.28117    1.60625
  4 Ir   -0.55913   -0.78779    1.17552
  5 Pt    0.16053    0.17307    0.05772
  6 Pd   -0.49430   -0.42173   -0.23928
  7 Pd    0.38535   -0.25813   -0.57759
  8 Ru    0.33429   -0.15459    0.55343
  9 Ag   -0.26370   -0.11571    0.06088
 10 Ag   -0.02530   -0.11667    0.03964
 11 Ag    0.08941   -0.18004   -0.11970
 12 Pt    0.07817    0.76707   -0.55615
 13 Pt    0.11743    0.53185   -0.72601
 14 Pt   -0.11400    0.16691   -0.20334
 15 Ru   -0.40205   -0.73397   -0.95602
 16 Pt   -0.43876    0.15032   -0.11881
 17 Ir    0.93165   -0.10481   -1.05705
 18 Pt    0.01707   -0.02174   -0.01786
 19 Ag    0.00895   -0.01474    0.00397
 20 Pd   -0.00778   -0.00979   -0.02151
 21 Ag    0.00122   -0.01035   -0.00053
 22 Ru    0.00002   -0.01913    0.00020
 23 Pd    0.01230   -0.01343   -0.00843
 24 Ir   -0.01113   -0.00174   -0.01279
 25 Ir    0.00143    0.00865    0.01413
 26 Pt    0.01413   -0.00434   -0.02181
 27 Ir   -0.01500   -0.04796    0.12693
 28 Pd   -0.00123   -0.01845    0.03007
 29 Ag    0.00944    0.00206    0.01287
 30 Pd   -0.01650   -0.03308   -0.00270
 31 Pd    0.00268   -0.01919   -0.00809
 32 Pd    0.02374   -0.00557    0.03679
 33 Ru    0.01274    0.00438   -0.03501
 34 Pd    0.01679   -0.00870   -0.01474
 35 Ir   -0.02185   -0.02294    0.03249
 36 Ir   -0.00044    0.03312   -0.02895
 37 Pt    0.00478   -0.00277   -0.00549
 38 Ag    0.00986   -0.01469    0.01695
 39 Pd   -0.02091   -0.03399   -0.01455
 40 Pd   -0.00853   -0.00145   -0.01090
 41 Ir    0.04963   -0.00935   -0.03959
 42 Ag   -0.01668   -0.04127   -0.06819
 43 Ir    0.01757   -0.02792    0.01034
 44 Ir   -0.03987   -0.02727   -0.02091
 45 O    -0.06657   -0.10918   -0.07669
 46 H     0.12641    0.04956    0.09634

System changes: positions 

Initializing position-dependent things.

Density initialized from wave functions
                                             
                                             
                                             
                                             
                   H                         
                 O                           
                                             
                                             
                 Ag      Ir    Ir            
                    Pd                       
            Pd     Ru     PIr    Ir          
        Ir    Pt    PAg    Pd                
                                             
        Ir     Pd    IAg    Ir     Pt        
                                             
                Ag     Ru     Pd             
           Pt     Ag    PPd    Ir            
                                             
            Pt     Pt    PPt    Ru           
       Ag     Ag     Ag                      
              Ru    Ir     Pt                
         Pd    Ir     Ru                     
                                             
                                             
                                             
                                             
                                             

Positions:
   0 Pd     0.000000    1.624086   10.000000    ( 0.0000,  0.0000,  0.0000)
   1 Ir     2.812999    1.624086   10.000000    ( 0.0000,  0.0000,  0.0000)
   2 Ru     5.625998    1.624086   10.000000    ( 0.0000,  0.0000,  0.0000)
   3 Ru     1.406500    4.060215   10.000000    ( 0.0000,  0.0000,  0.0000)
   4 Ir     4.219499    4.060215   10.000000    ( 0.0000,  0.0000,  0.0000)
   5 Pt     7.032498    4.060215   10.000000    ( 0.0000,  0.0000,  0.0000)
   6 Pd     2.812999    6.496343   10.000000    ( 0.0000,  0.0000,  0.0000)
   7 Pd     5.625998    6.496343   10.000000    ( 0.0000,  0.0000,  0.0000)
   8 Ru     8.438997    6.496343   10.000000    ( 0.0000,  0.0000,  0.0000)
   9 Ag     0.000000    0.000000   12.296804    ( 0.0000,  0.0000,  0.0000)
  10 Ag     2.812999    0.000000   12.296804    ( 0.0000,  0.0000,  0.0000)
  11 Ag     5.625998    0.000000   12.296804    ( 0.0000,  0.0000,  0.0000)
  12 Pt     1.406500    2.436129   12.296804    ( 0.0000,  0.0000,  0.0000)
  13 Pt     4.219499    2.436129   12.296804    ( 0.0000,  0.0000,  0.0000)
  14 Pt     7.032498    2.436129   12.296804    ( 0.0000,  0.0000,  0.0000)
  15 Ru     2.812999    4.872257   12.296804    ( 0.0000,  0.0000,  0.0000)
  16 Pt     5.625998    4.872257   12.296804    ( 0.0000,  0.0000,  0.0000)
  17 Ir     8.438997    4.872257   12.296804    ( 0.0000,  0.0000,  0.0000)
  18 Pt     1.328812    0.728381   14.649922    ( 0.0000,  0.0000,  0.0000)
  19 Ag     4.179807    0.768292   14.645920    ( 0.0000,  0.0000,  0.0000)
  20 Pd     6.997481    0.835113   14.624855    ( 0.0000,  0.0000,  0.0000)
  21 Ag     2.799491    3.182934   14.641308    ( 0.0000,  0.0000,  0.0000)
  22 Ru     5.657116    3.360053   14.466059    ( 0.0000,  0.0000,  0.0000)
  23 Pd     8.445474    3.185555   14.576115    ( 0.0000,  0.0000,  0.0000)
  24 Ir     4.201364    5.595253   14.570786    ( 0.0000,  0.0000,  0.0000)
  25 Ir     7.035046    5.554687   14.553779    ( 0.0000,  0.0000,  0.0000)
  26 Pt     9.855590    5.642656   14.597941    ( 0.0000,  0.0000,  0.0000)
  27 Ir    -0.063508    1.496990   16.923780    ( 0.0000,  0.0000,  0.0000)
  28 Pd     2.759585    1.572619   16.973945    ( 0.0000,  0.0000,  0.0000)
  29 Ag     5.536677    1.572082   16.918517    ( 0.0000,  0.0000,  0.0000)
  30 Pd     1.412010    4.003372   16.972659    ( 0.0000,  0.0000,  0.0000)
  31 Pd     4.190159    4.088567   16.888954    ( 0.0000,  0.0000,  0.0000)
  32 Pd     7.011335    3.954319   16.734292    ( 0.0000,  0.0000,  0.0000)
  33 Ru     2.843028    6.504046   16.791132    ( 0.0000,  0.0000,  0.0000)
  34 Pd     5.677805    6.435755   16.772450    ( 0.0000,  0.0000,  0.0000)
  35 Ir     8.580037    6.352425   16.939093    ( 0.0000,  0.0000,  0.0000)
  36 Ir     0.056885   -0.065783   18.942647    ( 0.0000,  0.0000,  0.0000)
  37 Pt     2.816042   -0.120350   19.123166    ( 0.0000,  0.0000,  0.0000)
  38 Ag     5.657283    0.017463   19.446182    ( 0.0000,  0.0000,  0.0000)
  39 Pd     1.342532    2.327324   19.257018    ( 0.0000,  0.0000,  0.0000)
  40 Pd     4.322710    2.512055   19.254634    ( 0.0000,  0.0000,  0.0000)
  41 Ir     7.171461    2.483744   19.011423    ( 0.0000,  0.0000,  0.0000)
  42 Ag     2.784698    4.890213   19.348404    ( 0.0000,  0.0000,  0.0000)
  43 Ir     5.709593    4.898155   19.020815    ( 0.0000,  0.0000,  0.0000)
  44 Ir     8.266820    4.813075   18.997815    ( 0.0000,  0.0000,  0.0000)
  45 O      2.758736    4.813505   21.436670    ( 0.0000,  0.0000,  0.0000)
  46 H      3.428352    5.454802   21.771331    ( 0.0000,  0.0000,  0.0000)

Unit cell:
           periodic     x           y           z      points  spacing
  1. axis:    yes    8.465341    0.000000    0.000000    35     0.2095
  2. axis:    yes    4.232670    7.331200    0.000000    35     0.2095
  3. axis:    no     0.000000    0.000000   29.187217   135     0.2162

  Lengths:   8.465341   8.465341  29.187217
  Angles:   90.000000  90.000000  60.000000

Effective grid spacing dv^(1/3) = 0.2221

                     log10-error:    total        iterations:
           time      wfs    density  energy       fermi  poisson
iter:   1  18:26:00  -3.29   +inf  -238.244767    3             
iter:   2  18:27:01  -2.74  -2.56  -247.019794    3             
iter:   3  18:28:01  -3.00  -1.69  -238.115678    3             
iter:   4  18:29:02  -4.16  -3.10  -238.098767    3             
iter:   5  18:30:03  -5.20  -3.28  -238.097603    3             
iter:   6  18:31:01  -5.65  -3.49  -238.095270    2             
iter:   7  18:32:01  -5.71  -3.62  -238.094374    2             
iter:   8  18:33:02  -5.60  -3.74  -238.095145    2             
iter:   9  18:34:02  -6.01  -3.46  -238.096015    2             
iter:  10  18:35:03  -6.01  -3.54  -238.093786    2             
iter:  11  18:36:02  -6.46  -3.97  -238.094760    2             
iter:  12  18:37:03  -6.86  -3.92  -238.094019    2             
iter:  13  18:38:15  -7.08  -4.07  -238.094246    2             
iter:  14  18:39:16  -6.77  -4.08  -238.094139    2             
iter:  15  18:40:04  -7.17  -3.97  -238.094405    2             
iter:  16  18:40:52  -7.22  -4.05  -238.094040    2             
iter:  17  18:41:46  -7.53  -4.30  -238.094198    2             

Converged after 17 iterations.

Dipole moment: (23.863345, 16.534736, -0.352069) |e|*Ang

Energy contributions relative to reference atoms: (reference = -12877860.274276)

Kinetic:       -221.000017
Potential:      +97.198246
External:        +0.000000
XC:            -106.252414
Entropy (-ST):   -2.293287
Local:           -6.893369
--------------------------
Free energy:   -239.240841
Extrapolated:  -238.094198

Fermi level: 0.89917

Showing only first 2 kpts
 Kpt  Band  Eigenvalues  Occupancy
  0   360      0.89298    0.12886
  0   361      0.91668    0.11408
  0   362      0.94273    0.09819
  0   363      0.96163    0.08718

  1   360      0.81075    0.17692
  1   361      0.83128    0.16587
  1   362      0.86166    0.14817
  1   363      0.88099    0.13633



Forces in eV/Ang:
  0 Pd   -0.12154    0.32639   -0.34675
  1 Ir    0.95080    0.68163    0.59689
  2 Ru   -1.08200    0.29061    0.69464
  3 Ru    0.42079    0.28005    1.60692
  4 Ir   -0.55818   -0.78950    1.18144
  5 Pt    0.15995    0.17285    0.05960
  6 Pd   -0.49519   -0.42177   -0.23696
  7 Pd    0.38622   -0.25878   -0.57465
  8 Ru    0.33513   -0.15545    0.55938
  9 Ag   -0.25884   -0.11748    0.05149
 10 Ag   -0.02547   -0.11666    0.03825
 11 Ag    0.08541   -0.18238   -0.12655
 12 Pt    0.08609    0.76021   -0.56527
 13 Pt    0.11449    0.52380   -0.73026
 14 Pt   -0.11661    0.16414   -0.21733
 15 Ru   -0.40147   -0.74500   -0.96553
 16 Pt   -0.43698    0.13974   -0.12455
 17 Ir    0.93279   -0.11010   -1.06980
 18 Pt   -0.00135   -0.01733    0.00125
 19 Ag    0.01237   -0.02958    0.03441
 20 Pd    0.00983   -0.00905    0.03866
 21 Ag   -0.00170   -0.02086   -0.00537
 22 Ru    0.01870   -0.01002    0.01424
 23 Pd   -0.00490   -0.03153    0.02769
 24 Ir    0.00455    0.01599    0.01090
 25 Ir   -0.01003    0.01382    0.04224
 26 Pt    0.00446    0.01770   -0.00117
 27 Ir   -0.01421    0.00327   -0.02480
 28 Pd    0.03091   -0.03765    0.01285
 29 Ag   -0.00985   -0.00169    0.00628
 30 Pd   -0.01817   -0.05787   -0.02597
 31 Pd    0.03518   -0.03592   -0.01997
 32 Pd   -0.00567   -0.02319   -0.01915
 33 Ru   -0.00669    0.00439   -0.04816
 34 Pd    0.02276   -0.04323   -0.01207
 35 Ir   -0.03322    0.03894    0.00642
 36 Ir    0.01397    0.00641    0.04397
 37 Pt    0.01978    0.01292   -0.01203
 38 Ag    0.01084   -0.01179    0.01261
 39 Pd    0.00055   -0.07600    0.00943
 40 Pd    0.02745   -0.04702   -0.02468
 41 Ir   -0.04965   -0.05993    0.00946
 42 Ag   -0.00976    0.02668   -0.02779
 43 Ir   -0.01443   -0.03557   -0.00243
 44 Ir    0.00696    0.03722   -0.03127
 45 O    -0.07657    0.00039   -0.04036
 46 H     0.07156    0.00789    0.03030

Timing:                                      incl.     excl.
-------------------------------------------------------------------
Density initialized from wave functions:    32.720    32.719   0.2% |
 Symmetrize density:                         0.001     0.001   0.0% |
Forces:                                    170.862   170.862   1.1% |
Hamiltonian:                                27.919     0.106   0.0% |
 Atomic:                                     6.145     3.212   0.0% |
  XC Correction:                             2.933     2.933   0.0% |
 Calculate atomic Hamiltonians:             11.973    11.973   0.1% |
 Communicate:                                1.014     1.014   0.0% |
 Initialize Hamiltonian:                     0.001     0.001   0.0% |
 Poisson:                                    0.050     0.050   0.0% |
 XC 3D grid:                                 8.630     8.630   0.1% |
LCAO initialization:                        57.581     4.129   0.0% |
 LCAO eigensolver:                           6.063     0.002   0.0% |
  Calculate projections:                     0.056     0.056   0.0% |
  DenseAtomicCorrection:                     0.068     0.068   0.0% |
  Distribute overlap matrix:                 0.016     0.016   0.0% |
  Orbital Layouts:                           0.561     0.561   0.0% |
  Potential matrix:                          5.319     5.319   0.0% |
  Sum over cells:                            0.041     0.041   0.0% |
 LCAO to grid:                              45.551    45.551   0.3% |
 Set positions (LCAO WFS):                   1.838     0.726   0.0% |
  Basic WFS set positions:                   0.002     0.002   0.0% |
  Basis functions set positions:             0.000     0.000   0.0% |
  P tci:                                     0.547     0.547   0.0% |
  ST tci:                                    0.419     0.419   0.0% |
  mktci:                                     0.145     0.145   0.0% |
PWDescriptor:                                0.056     0.056   0.0% |
Redistribute:                                0.081     0.081   0.0% |
SCF-cycle:                               15895.745  1017.501   6.3% |--|
 Davidson:                               13430.147  3120.416  19.2% |-------|
  Apply H:                                2252.623  2182.893  13.4% |----|
   HMM T:                                   69.730    69.730   0.4% |
  Subspace diag:                          1943.449     0.082   0.0% |
   calc_h_matrix:                         1121.502   364.598   2.2% ||
    Apply H:                               756.904   733.183   4.5% |-|
     HMM T:                                 23.721    23.721   0.1% |
   diagonalize:                             59.954    59.954   0.4% |
   rotate_psi:                             761.911   761.911   4.7% |-|
  calc. matrices:                         3992.309  2512.558  15.5% |-----|
   Apply H:                               1479.752  1433.474   8.8% |---|
    HMM T:                                  46.277    46.277   0.3% |
  diagonalize:                             638.745   638.745   3.9% |-|
  rotate_psi:                             1482.604  1482.604   9.1% |---|
 Density:                                  767.089     0.016   0.0% |
  Atomic density matrices:                   5.161     5.161   0.0% |
  Mix:                                     308.762   308.762   1.9% ||
  Multipole moments:                         0.254     0.254   0.0% |
  Pseudo density:                          452.895   452.875   2.8% ||
   Symmetrize density:                       0.020     0.020   0.0% |
 Hamiltonian:                              624.317     2.578   0.0% |
  Atomic:                                  140.728    75.286   0.5% |
   XC Correction:                           65.442    65.442   0.4% |
  Calculate atomic Hamiltonians:           253.722   253.722   1.6% ||
  Communicate:                              26.222    26.222   0.2% |
  Poisson:                                   1.171     1.171   0.0% |
  XC 3D grid:                              199.897   199.897   1.2% |
 Orthonormalize:                            56.692     0.006   0.0% |
  calc_s_matrix:                             7.626     7.626   0.0% |
  inverse-cholesky:                          1.887     1.887   0.0% |
  projections:                              30.972    30.972   0.2% |
  rotate_psi_s:                             16.201    16.201   0.1% |
Set symmetry:                                0.001     0.001   0.0% |
Other:                                      75.047    75.047   0.5% |
-------------------------------------------------------------------
Total:                                             16260.013 100.0%

Date: Thu Mar  3 18:42:03 2022
