
  ___ ___ ___ _ _ _  
 |   |   |_  | | | | 
 | | | | | . | | | | 
 |__ |  _|___|_____|  1.5.1
 |___|_|             

User:   clausen@node497.cluster
Date:   Thu Mar  3 14:18:29 2022
Arch:   x86_64
Pid:    27176
Python: 3.6.12
gpaw:   /software/kemi/gpaw/1.5.1/gpaw
_gpaw:  /software/kemi/gpaw/1.5.1/bin/gpaw-python
ase:    /software/kemi/ase/3.17.0/ase (version 3.17.0)
numpy:  /opt/rh/rh-python36/root/usr/lib64/python3.6/site-packages/numpy (version 1.13.1)
scipy:  /opt/rh/rh-python36/root/usr/lib64/python3.6/site-packages/scipy (version 0.19.1)
units:  Angstrom and eV
cores:  16

Input parameters:
  kpts: [4 4 1]
  mode: {ecut: 400.0,
         gammacentered: False,
         name: pw}
  xc: RPBE

System changes: positions, numbers, cell, pbc, initial_charges, initial_magmoms 

Initialize ...

Pd-setup:
  name: Palladium
  id: 6da19bfba079f22767af9506641940b9
  Z: 46
  valence: 16
  core: 30
  charge: 0.0
  file: /software/kemi/gpaw-setups/0.9.20000/Pd.RPBE.gz
  cutoffs: 1.19(comp), 2.38(filt), 2.28(core), lmax=2
  valence states:
                energy  radius
    5s(0.00)    -3.225   1.228
    4p(6.00)   -51.131   1.360
    5p(0.00)    -0.373   1.360
    4d(10.00)    -3.964   1.228
    *s          23.987   1.228
    *d          23.247   1.228

  Using partial waves for Pd as LCAO basis

Ir-setup:
  name: Iridium
  id: 73b603359d1d5397a85ae3c2440f9033
  Z: 77
  valence: 15
  core: 62
  charge: 0.0
  file: /software/kemi/gpaw-setups/0.9.20000/Ir.RPBE.gz
  cutoffs: 1.26(comp), 2.40(filt), 2.36(core), lmax=2
  valence states:
                energy  radius
    6s(2.00)    -6.219   1.296
    5p(6.00)   -54.684   1.328
    6p(0.00)    -1.215   1.328
    5d(7.00)    -7.118   1.286
    *s          20.992   1.296
    *d          20.093   1.286

  Using partial waves for Ir as LCAO basis

Ru-setup:
  name: Ruthenium
  id: 76477906e28f51dc1b29884d53556fe9
  Z: 44
  valence: 16
  core: 28
  charge: 0.0
  file: /software/kemi/gpaw-setups/0.9.20000/Ru.RPBE.gz
  cutoffs: 1.23(comp), 2.16(filt), 1.30(core), lmax=2
  valence states:
                energy  radius
    4s(2.00)   -76.255   1.281
    5s(1.00)    -4.126   1.281
    4p(6.00)   -46.371   1.286
    5p(0.00)    -0.913   1.286
    4d(7.00)    -5.146   1.254
    *d          22.066   1.254

  Using partial waves for Ru as LCAO basis

Pt-setup:
  name: Platinum
  id: f04f522592575c47ad794f6b4a415b4b
  Z: 78
  valence: 16
  core: 62
  charge: 0.0
  file: /software/kemi/gpaw-setups/0.9.20000/Pt.RPBE.gz
  cutoffs: 1.29(comp), 2.26(filt), 2.26(core), lmax=2
  valence states:
                energy  radius
    6s(1.00)    -5.516   1.307
    5p(6.00)   -55.971   1.371
    6p(0.00)    -0.856   1.371
    5d(9.00)    -6.087   1.307
    *s          21.695   1.307
    *d          21.125   1.307

  Using partial waves for Pt as LCAO basis

Ag-setup:
  name: Silver
  id: c05e55bab2c3858b3f9398f6d75cb77c
  Z: 47
  valence: 17
  core: 30
  charge: 0.0
  file: /software/kemi/gpaw-setups/0.9.20000/Ag.RPBE.gz
  cutoffs: 1.25(comp), 2.35(filt), 2.19(core), lmax=2
  valence states:
                energy  radius
    5s(1.00)    -4.277   1.286
    4p(6.00)   -58.523   1.328
    5p(0.00)    -0.755   1.328
    4d(10.00)    -7.386   1.180
    *s          22.934   1.286
    *d          19.826   1.180

  Using partial waves for Ag as LCAO basis

O-setup:
  name: Oxygen
  id: 08071ca1eed670e7821b24b7eb4d558c
  Z: 8
  valence: 6
  core: 2
  charge: 0.0
  file: /software/kemi/gpaw-setups/0.9.20000/O.RPBE.gz
  cutoffs: 0.67(comp), 1.17(filt), 0.83(core), lmax=2
  valence states:
                energy  radius
    2s(2.00)   -24.041   0.688
    2p(4.00)    -8.984   0.598
    *s           3.170   0.688
    *p          18.228   0.598
    *d           0.000   0.619

  Using partial waves for O as LCAO basis

H-setup:
  name: Hydrogen
  id: ea3f9156a1dc40d47a60fdce8f8bd75d
  Z: 1
  valence: 1
  core: 0
  charge: 0.0
  file: /software/kemi/gpaw-setups/0.9.20000/H.RPBE.gz
  cutoffs: 0.48(comp), 0.85(filt), 0.53(core), lmax=2
  valence states:
                energy  radius
    1s(1.00)    -6.572   0.476
    *s          20.639   0.476
    *p           0.000   0.476

  Using partial waves for H as LCAO basis

Reference energy: -12877860.274276

Spin-paired calculation

Occupation numbers:
  Fermi-Dirac: width=0.1000 eV

Convergence criteria:
  Maximum total energy change: 0.0005 eV / electron
  Maximum integral of absolute density change: 0.0001 electrons
  Maximum integral of absolute eigenstate change: 4e-08 eV^2
  Maximum number of iterations: 333

Symmetries present (total): 1

  ( 1  0  0)
  ( 0  1  0)
  ( 0  0  1)

16 k-points: 4 x 4 x 1 Monkhorst-Pack grid
8 k-points in the irreducible part of the Brillouin zone
       k-points in crystal coordinates                weights
   0:     0.12500000   -0.37500000    0.00000000          2/16
   1:     0.12500000   -0.12500000    0.00000000          2/16
   2:     0.12500000    0.12500000    0.00000000          2/16
   3:     0.12500000    0.37500000    0.00000000          2/16
   4:     0.37500000   -0.37500000    0.00000000          2/16
   5:     0.37500000   -0.12500000    0.00000000          2/16
   6:     0.37500000    0.12500000    0.00000000          2/16
   7:     0.37500000    0.37500000    0.00000000          2/16

Wave functions: Plane wave expansion
  Cutoff energy: 400.000 eV
  Number of coefficients (min, max): 32894, 32940
  Pulay-stress correction: 0.000000 eV/Ang^3 (de/decut=0.000000)
  Using FFTW library
  ScaLapack parameters: grid=1x1, blocksize=None
  Wavefunction extrapolation:
    Improved wavefunction reuse through dual PAW basis 

Eigensolver
   Davidson(niter=2, smin=None, normalize=True) 

Densities:
  Coarse grid: 35*35*135 grid
  Fine grid: 70*70*270 grid
  Total Charge: 0.000000 

Density mixing:
  Method: separate
  Backend: pulay
  Linear mixing parameter: 0.05
  Mixing with 5 old densities
  Damping of long wave oscillations: 50 

Hamiltonian:
  XC and Coulomb potentials evaluated on a 70*70*270 grid
  Using the RPBE Exchange-Correlation functional
 

XC parameters: RPBE with 2 nearest neighbor stencil

Memory estimate:
  Process memory now: 150.56 MiB
  Calculator: 554.76 MiB
    Density: 54.46 MiB
      Arrays: 16.41 MiB
      Localized functions: 31.69 MiB
      Mixer: 6.36 MiB
    Hamiltonian: 11.75 MiB
      Arrays: 10.73 MiB
      XC: 0.00 MiB
      Poisson: 0.00 MiB
      vbar: 1.03 MiB
    Wavefunctions: 488.54 MiB
      Arrays psit_nG: 220.65 MiB
      Eigensolver: 252.59 MiB
      Projections: 2.77 MiB
      Projectors: 5.91 MiB
      PW-descriptor: 6.62 MiB

Total number of cores used: 16
Parallelization over k-points: 8
Domain decomposition: 1 x 1 x 2

Number of atoms: 47
Number of atomic orbitals: 551
Number of bands in calculation: 439
Bands to converge: occupied states only
Number of valence electrons: 724

... initialized

Initializing position-dependent things.

Density initialized from atomic densities
Creating initial wave functions:
  439 bands from LCAO basis set

                                             
                                             
                                             
                                             
                                 H           
                               O             
                                             
                                             
                  Ag     Ir    Ir            
            Pd      Pd                       
                   Ru     PIr    Ir          
        Ir    Pt    PAg                      
                           Pd                
        Ir     Pd    IAg    Ir     Pt        
                                             
                Ag     Ru     Pd             
           Pt     Ag    PPd    Ir            
                                             
            Pt     Pt    PPt    Ru           
       Ag     Ag     Ag                      
              Ru    Ir     Pt                
         Pd    Ir     Ru                     
                                             
                                             
                                             
                                             
                                             

Positions:
   0 Pd     0.000000    1.624086   10.000000    ( 0.0000,  0.0000,  0.0000)
   1 Ir     2.812999    1.624086   10.000000    ( 0.0000,  0.0000,  0.0000)
   2 Ru     5.625998    1.624086   10.000000    ( 0.0000,  0.0000,  0.0000)
   3 Ru     1.406500    4.060215   10.000000    ( 0.0000,  0.0000,  0.0000)
   4 Ir     4.219499    4.060215   10.000000    ( 0.0000,  0.0000,  0.0000)
   5 Pt     7.032498    4.060215   10.000000    ( 0.0000,  0.0000,  0.0000)
   6 Pd     2.812999    6.496343   10.000000    ( 0.0000,  0.0000,  0.0000)
   7 Pd     5.625998    6.496343   10.000000    ( 0.0000,  0.0000,  0.0000)
   8 Ru     8.438997    6.496343   10.000000    ( 0.0000,  0.0000,  0.0000)
   9 Ag     0.000000    0.000000   12.296804    ( 0.0000,  0.0000,  0.0000)
  10 Ag     2.812999    0.000000   12.296804    ( 0.0000,  0.0000,  0.0000)
  11 Ag     5.625998    0.000000   12.296804    ( 0.0000,  0.0000,  0.0000)
  12 Pt     1.406500    2.436129   12.296804    ( 0.0000,  0.0000,  0.0000)
  13 Pt     4.219499    2.436129   12.296804    ( 0.0000,  0.0000,  0.0000)
  14 Pt     7.032498    2.436129   12.296804    ( 0.0000,  0.0000,  0.0000)
  15 Ru     2.812999    4.872257   12.296804    ( 0.0000,  0.0000,  0.0000)
  16 Pt     5.625998    4.872257   12.296804    ( 0.0000,  0.0000,  0.0000)
  17 Ir     8.438997    4.872257   12.296804    ( 0.0000,  0.0000,  0.0000)
  18 Pt     1.331112    0.739375   14.657283    ( 0.0000,  0.0000,  0.0000)
  19 Ag     4.181622    0.793852   14.645499    ( 0.0000,  0.0000,  0.0000)
  20 Pd     7.001587    0.862206   14.620346    ( 0.0000,  0.0000,  0.0000)
  21 Ag     2.800841    3.198617   14.645984    ( 0.0000,  0.0000,  0.0000)
  22 Ru     5.661352    3.374873   14.464570    ( 0.0000,  0.0000,  0.0000)
  23 Pd     8.454364    3.209063   14.568969    ( 0.0000,  0.0000,  0.0000)
  24 Ir     4.203312    5.613553   14.568997    ( 0.0000,  0.0000,  0.0000)
  25 Ir     7.031881    5.578044   14.561300    ( 0.0000,  0.0000,  0.0000)
  26 Pt     9.857688    5.665883   14.596939    ( 0.0000,  0.0000,  0.0000)
  27 Ir    -0.077764    1.506761   16.938800    ( 0.0000,  0.0000,  0.0000)
  28 Pd     2.746751    1.593087   16.991368    ( 0.0000,  0.0000,  0.0000)
  29 Ag     5.532334    1.594992   16.918159    ( 0.0000,  0.0000,  0.0000)
  30 Pd     1.401555    4.031321   16.973309    ( 0.0000,  0.0000,  0.0000)
  31 Pd     4.186062    4.107308   16.892321    ( 0.0000,  0.0000,  0.0000)
  32 Pd     7.007491    3.969527   16.736476    ( 0.0000,  0.0000,  0.0000)
  33 Ru     2.845276    6.541012   16.753610    ( 0.0000,  0.0000,  0.0000)
  34 Pd     5.662228    6.450069   16.794393    ( 0.0000,  0.0000,  0.0000)
  35 Ir     8.552515    6.378355   16.920371    ( 0.0000,  0.0000,  0.0000)
  36 Ir     0.061963   -0.029589   18.981657    ( 0.0000,  0.0000,  0.0000)
  37 Pt     2.802470   -0.097062   19.141410    ( 0.0000,  0.0000,  0.0000)
  38 Ag     5.661265    0.013033   19.406409    ( 0.0000,  0.0000,  0.0000)
  39 Pd     1.350042    2.376862   19.278970    ( 0.0000,  0.0000,  0.0000)
  40 Pd     4.315258    2.518491   19.256067    ( 0.0000,  0.0000,  0.0000)
  41 Ir     7.173708    2.513849   19.018418    ( 0.0000,  0.0000,  0.0000)
  42 Ag     2.809713    4.893314   19.379442    ( 0.0000,  0.0000,  0.0000)
  43 Ir     5.700233    4.913916   19.039342    ( 0.0000,  0.0000,  0.0000)
  44 Ir     8.278779    4.849064   19.000358    ( 0.0000,  0.0000,  0.0000)
  45 O      8.278779    4.849064   21.406409    ( 0.0000,  0.0000,  0.0000)
  46 H      8.928779    5.499064   21.806409    ( 0.0000,  0.0000,  0.0000)

Unit cell:
           periodic     x           y           z      points  spacing
  1. axis:    yes    8.465341    0.000000    0.000000    35     0.2095
  2. axis:    yes    4.232670    7.331200    0.000000    35     0.2095
  3. axis:    no     0.000000    0.000000   29.187217   135     0.2162

  Lengths:   8.465341   8.465341  29.187217
  Angles:   90.000000  90.000000  60.000000

Effective grid spacing dv^(1/3) = 0.2221

                     log10-error:    total        iterations:
           time      wfs    density  energy       fermi  poisson
iter:   1  14:21:35  +0.33   +inf  -325.308111    2             
iter:   2  14:22:48  -0.56  -1.16  -404.750330    35            
iter:   3  14:24:01  -0.63  -1.08  -353.653911    3             
iter:   4  14:25:13  -1.30  -1.14  -270.853339    33            
iter:   5  14:26:26  -1.72  -1.35  -250.855545    35            
iter:   6  14:27:40  -1.92  -1.44  -246.476782    37            
iter:   7  14:28:51  -2.20  -1.49  -243.697886    3             
iter:   8  14:30:00  -2.30  -1.55  -240.524468    3             
iter:   9  14:31:10  -2.01  -1.69  -243.369590    3             
iter:  10  14:32:18  -2.62  -1.68  -239.188684    3             
iter:  11  14:33:28  -2.73  -1.90  -238.970728    3             
iter:  12  14:34:41  -2.78  -1.99  -238.980659    3             
iter:  13  14:35:52  -3.11  -2.11  -239.105835    3             
iter:  14  14:37:03  -3.55  -2.12  -238.855772    3             
iter:  15  14:38:32  -3.06  -2.21  -238.542432    2             
iter:  16  14:40:01  -3.45  -2.45  -238.727289    3             
iter:  17  14:41:31  -3.29  -2.37  -238.481624    3             
iter:  18  14:43:00  -4.05  -2.69  -238.459440    3             
iter:  19  14:44:29  -4.39  -2.81  -238.445277    2             
iter:  20  14:45:58  -4.57  -2.87  -238.477326    2             
iter:  21  14:47:27  -4.32  -2.73  -238.435296    3             
iter:  22  14:48:40  -4.73  -3.02  -238.436678    3             
iter:  23  14:49:54  -4.72  -3.09  -238.434687    2             
iter:  24  14:51:08  -5.32  -3.15  -238.438832    2             
iter:  25  14:52:22  -5.23  -3.14  -238.434912    2             
iter:  26  14:53:34  -5.53  -3.19  -238.435949    2             
iter:  27  14:54:47  -5.44  -3.19  -238.433795    2             
iter:  28  14:56:00  -5.66  -3.27  -238.432899    2             
iter:  29  14:57:13  -5.91  -3.41  -238.431920    2             
iter:  30  14:58:26  -5.27  -3.45  -238.438093    2             
iter:  31  14:59:35  -5.84  -3.32  -238.431938    2             
iter:  32  15:00:43  -6.21  -3.51  -238.432195    2             
iter:  33  15:01:51  -6.56  -3.55  -238.431730    2             
iter:  34  15:02:58  -6.59  -3.63  -238.431889    2             
iter:  35  15:04:06  -6.52  -3.67  -238.431679    2             
iter:  36  15:05:16  -6.24  -3.70  -238.432501    2             
iter:  37  15:06:24  -6.15  -3.72  -238.431579    2             
iter:  38  15:07:29  -6.26  -3.50  -238.431728    2             
iter:  39  15:08:36  -6.68  -3.74  -238.431537    2             
iter:  40  15:09:47  -7.06  -3.95  -238.431696    2             
iter:  41  15:10:56  -7.40  -3.99  -238.431630    2             
iter:  42  15:12:26  -7.03  -4.04  -238.431875    2             
iter:  43  15:13:56  -6.53  -4.06  -238.431462    2             
iter:  44  15:15:26  -6.56  -3.63  -238.431583    2             
iter:  45  15:16:56  -7.40  -4.13  -238.431621    2             

Converged after 45 iterations.

Dipole moment: (24.016615, 16.230884, -0.245345) |e|*Ang

Energy contributions relative to reference atoms: (reference = -12877860.274276)

Kinetic:       -234.143698
Potential:     +108.583337
External:        +0.000000
XC:            -104.844516
Entropy (-ST):   -2.272214
Local:           -6.890636
--------------------------
Free energy:   -239.567728
Extrapolated:  -238.431621

Fermi level: 0.94681

Showing only first 2 kpts
 Kpt  Band  Eigenvalues  Occupancy
  0   360      0.93012    0.13541
  0   361      0.94933    0.12343
  0   362      0.98324    0.10248
  0   363      1.01302    0.08507

  1   360      0.85607    0.17812
  1   361      0.88177    0.16428
  1   362      0.91083    0.14725
  1   363      0.93412    0.13292



Forces in eV/Ang:
  0 Pd   -0.12301    0.33518   -0.34625
  1 Ir    0.96595    0.70502    0.62563
  2 Ru   -1.08438    0.29813    0.68677
  3 Ru    0.42868    0.29557    1.61005
  4 Ir   -0.57335   -0.79967    1.14753
  5 Pt    0.14742    0.16112    0.05846
  6 Pd   -0.49456   -0.42913   -0.24344
  7 Pd    0.38832   -0.27412   -0.57872
  8 Ru    0.33772   -0.16010    0.54313
  9 Ag   -0.23828   -0.09473    0.05838
 10 Ag   -0.02789   -0.10998    0.04948
 11 Ag    0.07764   -0.17009   -0.13897
 12 Pt    0.09428    0.75681   -0.54743
 13 Pt    0.11788    0.58233   -0.75469
 14 Pt   -0.10370    0.21020   -0.17927
 15 Ru   -0.39199   -0.74257   -0.96285
 16 Pt   -0.41150    0.19300   -0.14441
 17 Ir    0.89290   -0.09802   -1.04613
 18 Pt    0.00369   -0.00230    0.00455
 19 Ag   -0.01543   -0.02656    0.00513
 20 Pd   -0.01564   -0.03363    0.03600
 21 Ag   -0.00527   -0.00848   -0.00885
 22 Ru   -0.08861   -0.08149   -0.10151
 23 Pd   -0.06265   -0.02985    0.05626
 24 Ir    0.02375   -0.04726   -0.00583
 25 Ir   -0.02290   -0.01658    0.09201
 26 Pt   -0.00331    0.00167    0.02024
 27 Ir    0.00113   -0.03264    0.00290
 28 Pd    0.03348   -0.05802   -0.04137
 29 Ag   -0.03431   -0.00223   -0.01130
 30 Pd   -0.09361    0.01589   -0.00678
 31 Pd    0.02127   -0.03949   -0.01619
 32 Pd    0.13286    0.07705    0.22356
 33 Ru   -0.02703   -0.04421    0.01943
 34 Pd    0.02745    0.02798   -0.04269
 35 Ir   -0.01172   -0.11962   -0.06185
 36 Ir   -0.00074   -0.08366   -0.01190
 37 Pt   -0.05128    0.11882   -0.10597
 38 Ag    0.09259    0.09523   -0.07359
 39 Pd   -0.01168   -0.09961   -0.02273
 40 Pd   -0.01688   -0.00235   -0.01334
 41 Ir   -0.08112   -0.25858   -0.08729
 42 Ag    0.06188   -0.02007   -0.04072
 43 Ir   -0.20432    0.00589   -0.10798
 44 Ir    0.39932    0.22141    2.44954
 45 O     0.41212    0.13307   -1.52077
 46 H    -0.30716   -0.30850   -0.53694

System changes: positions 

Initializing position-dependent things.

Density initialized from wave functions
                                             
                                             
                                             
                                             
                                 H           
                               O             
                                             
                                             
                  Ag     Ir    Ir            
            Pd      Pd                       
                   Ru     PIr    Ir          
        Ir    Pt    PAg    Pd                
                                             
        Ir     Pd    IAg    Ir     Pt        
                                             
                Ag     Ru     Pd             
           Pt     Ag    PPd    Ir            
                                             
            Pt     Pt    PPt    Ru           
       Ag     Ag     Ag                      
              Ru    Ir     Pt                
         Pd    Ir     Ru                     
                                             
                                             
                                             
                                             
                                             

Positions:
   0 Pd     0.000000    1.624086   10.000000    ( 0.0000,  0.0000,  0.0000)
   1 Ir     2.812999    1.624086   10.000000    ( 0.0000,  0.0000,  0.0000)
   2 Ru     5.625998    1.624086   10.000000    ( 0.0000,  0.0000,  0.0000)
   3 Ru     1.406500    4.060215   10.000000    ( 0.0000,  0.0000,  0.0000)
   4 Ir     4.219499    4.060215   10.000000    ( 0.0000,  0.0000,  0.0000)
   5 Pt     7.032498    4.060215   10.000000    ( 0.0000,  0.0000,  0.0000)
   6 Pd     2.812999    6.496343   10.000000    ( 0.0000,  0.0000,  0.0000)
   7 Pd     5.625998    6.496343   10.000000    ( 0.0000,  0.0000,  0.0000)
   8 Ru     8.438997    6.496343   10.000000    ( 0.0000,  0.0000,  0.0000)
   9 Ag     0.000000    0.000000   12.296804    ( 0.0000,  0.0000,  0.0000)
  10 Ag     2.812999    0.000000   12.296804    ( 0.0000,  0.0000,  0.0000)
  11 Ag     5.625998    0.000000   12.296804    ( 0.0000,  0.0000,  0.0000)
  12 Pt     1.406500    2.436129   12.296804    ( 0.0000,  0.0000,  0.0000)
  13 Pt     4.219499    2.436129   12.296804    ( 0.0000,  0.0000,  0.0000)
  14 Pt     7.032498    2.436129   12.296804    ( 0.0000,  0.0000,  0.0000)
  15 Ru     2.812999    4.872257   12.296804    ( 0.0000,  0.0000,  0.0000)
  16 Pt     5.625998    4.872257   12.296804    ( 0.0000,  0.0000,  0.0000)
  17 Ir     8.438997    4.872257   12.296804    ( 0.0000,  0.0000,  0.0000)
  18 Pt     1.331409    0.739190   14.657649    ( 0.0000,  0.0000,  0.0000)
  19 Ag     4.180384    0.791720   14.645911    ( 0.0000,  0.0000,  0.0000)
  20 Pd     7.000332    0.859507   14.623236    ( 0.0000,  0.0000,  0.0000)
  21 Ag     2.800417    3.197936   14.645274    ( 0.0000,  0.0000,  0.0000)
  22 Ru     5.654240    3.368332   14.456422    ( 0.0000,  0.0000,  0.0000)
  23 Pd     8.449335    3.206667   14.573485    ( 0.0000,  0.0000,  0.0000)
  24 Ir     4.205219    5.609759   14.568529    ( 0.0000,  0.0000,  0.0000)
  25 Ir     7.030043    5.576713   14.568685    ( 0.0000,  0.0000,  0.0000)
  26 Pt     9.857422    5.666017   14.598563    ( 0.0000,  0.0000,  0.0000)
  27 Ir    -0.077673    1.504142   16.939033    ( 0.0000,  0.0000,  0.0000)
  28 Pd     2.749438    1.588430   16.988047    ( 0.0000,  0.0000,  0.0000)
  29 Ag     5.529580    1.594813   16.917252    ( 0.0000,  0.0000,  0.0000)
  30 Pd     1.394042    4.032596   16.972765    ( 0.0000,  0.0000,  0.0000)
  31 Pd     4.187770    4.104139   16.891021    ( 0.0000,  0.0000,  0.0000)
  32 Pd     7.018155    3.975711   16.754421    ( 0.0000,  0.0000,  0.0000)
  33 Ru     2.843106    6.537464   16.755170    ( 0.0000,  0.0000,  0.0000)
  34 Pd     5.664431    6.452315   16.790966    ( 0.0000,  0.0000,  0.0000)
  35 Ir     8.551574    6.368754   16.915406    ( 0.0000,  0.0000,  0.0000)
  36 Ir     0.061903   -0.036304   18.980702    ( 0.0000,  0.0000,  0.0000)
  37 Pt     2.798354   -0.087525   19.132905    ( 0.0000,  0.0000,  0.0000)
  38 Ag     5.668697    0.020677   19.400503    ( 0.0000,  0.0000,  0.0000)
  39 Pd     1.349104    2.368867   19.277145    ( 0.0000,  0.0000,  0.0000)
  40 Pd     4.313903    2.518303   19.254996    ( 0.0000,  0.0000,  0.0000)
  41 Ir     7.167197    2.493094   19.011412    ( 0.0000,  0.0000,  0.0000)
  42 Ag     2.814680    4.891703   19.376174    ( 0.0000,  0.0000,  0.0000)
  43 Ir     5.683833    4.914389   19.030675    ( 0.0000,  0.0000,  0.0000)
  44 Ir     8.310831    4.866835   19.196972    ( 0.0000,  0.0000,  0.0000)
  45 O      8.311858    4.859744   21.284344    ( 0.0000,  0.0000,  0.0000)
  46 H      8.904125    5.474301   21.763312    ( 0.0000,  0.0000,  0.0000)

Unit cell:
           periodic     x           y           z      points  spacing
  1. axis:    yes    8.465341    0.000000    0.000000    35     0.2095
  2. axis:    yes    4.232670    7.331200    0.000000    35     0.2095
  3. axis:    no     0.000000    0.000000   29.187217   135     0.2162

  Lengths:   8.465341   8.465341  29.187217
  Angles:   90.000000  90.000000  60.000000

Effective grid spacing dv^(1/3) = 0.2221

                     log10-error:    total        iterations:
           time      wfs    density  energy       fermi  poisson
iter:   1  15:19:07  -1.81   +inf  -242.876882    4             
iter:   2  15:20:37  -1.85  -2.02  -253.445546    35            
iter:   3  15:21:56  -1.60  -1.65  -293.862382    3             
iter:   4  15:23:10  -2.07  -1.37  -239.729162    35            
iter:   5  15:24:24  -3.29  -2.30  -239.263724    3             
iter:   6  15:25:39  -3.66  -2.57  -239.204782    3             
iter:   7  15:26:53  -3.84  -2.54  -239.218674    3             
iter:   8  15:28:06  -3.73  -2.51  -239.097289    3             
iter:   9  15:29:20  -4.09  -2.66  -239.119336    3             
iter:  10  15:30:33  -3.69  -2.58  -239.160675    3             
iter:  11  15:31:47  -4.06  -2.53  -239.023067    3             
iter:  12  15:33:00  -4.36  -2.84  -238.992992    2             
iter:  13  15:34:14  -4.97  -3.09  -238.988947    2             
iter:  14  15:35:26  -5.22  -3.17  -238.987253    3             
iter:  15  15:36:38  -4.83  -3.16  -238.984810    3             
iter:  16  15:37:49  -5.08  -3.21  -238.996225    3             
iter:  17  15:39:01  -5.00  -3.08  -238.981729    3             
iter:  18  15:40:12  -5.49  -3.41  -238.981295    2             
iter:  19  15:41:24  -5.85  -3.65  -238.981877    2             
iter:  20  15:42:35  -6.12  -3.71  -238.981956    2             
iter:  21  15:43:47  -6.39  -3.54  -238.981557    2             
iter:  22  15:44:59  -6.15  -3.83  -238.983640    2             
iter:  23  15:46:14  -6.28  -3.54  -238.980933    2             
iter:  24  15:47:44  -6.37  -3.75  -238.981440    2             
iter:  25  15:49:15  -6.63  -4.08  -238.981510    2             
iter:  26  15:50:46  -6.52  -4.07  -238.981102    2             
iter:  27  15:52:16  -6.87  -3.97  -238.981305    2             
iter:  28  15:53:47  -6.95  -4.18  -238.981331    2             
iter:  29  15:55:17  -6.90  -4.18  -238.980783    2             
iter:  30  15:56:47  -7.61  -4.17  -238.981018    2             

Converged after 30 iterations.

Dipole moment: (23.182509, 15.679680, -0.028884) |e|*Ang

Energy contributions relative to reference atoms: (reference = -12877860.274276)

Kinetic:       -234.545266
Potential:     +108.503713
External:        +0.000000
XC:            -104.918124
Entropy (-ST):   -2.283132
Local:           -6.879775
--------------------------
Free energy:   -240.122584
Extrapolated:  -238.981018

Fermi level: 1.04455

Showing only first 2 kpts
 Kpt  Band  Eigenvalues  Occupancy
  0   360      1.02942    0.13444
  0   361      1.04456    0.12500
  0   362      1.08192    0.10191
  0   363      1.10501    0.08832

  1   360      0.93691    0.18645
  1   361      0.97157    0.16869
  1   362      0.99894    0.15302
  1   363      1.03078    0.13359



Forces in eV/Ang:
  0 Pd   -0.12934    0.32476   -0.35330
  1 Ir    0.97554    0.69814    0.63008
  2 Ru   -1.07700    0.28354    0.68066
  3 Ru    0.42986    0.30194    1.61538
  4 Ir   -0.57514   -0.80011    1.15332
  5 Pt    0.14942    0.15523    0.06026
  6 Pd   -0.49837   -0.41805   -0.24009
  7 Pd    0.38340   -0.26610   -0.57009
  8 Ru    0.34411   -0.14917    0.54633
  9 Ag   -0.24611   -0.09251    0.06040
 10 Ag   -0.02558   -0.11832    0.05803
 11 Ag    0.08069   -0.17048   -0.13159
 12 Pt    0.07684    0.75495   -0.52791
 13 Pt    0.10439    0.56724   -0.75082
 14 Pt   -0.08381    0.18935   -0.17753
 15 Ru   -0.39640   -0.73877   -0.96002
 16 Pt   -0.39825    0.21976   -0.16002
 17 Ir    0.89164   -0.11131   -1.02994
 18 Pt   -0.02380    0.01142   -0.02137
 19 Ag   -0.00129   -0.02879   -0.00514
 20 Pd   -0.01382   -0.02360    0.00482
 21 Ag   -0.04596   -0.00756    0.02016
 22 Ru   -0.00918   -0.04828    0.02782
 23 Pd   -0.05014   -0.02086    0.06593
 24 Ir    0.00074   -0.02086   -0.00438
 25 Ir   -0.00279   -0.06811    0.13418
 26 Pt    0.00972   -0.03323    0.03172
 27 Ir   -0.00084    0.00646   -0.03676
 28 Pd    0.01664    0.00519   -0.04816
 29 Ag   -0.01860    0.02721   -0.05765
 30 Pd   -0.22554    0.07272    0.26185
 31 Pd    0.04774   -0.04521   -0.04573
 32 Pd    0.18910    0.15794    0.36400
 33 Ru   -0.06445   -0.07859   -0.00390
 34 Pd    0.02501   -0.01216   -0.02289
 35 Ir   -0.09538   -0.24021    0.24827
 36 Ir   -0.01417   -0.10526   -0.05057
 37 Pt    0.00015    0.03163   -0.09616
 38 Ag    0.06098    0.06904   -0.06780
 39 Pd    0.00398   -0.03580   -0.03775
 40 Pd   -0.02981   -0.01836   -0.03197
 41 Ir    0.10433    0.08210    0.02094
 42 Ag    0.03617   -0.02343   -0.04143
 43 Ir    0.18680    0.03208   -0.11134
 44 Ir   -0.00732   -0.06105    0.86529
 45 O    -0.41935   -0.69926   -0.99248
 46 H     0.35208    0.35357   -0.24184

System changes: positions 

Initializing position-dependent things.

Density initialized from wave functions
                                             
                                             
                                             
                                             
                                 H           
                                             
                               O             
                                             
                  Ag     Ir    Ir            
            Pd      Pd                       
                   Ru     PIr   Ir           
        Ir   PPt    PAg    Pd                
                                             
        Ir     Pd    IAg    Ir     Pt        
                Ag                           
                       Ru     Pd             
           Pt     Ag    PPd    Ir            
                                             
            Pt     Pt    PPt    Ru           
       Ag     Ag     Ag                      
              Ru    Ir     Pt                
         Pd    Ir     Ru                     
                                             
                                             
                                             
                                             
                                             

Positions:
   0 Pd     0.000000    1.624086   10.000000    ( 0.0000,  0.0000,  0.0000)
   1 Ir     2.812999    1.624086   10.000000    ( 0.0000,  0.0000,  0.0000)
   2 Ru     5.625998    1.624086   10.000000    ( 0.0000,  0.0000,  0.0000)
   3 Ru     1.406500    4.060215   10.000000    ( 0.0000,  0.0000,  0.0000)
   4 Ir     4.219499    4.060215   10.000000    ( 0.0000,  0.0000,  0.0000)
   5 Pt     7.032498    4.060215   10.000000    ( 0.0000,  0.0000,  0.0000)
   6 Pd     2.812999    6.496343   10.000000    ( 0.0000,  0.0000,  0.0000)
   7 Pd     5.625998    6.496343   10.000000    ( 0.0000,  0.0000,  0.0000)
   8 Ru     8.438997    6.496343   10.000000    ( 0.0000,  0.0000,  0.0000)
   9 Ag     0.000000    0.000000   12.296804    ( 0.0000,  0.0000,  0.0000)
  10 Ag     2.812999    0.000000   12.296804    ( 0.0000,  0.0000,  0.0000)
  11 Ag     5.625998    0.000000   12.296804    ( 0.0000,  0.0000,  0.0000)
  12 Pt     1.406500    2.436129   12.296804    ( 0.0000,  0.0000,  0.0000)
  13 Pt     4.219499    2.436129   12.296804    ( 0.0000,  0.0000,  0.0000)
  14 Pt     7.032498    2.436129   12.296804    ( 0.0000,  0.0000,  0.0000)
  15 Ru     2.812999    4.872257   12.296804    ( 0.0000,  0.0000,  0.0000)
  16 Pt     5.625998    4.872257   12.296804    ( 0.0000,  0.0000,  0.0000)
  17 Ir     8.438997    4.872257   12.296804    ( 0.0000,  0.0000,  0.0000)
  18 Pt     1.328530    0.740554   14.655106    ( 0.0000,  0.0000,  0.0000)
  19 Ag     4.179692    0.787175   14.645438    ( 0.0000,  0.0000,  0.0000)
  20 Pd     6.998051    0.855375   14.625078    ( 0.0000,  0.0000,  0.0000)
  21 Ag     2.794433    3.196691   14.647516    ( 0.0000,  0.0000,  0.0000)
  22 Ru     5.650045    3.359444   14.456457    ( 0.0000,  0.0000,  0.0000)
  23 Pd     8.440857    3.203010   14.583738    ( 0.0000,  0.0000,  0.0000)
  24 Ir     4.206127    5.605506   14.567776    ( 0.0000,  0.0000,  0.0000)
  25 Ir     7.028906    5.567544   14.588781    ( 0.0000,  0.0000,  0.0000)
  26 Pt     9.858536    5.661878   14.603262    ( 0.0000,  0.0000,  0.0000)
  27 Ir    -0.077740    1.503839   16.934491    ( 0.0000,  0.0000,  0.0000)
  28 Pd     2.752685    1.587097   16.980548    ( 0.0000,  0.0000,  0.0000)
  29 Ag     5.526056    1.598172   16.909585    ( 0.0000,  0.0000,  0.0000)
  30 Pd     1.362355    4.042322   17.005599    ( 0.0000,  0.0000,  0.0000)
  31 Pd     4.194528    4.097078   16.884692    ( 0.0000,  0.0000,  0.0000)
  32 Pd     7.046584    3.998294   16.808044    ( 0.0000,  0.0000,  0.0000)
  33 Ru     2.834041    6.526025   16.755342    ( 0.0000,  0.0000,  0.0000)
  34 Pd     5.668529    6.451738   16.786613    ( 0.0000,  0.0000,  0.0000)
  35 Ir     8.539128    6.334323   16.944639    ( 0.0000,  0.0000,  0.0000)
  36 Ir     0.060088   -0.052463   18.973908    ( 0.0000,  0.0000,  0.0000)
  37 Pt     2.796616   -0.079461   19.117132    ( 0.0000,  0.0000,  0.0000)
  38 Ag     5.679569    0.032658   19.389421    ( 0.0000,  0.0000,  0.0000)
  39 Pd     1.349206    2.360934   19.271600    ( 0.0000,  0.0000,  0.0000)
  40 Pd     4.309560    2.515903   19.250502    ( 0.0000,  0.0000,  0.0000)
  41 Ir     7.177592    2.494602   19.011066    ( 0.0000,  0.0000,  0.0000)
  42 Ag     2.821367    4.888057   19.369548    ( 0.0000,  0.0000,  0.0000)
  43 Ir     5.700423    4.918642   19.012917    ( 0.0000,  0.0000,  0.0000)
  44 Ir     8.323585    4.866710   19.390149    ( 0.0000,  0.0000,  0.0000)
  45 O      8.273021    4.776002   21.106921    ( 0.0000,  0.0000,  0.0000)
  46 H      8.938064    5.508381   21.714380    ( 0.0000,  0.0000,  0.0000)

Unit cell:
           periodic     x           y           z      points  spacing
  1. axis:    yes    8.465341    0.000000    0.000000    35     0.2095
  2. axis:    yes    4.232670    7.331200    0.000000    35     0.2095
  3. axis:    no     0.000000    0.000000   29.187217   135     0.2162

  Lengths:   8.465341   8.465341  29.187217
  Angles:   90.000000  90.000000  60.000000

Effective grid spacing dv^(1/3) = 0.2221

                     log10-error:    total        iterations:
           time      wfs    density  energy       fermi  poisson
iter:   1  15:58:41  -1.59   +inf  -240.232875    36            
iter:   2  15:59:55  -2.15  -2.07  -253.453523    4             
iter:   3  16:01:08  -2.20  -1.61  -245.330553    3             
iter:   4  16:02:22  -2.78  -1.75  -238.538405    4             
iter:   5  16:03:35  -3.66  -2.35  -238.240374    2             
iter:   6  16:04:49  -3.50  -2.52  -238.164565    3             
iter:   7  16:06:03  -3.51  -2.50  -238.132547    3             
iter:   8  16:07:17  -3.65  -2.52  -237.996606    3             
iter:   9  16:08:31  -3.29  -2.64  -239.864056    3             
iter:  10  16:09:43  -3.39  -2.00  -237.976826    3             
iter:  11  16:10:53  -4.30  -2.68  -237.926715    2             
iter:  12  16:12:05  -4.74  -2.88  -237.908338    3             
iter:  13  16:13:17  -4.81  -2.97  -237.913334    3             
iter:  14  16:14:29  -4.71  -2.99  -237.899483    2             
iter:  15  16:15:41  -4.41  -3.19  -238.021811    3             
iter:  16  16:16:53  -4.75  -2.57  -237.896142    2             
iter:  17  16:18:07  -5.71  -3.31  -237.894968    2             
iter:  18  16:19:23  -5.37  -3.38  -237.894836    2             
iter:  19  16:20:37  -5.62  -3.32  -237.894321    2             
iter:  20  16:21:53  -5.71  -3.43  -237.893737    2             
iter:  21  16:23:05  -5.44  -3.44  -237.893592    2             
iter:  22  16:24:36  -4.59  -3.45  -238.007793    2             
iter:  23  16:26:07  -4.86  -2.61  -237.892128    2             
iter:  24  16:27:38  -6.12  -3.85  -237.891379    2             
iter:  25  16:29:09  -6.68  -3.96  -237.891866    2             
iter:  26  16:30:40  -7.06  -4.02  -237.891640    2             
iter:  27  16:32:12  -6.64  -4.11  -237.891665    2             
iter:  28  16:33:43  -6.76  -4.17  -237.892030    2             
iter:  29  16:34:59  -6.79  -3.87  -237.891765    2             
iter:  30  16:36:12  -6.83  -3.89  -237.891348    2             
iter:  31  16:37:30  -7.15  -4.20  -237.891780    2             
iter:  32  16:38:44  -7.02  -4.34  -237.891533    2             
iter:  33  16:39:58  -7.74  -4.33  -237.891547    2             

Converged after 33 iterations.

Dipole moment: (21.498420, 15.045165, 0.278048) |e|*Ang

Energy contributions relative to reference atoms: (reference = -12877860.274276)

Kinetic:       -219.127139
Potential:      +94.949005
External:        +0.000000
XC:            -105.582650
Entropy (-ST):   -2.279243
Local:           -6.991140
--------------------------
Free energy:   -239.031168
Extrapolated:  -237.891547

Fermi level: 1.19627

Showing only first 2 kpts
 Kpt  Band  Eigenvalues  Occupancy
  0   360      1.18704    0.13077
  0   361      1.19975    0.12283
  0   362      1.23659    0.10014
  0   363      1.25359    0.09013

  1   360      1.08574    0.18781
  1   361      1.12283    0.16894
  1   362      1.14006    0.15924
  1   363      1.19257    0.12732



Forces in eV/Ang:
  0 Pd   -0.13094    0.32682   -0.35168
  1 Ir    0.98859    0.70333    0.63192
  2 Ru   -1.07620    0.28113    0.68102
  3 Ru    0.43607    0.29887    1.62106
  4 Ir   -0.58245   -0.80118    1.16616
  5 Pt    0.14622    0.15024    0.06339
  6 Pd   -0.50126   -0.41777   -0.23809
  7 Pd    0.38460   -0.26666   -0.56352
  8 Ru    0.34502   -0.14242    0.55249
  9 Ag   -0.24994   -0.09865    0.05955
 10 Ag   -0.02750   -0.15432    0.09497
 11 Ag    0.07679   -0.18731   -0.12002
 12 Pt    0.05118    0.76672   -0.51317
 13 Pt    0.09727    0.57400   -0.74937
 14 Pt   -0.06574    0.19629   -0.16353
 15 Ru   -0.39846   -0.74605   -0.94569
 16 Pt   -0.35569    0.22087   -0.10734
 17 Ir    0.88083   -0.12886   -0.97540
 18 Pt   -0.01735   -0.00852   -0.00957
 19 Ag   -0.01337   -0.08347    0.03280
 20 Pd   -0.01394   -0.04596   -0.00722
 21 Ag   -0.06421    0.00856    0.04570
 22 Ru    0.05520    0.02180    0.11441
 23 Pd   -0.04445    0.00964    0.07959
 24 Ir   -0.02458   -0.00616   -0.00199
 25 Ir   -0.01968   -0.08934    0.01699
 26 Pt   -0.04625   -0.03020    0.06015
 27 Ir   -0.00830   -0.05565   -0.03842
 28 Pd   -0.01399    0.06296   -0.05983
 29 Ag    0.05113    0.00930   -0.02945
 30 Pd    0.02665   -0.04419    0.26179
 31 Pd    0.01884   -0.04449   -0.07862
 32 Pd   -0.03100   -0.02538   -0.03204
 33 Ru   -0.03181   -0.01837    0.01285
 34 Pd   -0.05660    0.05589   -0.08361
 35 Ir    0.01017    0.23676   -0.05618
 36 Ir    0.00203   -0.05500   -0.04251
 37 Pt    0.10880    0.04517    0.02050
 38 Ag    0.05064    0.05190   -0.06023
 39 Pd    0.11557   -0.11123   -0.01159
 40 Pd    0.00818   -0.01538   -0.01837
 41 Ir   -0.11512   -0.05213    0.09908
 42 Ag    0.08576   -0.00939   -0.06508
 43 Ir    0.10937   -0.06460    0.03227
 44 Ir   -0.15343    0.01832   -7.03911
 45 O     2.22828    2.08730    9.07894
 46 H    -2.13368   -2.37915   -2.10140

System changes: positions 

Initializing position-dependent things.

Density initialized from wave functions
                                             
                                             
                                             
                                             
                                 H           
                               O             
                                             
                                             
                  Ag     Ir    Ir            
            Pd      Pd                       
                   Ru     PIr   Ir           
        Ir   PPt    PAg    Pd                
                                             
        Ir     Pd    IAg    Ir     Pt        
                                             
                Ag     Ru     Pd             
           Pt     Ag    PPd    Ir            
                                             
            Pt     Pt    PPt    Ru           
       Ag     Ag     Ag                      
              Ru    Ir     Pt                
         Pd    Ir     Ru                     
                                             
                                             
                                             
                                             
                                             

Positions:
   0 Pd     0.000000    1.624086   10.000000    ( 0.0000,  0.0000,  0.0000)
   1 Ir     2.812999    1.624086   10.000000    ( 0.0000,  0.0000,  0.0000)
   2 Ru     5.625998    1.624086   10.000000    ( 0.0000,  0.0000,  0.0000)
   3 Ru     1.406500    4.060215   10.000000    ( 0.0000,  0.0000,  0.0000)
   4 Ir     4.219499    4.060215   10.000000    ( 0.0000,  0.0000,  0.0000)
   5 Pt     7.032498    4.060215   10.000000    ( 0.0000,  0.0000,  0.0000)
   6 Pd     2.812999    6.496343   10.000000    ( 0.0000,  0.0000,  0.0000)
   7 Pd     5.625998    6.496343   10.000000    ( 0.0000,  0.0000,  0.0000)
   8 Ru     8.438997    6.496343   10.000000    ( 0.0000,  0.0000,  0.0000)
   9 Ag     0.000000    0.000000   12.296804    ( 0.0000,  0.0000,  0.0000)
  10 Ag     2.812999    0.000000   12.296804    ( 0.0000,  0.0000,  0.0000)
  11 Ag     5.625998    0.000000   12.296804    ( 0.0000,  0.0000,  0.0000)
  12 Pt     1.406500    2.436129   12.296804    ( 0.0000,  0.0000,  0.0000)
  13 Pt     4.219499    2.436129   12.296804    ( 0.0000,  0.0000,  0.0000)
  14 Pt     7.032498    2.436129   12.296804    ( 0.0000,  0.0000,  0.0000)
  15 Ru     2.812999    4.872257   12.296804    ( 0.0000,  0.0000,  0.0000)
  16 Pt     5.625998    4.872257   12.296804    ( 0.0000,  0.0000,  0.0000)
  17 Ir     8.438997    4.872257   12.296804    ( 0.0000,  0.0000,  0.0000)
  18 Pt     1.330861    0.739450   14.657165    ( 0.0000,  0.0000,  0.0000)
  19 Ag     4.180252    0.790855   14.645821    ( 0.0000,  0.0000,  0.0000)
  20 Pd     6.999898    0.858720   14.623586    ( 0.0000,  0.0000,  0.0000)
  21 Ag     2.799279    3.197699   14.645700    ( 0.0000,  0.0000,  0.0000)
  22 Ru     5.653442    3.366641   14.456429    ( 0.0000,  0.0000,  0.0000)
  23 Pd     8.447722    3.205971   14.575436    ( 0.0000,  0.0000,  0.0000)
  24 Ir     4.205392    5.608950   14.568385    ( 0.0000,  0.0000,  0.0000)
  25 Ir     7.029827    5.574968   14.572509    ( 0.0000,  0.0000,  0.0000)
  26 Pt     9.857634    5.665229   14.599457    ( 0.0000,  0.0000,  0.0000)
  27 Ir    -0.077686    1.504084   16.938168    ( 0.0000,  0.0000,  0.0000)
  28 Pd     2.750056    1.588176   16.986620    ( 0.0000,  0.0000,  0.0000)
  29 Ag     5.528910    1.595452   16.915794    ( 0.0000,  0.0000,  0.0000)
  30 Pd     1.388012    4.034447   16.979013    ( 0.0000,  0.0000,  0.0000)
  31 Pd     4.189056    4.102795   16.889817    ( 0.0000,  0.0000,  0.0000)
  32 Pd     7.023565    3.980009   16.764625    ( 0.0000,  0.0000,  0.0000)
  33 Ru     2.841381    6.535287   16.755202    ( 0.0000,  0.0000,  0.0000)
  34 Pd     5.665211    6.452205   16.790138    ( 0.0000,  0.0000,  0.0000)
  35 Ir     8.549206    6.362202   16.920969    ( 0.0000,  0.0000,  0.0000)
  36 Ir     0.061558   -0.039379   18.979409    ( 0.0000,  0.0000,  0.0000)
  37 Pt     2.798024   -0.085990   19.129903    ( 0.0000,  0.0000,  0.0000)
  38 Ag     5.670765    0.022957   19.398394    ( 0.0000,  0.0000,  0.0000)
  39 Pd     1.349124    2.367357   19.276090    ( 0.0000,  0.0000,  0.0000)
  40 Pd     4.313076    2.517846   19.254141    ( 0.0000,  0.0000,  0.0000)
  41 Ir     7.169175    2.493381   19.011346    ( 0.0000,  0.0000,  0.0000)
  42 Ag     2.815952    4.891010   19.374913    ( 0.0000,  0.0000,  0.0000)
  43 Ir     5.686990    4.915198   19.027296    ( 0.0000,  0.0000,  0.0000)
  44 Ir     8.313258    4.866811   19.233732    ( 0.0000,  0.0000,  0.0000)
  45 O      8.304468    4.843809   21.250582    ( 0.0000,  0.0000,  0.0000)
  46 H      8.910584    5.480786   21.754001    ( 0.0000,  0.0000,  0.0000)

Unit cell:
           periodic     x           y           z      points  spacing
  1. axis:    yes    8.465341    0.000000    0.000000    35     0.2095
  2. axis:    yes    4.232670    7.331200    0.000000    35     0.2095
  3. axis:    no     0.000000    0.000000   29.187217   135     0.2162

  Lengths:   8.465341   8.465341  29.187217
  Angles:   90.000000  90.000000  60.000000

Effective grid spacing dv^(1/3) = 0.2221

                     log10-error:    total        iterations:
           time      wfs    density  energy       fermi  poisson
iter:   1  16:41:45  -1.48   +inf  -245.099565    3             
iter:   2  16:42:58  -1.45  -1.88  -340.133616    34            
iter:   3  16:44:07  -1.71  -1.24  -240.235154    36            
iter:   4  16:45:17  -2.73  -2.32  -239.839562    3             
iter:   5  16:46:28  -3.34  -2.27  -239.949243    3             
iter:   6  16:47:37  -3.44  -2.20  -239.373723    3             
iter:   7  16:48:46  -3.63  -2.47  -239.212540    3             
iter:   8  16:49:56  -3.74  -2.65  -239.146920    2             
iter:   9  16:51:05  -4.19  -2.70  -239.142539    3             
iter:  10  16:52:21  -3.76  -2.75  -239.153388    3             
iter:  11  16:53:32  -4.01  -2.60  -239.197444    3             
iter:  12  16:54:41  -4.18  -2.51  -239.076299    3             
iter:  13  16:55:49  -4.61  -2.81  -239.057520    3             
iter:  14  16:57:03  -5.32  -2.91  -239.043978    2             
iter:  15  16:58:19  -5.00  -3.09  -239.038330    3             
iter:  16  16:59:49  -5.70  -3.38  -239.037850    2             
iter:  17  17:01:19  -5.64  -3.51  -239.039747    2             
iter:  18  17:02:50  -5.35  -3.30  -239.043270    2             
iter:  19  17:04:20  -5.81  -3.26  -239.039565    2             
iter:  20  17:05:50  -6.04  -3.57  -239.037916    2             
iter:  21  17:07:20  -6.35  -3.69  -239.038829    2             
iter:  22  17:08:50  -6.41  -3.76  -239.038226    2             
iter:  23  17:10:07  -6.37  -3.80  -239.038168    2             
iter:  24  17:11:20  -6.66  -3.77  -239.038519    2             
iter:  25  17:12:35  -6.68  -3.82  -239.038492    2             
iter:  26  17:13:48  -6.73  -3.98  -239.037940    2             
iter:  27  17:15:01  -6.49  -4.00  -239.038460    2             
iter:  28  17:16:15  -6.92  -4.18  -239.038152    2             
iter:  29  17:17:26  -7.22  -4.21  -239.038108    2             
iter:  30  17:18:38  -7.12  -4.30  -239.038433    2             
iter:  31  17:19:50  -7.26  -4.06  -239.038451    2             
iter:  32  17:21:01  -7.51  -4.25  -239.038135    2             

Converged after 32 iterations.

Dipole moment: (22.860178, 15.561819, 0.033553) |e|*Ang

Energy contributions relative to reference atoms: (reference = -12877860.274276)

Kinetic:       -234.587296
Potential:     +108.332815
External:        +0.000000
XC:            -104.775870
Entropy (-ST):   -2.284089
Local:           -6.865739
--------------------------
Free energy:   -240.180179
Extrapolated:  -239.038135

Fermi level: 1.07451

Showing only first 2 kpts
 Kpt  Band  Eigenvalues  Occupancy
  0   360      1.05820    0.13517
  0   361      1.07583    0.12418
  0   362      1.11304    0.10121
  0   363      1.13394    0.08891

  1   360      0.96395    0.18783
  1   361      1.00134    0.16880
  1   362      1.02738    0.15392
  1   363      1.06193    0.13285



Forces in eV/Ang:
  0 Pd   -0.12943    0.32545   -0.35078
  1 Ir    0.97693    0.69987    0.63409
  2 Ru   -1.07570    0.28414    0.68302
  3 Ru    0.43069    0.30187    1.61889
  4 Ir   -0.57604   -0.79899    1.15953
  5 Pt    0.14819    0.15410    0.06405
  6 Pd   -0.49728   -0.41766   -0.23745
  7 Pd    0.38284   -0.26731   -0.56663
  8 Ru    0.34431   -0.14944    0.54948
  9 Ag   -0.24751   -0.09332    0.05851
 10 Ag   -0.02609   -0.12539    0.06379
 11 Ag    0.08077   -0.17361   -0.13219
 12 Pt    0.07222    0.75748   -0.52754
 13 Pt    0.10143    0.56854   -0.75405
 14 Pt   -0.07941    0.19013   -0.17706
 15 Ru   -0.39653   -0.74065   -0.95840
 16 Pt   -0.38956    0.21985   -0.15266
 17 Ir    0.88822   -0.11536   -1.02171
 18 Pt   -0.02385    0.00577   -0.01529
 19 Ag   -0.00168   -0.04804    0.01813
 20 Pd   -0.01272   -0.02545    0.00793
 21 Ag   -0.05165   -0.00143    0.03217
 22 Ru    0.00761   -0.03060    0.05168
 23 Pd   -0.04574   -0.01513    0.06335
 24 Ir   -0.00483   -0.01809    0.00313
 25 Ir   -0.00512   -0.07025    0.11288
 26 Pt   -0.00066   -0.03009    0.04037
 27 Ir   -0.00416   -0.01415   -0.03997
 28 Pd    0.01794    0.01855   -0.06073
 29 Ag   -0.01111    0.01676   -0.06367
 30 Pd   -0.18007    0.05653    0.28231
 31 Pd    0.03669   -0.04493   -0.06212
 32 Pd    0.14254    0.12152    0.27919
 33 Ru   -0.05159   -0.06015   -0.00370
 34 Pd    0.00056    0.00078   -0.03598
 35 Ir   -0.07251   -0.16510    0.23285
 36 Ir   -0.01968   -0.09558   -0.03725
 37 Pt    0.00781    0.04029   -0.10197
 38 Ag    0.06746    0.08078   -0.08558
 39 Pd    0.02643   -0.06087   -0.05516
 40 Pd   -0.01846   -0.01173   -0.01246
 41 Ir    0.08026    0.08365    0.02797
 42 Ag    0.06795   -0.02058   -0.06718
 43 Ir    0.18661    0.01226   -0.09928
 44 Ir   -0.07896   -0.11231    0.11581
 45 O     0.57029    0.31345    0.15729
 46 H    -0.51797   -0.55601   -0.92863

System changes: positions 

Initializing position-dependent things.

Density initialized from wave functions
                                             
                                             
                                             
                                             
                                 H           
                               O             
                                             
                                             
                  Ag     Ir    Ir            
            Pd      Pd                       
                   Ru     PIr   Ir           
        Ir   PPt    PAg    Pd                
                                             
        Ir     Pd    IAg    Ir     Pt        
                Ag                           
                       Ru     Pd             
           Pt     Ag    PPd    Ir            
                                             
            Pt     Pt    PPt    Ru           
       Ag     Ag     Ag                      
              Ru    Ir     Pt                
         Pd    Ir     Ru                     
                                             
                                             
                                             
                                             
                                             

Positions:
   0 Pd     0.000000    1.624086   10.000000    ( 0.0000,  0.0000,  0.0000)
   1 Ir     2.812999    1.624086   10.000000    ( 0.0000,  0.0000,  0.0000)
   2 Ru     5.625998    1.624086   10.000000    ( 0.0000,  0.0000,  0.0000)
   3 Ru     1.406500    4.060215   10.000000    ( 0.0000,  0.0000,  0.0000)
   4 Ir     4.219499    4.060215   10.000000    ( 0.0000,  0.0000,  0.0000)
   5 Pt     7.032498    4.060215   10.000000    ( 0.0000,  0.0000,  0.0000)
   6 Pd     2.812999    6.496343   10.000000    ( 0.0000,  0.0000,  0.0000)
   7 Pd     5.625998    6.496343   10.000000    ( 0.0000,  0.0000,  0.0000)
   8 Ru     8.438997    6.496343   10.000000    ( 0.0000,  0.0000,  0.0000)
   9 Ag     0.000000    0.000000   12.296804    ( 0.0000,  0.0000,  0.0000)
  10 Ag     2.812999    0.000000   12.296804    ( 0.0000,  0.0000,  0.0000)
  11 Ag     5.625998    0.000000   12.296804    ( 0.0000,  0.0000,  0.0000)
  12 Pt     1.406500    2.436129   12.296804    ( 0.0000,  0.0000,  0.0000)
  13 Pt     4.219499    2.436129   12.296804    ( 0.0000,  0.0000,  0.0000)
  14 Pt     7.032498    2.436129   12.296804    ( 0.0000,  0.0000,  0.0000)
  15 Ru     2.812999    4.872257   12.296804    ( 0.0000,  0.0000,  0.0000)
  16 Pt     5.625998    4.872257   12.296804    ( 0.0000,  0.0000,  0.0000)
  17 Ir     8.438997    4.872257   12.296804    ( 0.0000,  0.0000,  0.0000)
  18 Pt     1.326613    0.740886   14.654006    ( 0.0000,  0.0000,  0.0000)
  19 Ag     4.179860    0.783454   14.647392    ( 0.0000,  0.0000,  0.0000)
  20 Pd     6.997414    0.854031   14.625056    ( 0.0000,  0.0000,  0.0000)
  21 Ag     2.790389    3.196924   14.650516    ( 0.0000,  0.0000,  0.0000)
  22 Ru     5.652882    3.359213   14.463156    ( 0.0000,  0.0000,  0.0000)
  23 Pd     8.438706    3.202602   14.587429    ( 0.0000,  0.0000,  0.0000)
  24 Ir     4.205120    5.605135   14.568347    ( 0.0000,  0.0000,  0.0000)
  25 Ir     7.028904    5.562391   14.595052    ( 0.0000,  0.0000,  0.0000)
  26 Pt     9.858259    5.659610   14.606218    ( 0.0000,  0.0000,  0.0000)
  27 Ir    -0.078178    1.502819   16.931256    ( 0.0000,  0.0000,  0.0000)
  28 Pd     2.753437    1.590070   16.976332    ( 0.0000,  0.0000,  0.0000)
  29 Ag     5.526097    1.599216   16.904725    ( 0.0000,  0.0000,  0.0000)
  30 Pd     1.351610    4.045912   17.028112    ( 0.0000,  0.0000,  0.0000)
  31 Pd     4.196622    4.094408   16.879757    ( 0.0000,  0.0000,  0.0000)
  32 Pd     7.053614    4.005105   16.822727    ( 0.0000,  0.0000,  0.0000)
  33 Ru     2.830963    6.522786   16.754673    ( 0.0000,  0.0000,  0.0000)
  34 Pd     5.667331    6.451603   16.784320    ( 0.0000,  0.0000,  0.0000)
  35 Ir     8.534410    6.326093   16.963422    ( 0.0000,  0.0000,  0.0000)
  36 Ir     0.058428   -0.057893   18.971646    ( 0.0000,  0.0000,  0.0000)
  37 Pt     2.798463   -0.078486   19.111217    ( 0.0000,  0.0000,  0.0000)
  38 Ag     5.683106    0.037319   19.383785    ( 0.0000,  0.0000,  0.0000)
  39 Pd     1.352116    2.357522   19.267305    ( 0.0000,  0.0000,  0.0000)
  40 Pd     4.308793    2.515232   19.250359    ( 0.0000,  0.0000,  0.0000)
  41 Ir     7.184736    2.506287   19.015173    ( 0.0000,  0.0000,  0.0000)
  42 Ag     2.826272    4.886951   19.364449    ( 0.0000,  0.0000,  0.0000)
  43 Ir     5.718921    4.918911   19.007755    ( 0.0000,  0.0000,  0.0000)
  44 Ir     8.307463    4.852154   19.328841    ( 0.0000,  0.0000,  0.0000)
  45 O      8.336744    4.826135   21.182009    ( 0.0000,  0.0000,  0.0000)
  46 H      8.879656    5.445946   21.634040    ( 0.0000,  0.0000,  0.0000)

Unit cell:
           periodic     x           y           z      points  spacing
  1. axis:    yes    8.465341    0.000000    0.000000    35     0.2095
  2. axis:    yes    4.232670    7.331200    0.000000    35     0.2095
  3. axis:    no     0.000000    0.000000   29.187217   135     0.2162

  Lengths:   8.465341   8.465341  29.187217
  Angles:   90.000000  90.000000  60.000000

Effective grid spacing dv^(1/3) = 0.2221

                     log10-error:    total        iterations:
           time      wfs    density  energy       fermi  poisson
iter:   1  17:22:43  -1.80   +inf  -262.987791    4             
iter:   2  17:23:54  +0.10  -1.50  -677.607986    34            
iter:   3  17:25:06  -0.82  -0.88  -260.431018    38            
iter:   4  17:26:19  -1.69  -1.61  -240.867735    33            
iter:   5  17:27:32  -2.63  -2.13  -240.403774    2             
iter:   6  17:28:44  -2.96  -2.12  -239.653015    3             
iter:   7  17:29:58  -3.43  -2.29  -239.290634    3             
iter:   8  17:31:11  -3.41  -2.46  -239.339741    2             
iter:   9  17:32:39  -3.75  -2.35  -239.071417    3             
iter:  10  17:34:09  -4.12  -2.55  -238.991261    3             
iter:  11  17:35:39  -3.95  -2.78  -238.938486    3             
iter:  12  17:37:09  -4.28  -2.91  -238.954991    2             
iter:  13  17:38:39  -4.38  -2.80  -238.927063    3             
iter:  14  17:40:09  -4.54  -2.99  -238.923157    2             
iter:  15  17:41:40  -4.66  -2.98  -238.946852    2             
iter:  16  17:43:10  -4.97  -2.84  -238.914697    2             
iter:  17  17:44:27  -5.18  -3.16  -238.910546    3             
iter:  18  17:45:41  -5.72  -3.30  -238.910674    2             
iter:  19  17:46:54  -5.35  -3.39  -238.909324    2             
iter:  20  17:48:07  -5.73  -3.45  -238.909045    2             
iter:  21  17:49:21  -5.89  -3.51  -238.911298    2             
iter:  22  17:50:34  -5.98  -3.38  -238.909130    2             
iter:  23  17:51:46  -6.15  -3.57  -238.909065    2             
iter:  24  17:52:55  -5.78  -3.58  -238.910657    2             
iter:  25  17:54:02  -6.49  -3.76  -238.908988    2             
iter:  26  17:55:14  -6.75  -3.89  -238.909040    2             
iter:  27  17:56:23  -6.77  -3.93  -238.909255    2             
iter:  28  17:57:32  -6.46  -3.88  -238.909969    2             
iter:  29  17:58:38  -6.60  -3.68  -238.908964    2             
iter:  30  17:59:48  -7.12  -3.99  -238.909187    2             
iter:  31  18:00:52  -7.24  -4.20  -238.908847    2             
iter:  32  18:01:56  -7.33  -4.09  -238.908960    2             
iter:  33  18:03:01  -7.30  -4.22  -238.909065    2             
iter:  34  18:04:08  -7.16  -4.39  -238.909295    2             
iter:  35  18:05:16  -7.52  -3.98  -238.909026    2             
iter:  36  18:06:23  -7.60  -4.52  -238.909184    2             

Converged after 36 iterations.

Dipole moment: (20.531666, 14.810331, 0.147833) |e|*Ang

Energy contributions relative to reference atoms: (reference = -12877860.274276)

Kinetic:       -220.761134
Potential:      +97.009059
External:        +0.000000
XC:            -107.073426
Entropy (-ST):   -2.277643
Local:           -6.944861
--------------------------
Free energy:   -240.048005
Extrapolated:  -238.909184

Fermi level: 1.13066

Showing only first 2 kpts
 Kpt  Band  Eigenvalues  Occupancy
  0   360      1.11810    0.13284
  0   361      1.13457    0.12256
  0   362      1.16640    0.10290
  0   363      1.19282    0.08736

  1   360      1.02167    0.18709
  1   361      1.05815    0.16843
  1   362      1.08007    0.15596
  1   363      1.12509    0.12848



Forces in eV/Ang:
  0 Pd   -0.13001    0.32587   -0.35354
  1 Ir    0.98992    0.70584    0.63091
  2 Ru   -1.07342    0.28062    0.67608
  3 Ru    0.43293    0.29919    1.61838
  4 Ir   -0.58499   -0.79718    1.16451
  5 Pt    0.14580    0.15080    0.06242
  6 Pd   -0.50236   -0.41658   -0.24003
  7 Pd    0.38371   -0.26513   -0.56579
  8 Ru    0.34434   -0.14331    0.55254
  9 Ag   -0.25251   -0.10268    0.05818
 10 Ag   -0.02524   -0.16162    0.10787
 11 Ag    0.07358   -0.19036   -0.11679
 12 Pt    0.05175    0.77055   -0.50788
 13 Pt    0.10048    0.57593   -0.72828
 14 Pt   -0.07001    0.20067   -0.15690
 15 Ru   -0.40044   -0.74924   -0.94078
 16 Pt   -0.34521    0.20135   -0.08055
 17 Ir    0.87540   -0.13324   -0.97006
 18 Pt   -0.00586   -0.01744   -0.00874
 19 Ag   -0.03056   -0.09994    0.03524
 20 Pd   -0.01893   -0.04737   -0.01502
 21 Ag   -0.05251    0.01061    0.03942
 22 Ru    0.01416    0.02352    0.05753
 23 Pd   -0.04196    0.01289    0.08929
 24 Ir   -0.02978   -0.01872   -0.00434
 25 Ir   -0.01802   -0.05515   -0.03593
 26 Pt   -0.07497   -0.02814    0.06537
 27 Ir   -0.02097   -0.07597    0.01840
 28 Pd   -0.03178    0.05799   -0.04426
 29 Ag    0.07401    0.00273    0.02076
 30 Pd    0.22483   -0.13953    0.08768
 31 Pd   -0.00068   -0.02819   -0.03659
 32 Pd   -0.11867   -0.12637   -0.22631
 33 Ru    0.00908    0.00932    0.04641
 34 Pd   -0.10428    0.08322   -0.09110
 35 Ir    0.10369    0.35851   -0.11094
 36 Ir    0.01673   -0.02221   -0.07529
 37 Pt    0.07684    0.09074    0.05497
 38 Ag    0.05601    0.03845   -0.05989
 39 Pd    0.10474   -0.12116    0.03559
 40 Pd    0.02218   -0.00864   -0.04519
 41 Ir   -0.12983   -0.17494    0.08464
 42 Ag    0.09046   -0.00213   -0.04000
 43 Ir   -0.06664   -0.05618    0.11035
 44 Ir   -0.17635   -0.08028   -2.63339
 45 O    -1.33545   -1.83280    1.43146
 46 H     1.46130    1.70273    0.97674

System changes: positions 

Initializing position-dependent things.

Density initialized from wave functions
                                             
                                             
                                             
                                             
                                 H           
                               O             
                                             
                                             
                  Ag     Ir    Ir            
            Pd      Pd                       
                   Ru     PIr   Ir           
        Ir   PPt    PAg    Pd                
                                             
        Ir     Pd    IAg    Ir     Pt        
                Ag                           
                       Ru     Pd             
           Pt     Ag    PPd    Ir            
                                             
            Pt     Pt    PPt    Ru           
       Ag     Ag     Ag                      
              Ru    Ir     Pt                
         Pd    Ir     Ru                     
                                             
                                             
                                             
                                             
                                             

Positions:
   0 Pd     0.000000    1.624086   10.000000    ( 0.0000,  0.0000,  0.0000)
   1 Ir     2.812999    1.624086   10.000000    ( 0.0000,  0.0000,  0.0000)
   2 Ru     5.625998    1.624086   10.000000    ( 0.0000,  0.0000,  0.0000)
   3 Ru     1.406500    4.060215   10.000000    ( 0.0000,  0.0000,  0.0000)
   4 Ir     4.219499    4.060215   10.000000    ( 0.0000,  0.0000,  0.0000)
   5 Pt     7.032498    4.060215   10.000000    ( 0.0000,  0.0000,  0.0000)
   6 Pd     2.812999    6.496343   10.000000    ( 0.0000,  0.0000,  0.0000)
   7 Pd     5.625998    6.496343   10.000000    ( 0.0000,  0.0000,  0.0000)
   8 Ru     8.438997    6.496343   10.000000    ( 0.0000,  0.0000,  0.0000)
   9 Ag     0.000000    0.000000   12.296804    ( 0.0000,  0.0000,  0.0000)
  10 Ag     2.812999    0.000000   12.296804    ( 0.0000,  0.0000,  0.0000)
  11 Ag     5.625998    0.000000   12.296804    ( 0.0000,  0.0000,  0.0000)
  12 Pt     1.406500    2.436129   12.296804    ( 0.0000,  0.0000,  0.0000)
  13 Pt     4.219499    2.436129   12.296804    ( 0.0000,  0.0000,  0.0000)
  14 Pt     7.032498    2.436129   12.296804    ( 0.0000,  0.0000,  0.0000)
  15 Ru     2.812999    4.872257   12.296804    ( 0.0000,  0.0000,  0.0000)
  16 Pt     5.625998    4.872257   12.296804    ( 0.0000,  0.0000,  0.0000)
  17 Ir     8.438997    4.872257   12.296804    ( 0.0000,  0.0000,  0.0000)
  18 Pt     1.329369    0.739954   14.656055    ( 0.0000,  0.0000,  0.0000)
  19 Ag     4.180115    0.788255   14.646373    ( 0.0000,  0.0000,  0.0000)
  20 Pd     6.999025    0.857073   14.624103    ( 0.0000,  0.0000,  0.0000)
  21 Ag     2.796156    3.197427   14.647392    ( 0.0000,  0.0000,  0.0000)
  22 Ru     5.653245    3.364032   14.458792    ( 0.0000,  0.0000,  0.0000)
  23 Pd     8.444555    3.204788   14.579648    ( 0.0000,  0.0000,  0.0000)
  24 Ir     4.205296    5.607610   14.568372    ( 0.0000,  0.0000,  0.0000)
  25 Ir     7.029502    5.570551   14.580427    ( 0.0000,  0.0000,  0.0000)
  26 Pt     9.857854    5.663255   14.601832    ( 0.0000,  0.0000,  0.0000)
  27 Ir    -0.077859    1.503640   16.935740    ( 0.0000,  0.0000,  0.0000)
  28 Pd     2.751243    1.588841   16.983007    ( 0.0000,  0.0000,  0.0000)
  29 Ag     5.527922    1.596774   16.911906    ( 0.0000,  0.0000,  0.0000)
  30 Pd     1.375226    4.038474   16.996259    ( 0.0000,  0.0000,  0.0000)
  31 Pd     4.191713    4.099849   16.886284    ( 0.0000,  0.0000,  0.0000)
  32 Pd     7.034119    3.988824   16.785033    ( 0.0000,  0.0000,  0.0000)
  33 Ru     2.837722    6.530896   16.755016    ( 0.0000,  0.0000,  0.0000)
  34 Pd     5.665956    6.451994   16.788095    ( 0.0000,  0.0000,  0.0000)
  35 Ir     8.544009    6.349519   16.935880    ( 0.0000,  0.0000,  0.0000)
  36 Ir     0.060459   -0.045882   18.976682    ( 0.0000,  0.0000,  0.0000)
  37 Pt     2.798178   -0.083354   19.123340    ( 0.0000,  0.0000,  0.0000)
  38 Ag     5.675100    0.028001   19.393263    ( 0.0000,  0.0000,  0.0000)
  39 Pd     1.350175    2.363903   19.273004    ( 0.0000,  0.0000,  0.0000)
  40 Pd     4.311572    2.516928   19.252813    ( 0.0000,  0.0000,  0.0000)
  41 Ir     7.174640    2.497914   19.012691    ( 0.0000,  0.0000,  0.0000)
  42 Ag     2.819577    4.889584   19.371238    ( 0.0000,  0.0000,  0.0000)
  43 Ir     5.698205    4.916502   19.020432    ( 0.0000,  0.0000,  0.0000)
  44 Ir     8.311223    4.861663   19.267138    ( 0.0000,  0.0000,  0.0000)
  45 O      8.315805    4.837601   21.226497    ( 0.0000,  0.0000,  0.0000)
  46 H      8.899720    5.468549   21.711866    ( 0.0000,  0.0000,  0.0000)

Unit cell:
           periodic     x           y           z      points  spacing
  1. axis:    yes    8.465341    0.000000    0.000000    35     0.2095
  2. axis:    yes    4.232670    7.331200    0.000000    35     0.2095
  3. axis:    no     0.000000    0.000000   29.187217   135     0.2162

  Lengths:   8.465341   8.465341  29.187217
  Angles:   90.000000  90.000000  60.000000

Effective grid spacing dv^(1/3) = 0.2221

                     log10-error:    total        iterations:
           time      wfs    density  energy       fermi  poisson
iter:   1  18:08:02  -2.01   +inf  -245.128933    3             
iter:   2  18:09:11  -1.34  -1.84  -359.130608    37            
iter:   3  18:10:42  -1.67  -1.21  -239.807850    35            
iter:   4  18:12:13  -2.59  -2.32  -240.740739    3             
iter:   5  18:13:43  -3.25  -2.04  -239.449732    3             
iter:   6  18:15:14  -3.82  -2.45  -239.182341    3             
iter:   7  18:16:45  -3.99  -2.81  -239.131362    3             
iter:   8  18:18:15  -4.30  -2.90  -239.112033    3             
iter:   9  18:19:46  -4.93  -2.97  -239.111819    3             
iter:  10  18:21:12  -4.61  -3.04  -239.105948    3             
iter:  11  18:22:24  -4.65  -3.00  -239.104923    3             
iter:  12  18:23:36  -4.80  -3.01  -239.102053    2             
iter:  13  18:24:50  -4.99  -3.09  -239.098240    3             
iter:  14  18:26:03  -5.55  -3.08  -239.090448    2             
iter:  15  18:27:17  -5.97  -3.51  -239.091120    2             
iter:  16  18:28:30  -6.16  -3.36  -239.089657    2             
iter:  17  18:29:43  -6.03  -3.61  -239.090361    2             
iter:  18  18:30:54  -5.85  -3.68  -239.090014    2             
iter:  19  18:32:02  -6.34  -3.70  -239.089805    2             
iter:  20  18:33:12  -5.92  -3.63  -239.090735    2             
iter:  21  18:34:23  -6.68  -3.72  -239.089600    2             
iter:  22  18:35:34  -6.58  -4.07  -239.089999    2             
iter:  23  18:36:43  -6.93  -3.85  -239.089936    2             
iter:  24  18:37:53  -6.80  -4.03  -239.089471    2             
iter:  25  18:39:01  -6.62  -4.14  -239.089409    2             
iter:  26  18:40:10  -7.33  -4.18  -239.089647    2             
iter:  27  18:41:18  -7.42  -4.27  -239.089417    2             

Converged after 27 iterations.

Dipole moment: (22.036113, 15.295168, 0.068883) |e|*Ang

Energy contributions relative to reference atoms: (reference = -12877860.274276)

Kinetic:       -231.043925
Potential:     +105.427981
External:        +0.000000
XC:            -105.443873
Entropy (-ST):   -2.282590
Local:           -6.888304
--------------------------
Free energy:   -240.230712
Extrapolated:  -239.089417

Fermi level: 1.09250

Showing only first 2 kpts
 Kpt  Band  Eigenvalues  Occupancy
  0   360      1.07570    0.13547
  0   361      1.09484    0.12354
  0   362      1.13147    0.10094
  0   363      1.15200    0.08887

  1   360      0.98186    0.18786
  1   361      1.01907    0.16894
  1   362      1.04411    0.15467
  1   363      1.08194    0.13159



Forces in eV/Ang:
  0 Pd   -0.12928    0.32695   -0.34859
  1 Ir    0.98383    0.70329    0.63907
  2 Ru   -1.07701    0.28307    0.68722
  3 Ru    0.43209    0.29931    1.62424
  4 Ir   -0.57913   -0.80149    1.16725
  5 Pt    0.14730    0.15243    0.06772
  6 Pd   -0.50024   -0.41844   -0.23628
  7 Pd    0.38372   -0.26678   -0.56483
  8 Ru    0.34323   -0.14487    0.55426
  9 Ag   -0.24841   -0.09623    0.05798
 10 Ag   -0.02623   -0.14022    0.08250
 11 Ag    0.07757   -0.17946   -0.12526
 12 Pt    0.06383    0.76334   -0.51968
 13 Pt    0.10232    0.57317   -0.74570
 14 Pt   -0.07602    0.19618   -0.16973
 15 Ru   -0.39896   -0.74574   -0.95398
 16 Pt   -0.37170    0.21310   -0.12391
 17 Ir    0.88192   -0.12322   -1.00151
 18 Pt   -0.01583   -0.00332   -0.01166
 19 Ag   -0.01122   -0.06809    0.02799
 20 Pd   -0.01678   -0.03333    0.00218
 21 Ag   -0.05155    0.00261    0.03704
 22 Ru    0.00954   -0.01259    0.05480
 23 Pd   -0.04391   -0.00594    0.07131
 24 Ir   -0.01167   -0.01921    0.00129
 25 Ir   -0.00853   -0.06005    0.05460
 26 Pt   -0.02970   -0.02639    0.05296
 27 Ir   -0.01250   -0.03047   -0.01704
 28 Pd    0.00139    0.03452   -0.05090
 29 Ag    0.01979    0.01120   -0.03429
 30 Pd   -0.04942   -0.00475    0.21685
 31 Pd    0.02243   -0.04179   -0.05318
 32 Pd    0.05721    0.03708    0.10924
 33 Ru   -0.03457   -0.03545    0.01116
 34 Pd   -0.03726    0.02979   -0.05470
 35 Ir   -0.00619    0.00420    0.11985
 36 Ir   -0.00789   -0.06539   -0.02392
 37 Pt    0.03417    0.07058   -0.03382
 38 Ag    0.06400    0.07831   -0.08912
 39 Pd    0.06287   -0.08610   -0.01289
 40 Pd   -0.01216   -0.01395   -0.00479
 41 Ir    0.00385   -0.01336    0.06085
 42 Ag    0.08666   -0.01952   -0.06269
 43 Ir    0.08799   -0.01627   -0.00449
 44 Ir   -0.08603   -0.10667   -0.53563
 45 O    -0.00277   -0.29262    0.32584
 46 H     0.09237    0.10163   -0.35217

System changes: positions 

Initializing position-dependent things.

Density initialized from wave functions
                                             
                                             
                                             
                                             
                                 H           
                               O             
                                             
                                             
                  Ag     Ir    Ir            
            Pd      Pd                       
                   Ru     PIr   Ir           
        Ir   PPt    PAg    Pd                
                                             
        Ir     Pd    IAg    Ir     Pt        
                Ag                           
                       Ru     Pd             
           Pt     Ag    PPd    Ir            
                                             
            Pt     Pt    PPt    Ru           
       Ag     Ag     Ag                      
              Ru    Ir     Pt                
         Pd    Ir     Ru                     
                                             
                                             
                                             
                                             
                                             

Positions:
   0 Pd     0.000000    1.624086   10.000000    ( 0.0000,  0.0000,  0.0000)
   1 Ir     2.812999    1.624086   10.000000    ( 0.0000,  0.0000,  0.0000)
   2 Ru     5.625998    1.624086   10.000000    ( 0.0000,  0.0000,  0.0000)
   3 Ru     1.406500    4.060215   10.000000    ( 0.0000,  0.0000,  0.0000)
   4 Ir     4.219499    4.060215   10.000000    ( 0.0000,  0.0000,  0.0000)
   5 Pt     7.032498    4.060215   10.000000    ( 0.0000,  0.0000,  0.0000)
   6 Pd     2.812999    6.496343   10.000000    ( 0.0000,  0.0000,  0.0000)
   7 Pd     5.625998    6.496343   10.000000    ( 0.0000,  0.0000,  0.0000)
   8 Ru     8.438997    6.496343   10.000000    ( 0.0000,  0.0000,  0.0000)
   9 Ag     0.000000    0.000000   12.296804    ( 0.0000,  0.0000,  0.0000)
  10 Ag     2.812999    0.000000   12.296804    ( 0.0000,  0.0000,  0.0000)
  11 Ag     5.625998    0.000000   12.296804    ( 0.0000,  0.0000,  0.0000)
  12 Pt     1.406500    2.436129   12.296804    ( 0.0000,  0.0000,  0.0000)
  13 Pt     4.219499    2.436129   12.296804    ( 0.0000,  0.0000,  0.0000)
  14 Pt     7.032498    2.436129   12.296804    ( 0.0000,  0.0000,  0.0000)
  15 Ru     2.812999    4.872257   12.296804    ( 0.0000,  0.0000,  0.0000)
  16 Pt     5.625998    4.872257   12.296804    ( 0.0000,  0.0000,  0.0000)
  17 Ir     8.438997    4.872257   12.296804    ( 0.0000,  0.0000,  0.0000)
  18 Pt     1.327334    0.739717   14.654560    ( 0.0000,  0.0000,  0.0000)
  19 Ag     4.178685    0.780016   14.649510    ( 0.0000,  0.0000,  0.0000)
  20 Pd     6.996803    0.852660   14.624915    ( 0.0000,  0.0000,  0.0000)
  21 Ag     2.789780    3.197511   14.651648    ( 0.0000,  0.0000,  0.0000)
  22 Ru     5.653049    3.360930   14.463919    ( 0.0000,  0.0000,  0.0000)
  23 Pd     8.438232    3.203452   14.589089    ( 0.0000,  0.0000,  0.0000)
  24 Ir     4.204338    5.604603   14.568411    ( 0.0000,  0.0000,  0.0000)
  25 Ir     7.028224    5.562777   14.589545    ( 0.0000,  0.0000,  0.0000)
  26 Pt     9.854721    5.659931   14.608346    ( 0.0000,  0.0000,  0.0000)
  27 Ir    -0.079218    1.499912   16.933333    ( 0.0000,  0.0000,  0.0000)
  28 Pd     2.752118    1.591938   16.976137    ( 0.0000,  0.0000,  0.0000)
  29 Ag     5.529329    1.598318   16.907103    ( 0.0000,  0.0000,  0.0000)
  30 Pd     1.365311    4.039257   17.023791    ( 0.0000,  0.0000,  0.0000)
  31 Pd     4.195102    4.094114   16.879519    ( 0.0000,  0.0000,  0.0000)
  32 Pd     7.044788    3.996154   16.805078    ( 0.0000,  0.0000,  0.0000)
  33 Ru     2.832696    6.525353   16.756407    ( 0.0000,  0.0000,  0.0000)
  34 Pd     5.662578    6.455442   16.781210    ( 0.0000,  0.0000,  0.0000)
  35 Ir     8.541785    6.344956   16.951836    ( 0.0000,  0.0000,  0.0000)
  36 Ir     0.059335   -0.055649   18.973227    ( 0.0000,  0.0000,  0.0000)
  37 Pt     2.801206   -0.073644   19.116698    ( 0.0000,  0.0000,  0.0000)
  38 Ag     5.684222    0.038857   19.381518    ( 0.0000,  0.0000,  0.0000)
  39 Pd     1.356963    2.352609   19.270587    ( 0.0000,  0.0000,  0.0000)
  40 Pd     4.309635    2.515148   19.251732    ( 0.0000,  0.0000,  0.0000)
  41 Ir     7.175515    2.494394   19.018429    ( 0.0000,  0.0000,  0.0000)
  42 Ag     2.830479    4.886864   19.363137    ( 0.0000,  0.0000,  0.0000)
  43 Ir     5.707953    4.915230   19.016775    ( 0.0000,  0.0000,  0.0000)
  44 Ir     8.306732    4.851853   19.251531    ( 0.0000,  0.0000,  0.0000)
  45 O      8.320822    4.803467   21.232647    ( 0.0000,  0.0000,  0.0000)
  46 H      8.905395    5.474954   21.658441    ( 0.0000,  0.0000,  0.0000)

Unit cell:
           periodic     x           y           z      points  spacing
  1. axis:    yes    8.465341    0.000000    0.000000    35     0.2095
  2. axis:    yes    4.232670    7.331200    0.000000    35     0.2095
  3. axis:    no     0.000000    0.000000   29.187217   135     0.2162

  Lengths:   8.465341   8.465341  29.187217
  Angles:   90.000000  90.000000  60.000000

Effective grid spacing dv^(1/3) = 0.2221

                     log10-error:    total        iterations:
           time      wfs    density  energy       fermi  poisson
iter:   1  18:43:02  -2.66   +inf  -239.393719    3             
iter:   2  18:44:33  -2.61  -2.44  -248.104561    3             
iter:   3  18:46:04  -3.04  -1.70  -239.301952    3             
iter:   4  18:47:34  -3.75  -2.65  -239.167271    3             
iter:   5  18:49:05  -4.58  -2.89  -239.146261    2             
iter:   6  18:50:35  -4.88  -3.18  -239.143595    2             
iter:   7  18:52:06  -5.10  -3.21  -239.140748    2             
iter:   8  18:53:36  -5.46  -3.37  -239.139724    2             
iter:   9  18:55:06  -5.25  -3.38  -239.151610    2             
iter:  10  18:56:21  -5.24  -3.15  -239.144381    2             
iter:  11  18:57:34  -5.37  -3.15  -239.138380    2             
iter:  12  18:58:47  -5.69  -3.49  -239.138806    2             
iter:  13  18:59:59  -6.28  -3.63  -239.138464    2             
iter:  14  19:01:12  -6.56  -3.82  -239.138648    2             
iter:  15  19:02:24  -5.99  -3.91  -239.139372    2             
iter:  16  19:03:35  -6.30  -3.83  -239.138807    2             
iter:  17  19:04:46  -6.35  -3.57  -239.139061    2             
iter:  18  19:05:55  -6.59  -3.85  -239.139096    2             
iter:  19  19:07:06  -6.73  -4.10  -239.138542    2             
iter:  20  19:08:18  -7.12  -4.36  -239.138597    2             
iter:  21  19:09:30  -7.68  -4.40  -239.138528    2             

Converged after 21 iterations.

Dipole moment: (20.110862, 14.624610, 0.029672) |e|*Ang

Energy contributions relative to reference atoms: (reference = -12877860.274276)

Kinetic:       -230.362852
Potential:     +104.797731
External:        +0.000000
XC:            -105.553300
Entropy (-ST):   -2.277661
Local:           -6.881277
--------------------------
Free energy:   -240.277358
Extrapolated:  -239.138528

Fermi level: 1.07489

Showing only first 2 kpts
 Kpt  Band  Eigenvalues  Occupancy
  0   360      1.05754    0.13582
  0   361      1.07815    0.12297
  0   362      1.11388    0.10094
  0   363      1.13655    0.08764

  1   360      0.96549    0.18728
  1   361      1.00264    0.16829
  1   362      1.02695    0.15440
  1   363      1.06724    0.12978



Forces in eV/Ang:
  0 Pd   -0.12822    0.32598   -0.35367
  1 Ir    0.98605    0.70308    0.63261
  2 Ru   -1.07573    0.28163    0.68189
  3 Ru    0.42980    0.29969    1.61554
  4 Ir   -0.58149   -0.79605    1.16281
  5 Pt    0.14775    0.15397    0.06151
  6 Pd   -0.50064   -0.41812   -0.24066
  7 Pd    0.38357   -0.26565   -0.57012
  8 Ru    0.34240   -0.14490    0.55313
  9 Ag   -0.25259   -0.10108    0.05823
 10 Ag   -0.02641   -0.15119    0.09601
 11 Ag    0.07561   -0.18878   -0.11371
 12 Pt    0.05087    0.77004   -0.49932
 13 Pt    0.09928    0.56991   -0.71468
 14 Pt   -0.07140    0.19529   -0.15164
 15 Ru   -0.40262   -0.74626   -0.94053
 16 Pt   -0.36236    0.19792   -0.09297
 17 Ir    0.88259   -0.13637   -0.98173
 18 Pt   -0.01950    0.01023   -0.03149
 19 Ag   -0.02806   -0.03432    0.00290
 20 Pd   -0.00711   -0.03025   -0.01738
 21 Ag   -0.04093   -0.00408    0.01279
 22 Ru   -0.00236   -0.00283    0.03425
 23 Pd   -0.01593   -0.01114    0.04936
 24 Ir   -0.03071   -0.01614   -0.01005
 25 Ir   -0.01751   -0.03783   -0.00552
 26 Pt   -0.04005   -0.04456    0.03603
 27 Ir   -0.01671   -0.02606    0.02614
 28 Pd   -0.01294    0.02096   -0.03212
 29 Ag    0.02974    0.02457   -0.00859
 30 Pd    0.08727   -0.04187    0.06781
 31 Pd    0.02118   -0.00397   -0.01772
 32 Pd   -0.06314   -0.03581   -0.05008
 33 Ru    0.00550   -0.01686    0.03030
 34 Pd   -0.02420   -0.01264    0.02383
 35 Ir    0.03001    0.08763    0.02057
 36 Ir    0.02586   -0.03439   -0.04037
 37 Pt    0.04811   -0.03264   -0.01147
 38 Ag    0.03465   -0.01470   -0.04713
 39 Pd    0.01027   -0.04900    0.02528
 40 Pd    0.00399   -0.01712   -0.03243
 41 Ir    0.01773   -0.05385    0.02078
 42 Ag    0.02724   -0.00409   -0.01917
 43 Ir    0.01403    0.02196   -0.00931
 44 Ir   -0.05611   -0.06661   -0.16502
 45 O     0.07796   -0.16959   -0.05319
 46 H     0.05482    0.08166   -0.23566

System changes: positions 

Initializing position-dependent things.

Density initialized from wave functions
                                             
                                             
                                             
                                             
                                 H           
                               O             
                                             
                                             
                  Ag     Ir    Ir            
            Pd      Pd           Ir          
                   Ru     PIr                
        Ir   PPt    PAg    Pd                
                                             
        Ir     Pd    IAg    Ir     Pt        
                Ag            Pd             
                       Ru                    
           Pt     Ag    PPd    Ir            
                                             
            Pt     Pt    PPt    Ru           
       Ag     Ag     Ag                      
              Ru    Ir     Pt                
         Pd    Ir     Ru                     
                                             
                                             
                                             
                                             
                                             

Positions:
[...]
  33 Ru     2.817675    6.428306   16.757958    ( 0.0000,  0.0000,  0.0000)
  34 Pd     5.664704    6.370323   16.777523    ( 0.0000,  0.0000,  0.0000)
  35 Ir     8.550871    6.256097   16.952560    ( 0.0000,  0.0000,  0.0000)
  36 Ir     0.064483   -0.153080   18.958482    ( 0.0000,  0.0000,  0.0000)
  37 Pt     2.832937   -0.209479   19.122093    ( 0.0000,  0.0000,  0.0000)
  38 Ag     5.666611   -0.102922   19.349607    ( 0.0000,  0.0000,  0.0000)
  39 Pd     1.406626    2.209419   19.259595    ( 0.0000,  0.0000,  0.0000)
  40 Pd     4.388373    2.435281   19.239937    ( 0.0000,  0.0000,  0.0000)
  41 Ir     7.241238    2.242910   19.034501    ( 0.0000,  0.0000,  0.0000)
  42 Ag     2.824227    4.756022   19.393988    ( 0.0000,  0.0000,  0.0000)
  43 Ir     5.636542    4.875424   19.039739    ( 0.0000,  0.0000,  0.0000)
  44 Ir     8.168287    4.626031   19.288686    ( 0.0000,  0.0000,  0.0000)
  45 O      8.940665    4.624615   21.121511    ( 0.0000,  0.0000,  0.0000)
  46 H      8.702137    5.467831   21.581651    ( 0.0000,  0.0000,  0.0000)

Unit cell:
           periodic     x           y           z      points  spacing
  1. axis:    yes    8.465341    0.000000    0.000000    35     0.2095
  2. axis:    yes    4.232670    7.331200    0.000000    35     0.2095
  3. axis:    no     0.000000    0.000000   29.187217   135     0.2162

  Lengths:   8.465341   8.465341  29.187217
  Angles:   90.000000  90.000000  60.000000

Effective grid spacing dv^(1/3) = 0.2221

                     log10-error:    total        iterations:
           time      wfs    density  energy       fermi  poisson
iter:   1  07:07:46  -2.72   +inf  -241.860462    3             
iter:   2  07:09:00  -1.44  -1.94  -327.496416    37            
iter:   3  07:10:13  -1.96  -1.27  -243.787432    37            
iter:   4  07:11:26  -2.64  -1.91  -239.787321    3             
iter:   5  07:12:38  -3.50  -2.44  -239.466100    3             
iter:   6  07:13:52  -4.17  -2.99  -239.437017    3             
iter:   7  07:15:07  -4.92  -3.17  -239.432639    2             
iter:   8  07:16:21  -5.14  -3.31  -239.433126    2             
iter:   9  07:17:31  -5.37  -3.26  -239.429355    2             
iter:  10  07:18:44  -5.40  -3.35  -239.426532    2             
iter:  11  07:19:54  -5.45  -3.54  -239.429137    2             
iter:  12  07:21:05  -5.65  -3.54  -239.426471    2             
iter:  13  07:22:13  -6.16  -3.79  -239.426898    2             
iter:  14  07:23:22  -6.55  -3.77  -239.427071    1             
iter:  15  07:24:32  -6.71  -3.76  -239.426672    2             
iter:  16  07:25:42  -6.47  -3.84  -239.426319    2             
iter:  17  07:27:15  -6.83  -3.94  -239.427182    2             
iter:  18  07:28:47  -6.86  -3.84  -239.426466    2             
iter:  19  07:30:19  -7.20  -4.12  -239.426563    2             
iter:  20  07:31:51  -7.04  -4.10  -239.426467    2             
iter:  21  07:33:23  -7.06  -4.25  -239.426446    2             
iter:  22  07:34:55  -7.17  -4.11  -239.426218    2             
iter:  23  07:36:27  -7.53  -4.37  -239.426547    2             

Converged after 23 iterations.

Dipole moment: (18.543488, 22.182041, 0.099996) |e|*Ang

Energy contributions relative to reference atoms: (reference = -12877860.274276)

Kinetic:       -222.488583
Potential:      +97.784157
External:        +0.000000
XC:            -106.701194
Entropy (-ST):   -2.224703
Local:           -6.908576
--------------------------
Free energy:   -240.538899
Extrapolated:  -239.426547

Fermi level: 1.11100

Showing only first 2 kpts
 Kpt  Band  Eigenvalues  Occupancy
  0   360      1.10584    0.12822
  0   361      1.13027    0.11299
  0   362      1.15237    0.09951
  0   363      1.17699    0.08519

  1   360      1.02163    0.17741
  1   361      1.03512    0.17027
  1   362      1.07075    0.14982
  1   363      1.08715    0.13984



Forces in eV/Ang:
  0 Pd   -0.12696    0.33299   -0.35964
  1 Ir    0.99974    0.72145    0.62778
  2 Ru   -1.08392    0.30054    0.67634
  3 Ru    0.42099    0.28440    1.59725
  4 Ir   -0.58531   -0.80630    1.16036
  5 Pt    0.15571    0.15851    0.05964
  6 Pd   -0.50251   -0.42338   -0.23114
  7 Pd    0.38496   -0.26543   -0.56276
  8 Ru    0.34862   -0.15394    0.57164
  9 Ag   -0.23446   -0.14818    0.03832
 10 Ag   -0.03282   -0.21446    0.10043
 11 Ag    0.05858   -0.23955   -0.13618
 12 Pt    0.02463    0.71854   -0.53134
 13 Pt    0.07697    0.48091   -0.69796
 14 Pt   -0.08446    0.12796   -0.15614
 15 Ru   -0.38840   -0.80919   -0.92648
 16 Pt   -0.36370    0.09832   -0.02508
 17 Ir    0.85452   -0.23815   -0.98942
 18 Pt   -0.01722   -0.00138    0.00665
 19 Ag   -0.01645   -0.01147    0.00217
 20 Pd    0.04496    0.00151    0.02594
 21 Ag    0.01814    0.02331   -0.02287
 22 Ru    0.00716    0.06753   -0.02118
 23 Pd    0.00263   -0.03192    0.01817
 24 Ir    0.04316   -0.01462   -0.02825
 25 Ir   -0.06589    0.01420    0.01834
 26 Pt    0.01914   -0.01898   -0.00261
 27 Ir   -0.00783    0.02624   -0.20731
 28 Pd    0.02271   -0.01387   -0.01740
 29 Ag   -0.03100   -0.01554    0.00619
 30 Pd    0.01325   -0.00246    0.00531
 31 Pd   -0.01282    0.01037    0.02805
 32 Pd    0.00307    0.04998   -0.05358
 33 Ru    0.00452   -0.00080   -0.00843
 34 Pd    0.06948   -0.06170   -0.09860
 35 Ir   -0.07005   -0.00762    0.09712
 36 Ir   -0.06638   -0.08437    0.14536
 37 Pt    0.09812   -0.02811   -0.02123
 38 Ag    0.03091    0.03842   -0.02472
 39 Pd    0.05639   -0.03044    0.05027
 40 Pd   -0.00600   -0.01781    0.01974
 41 Ir   -0.11804    0.00171    0.07923
 42 Ag    0.07720    0.02189   -0.02939
 43 Ir    0.02099   -0.05053   -0.00005
 44 Ir    0.03442    0.11879   -0.04879
 45 O     0.00859    0.04758    0.03923
 46 H    -0.08046    0.00952   -0.02738

System changes: positions 

Initializing position-dependent things.

Density initialized from wave functions
                                             
                                             
                                             
                                             
                                H            
                                             
                                O            
                                             
                  Ag    Ir     Ir            
            Pd      Pd                       
                   Ru    PdIr   Ir           
        Ir   PPt    PAg    Pd                
                                             
        Ir     Pd    IAg    Ir     Pt        
                Ag     Ru     Pd             
                                             
           Pt     Ag    PPd    Ir            
                                             
            Pt     Pt    PPt    Ru           
       Ag     Ag    IAg    Pt                
                                             
         Pd    Ir     Ru                     
                                             
                                             
                                             
                                             
                                             

Positions:
   0 Pd     0.000000    1.624086   10.000000    ( 0.0000,  0.0000,  0.0000)
   1 Ir     2.812999    1.624086   10.000000    ( 0.0000,  0.0000,  0.0000)
   2 Ru     5.625998    1.624086   10.000000    ( 0.0000,  0.0000,  0.0000)
   3 Ru     1.406500    4.060215   10.000000    ( 0.0000,  0.0000,  0.0000)
   4 Ir     4.219499    4.060215   10.000000    ( 0.0000,  0.0000,  0.0000)
   5 Pt     7.032498    4.060215   10.000000    ( 0.0000,  0.0000,  0.0000)
   6 Pd     2.812999    6.496343   10.000000    ( 0.0000,  0.0000,  0.0000)
   7 Pd     5.625998    6.496343   10.000000    ( 0.0000,  0.0000,  0.0000)
   8 Ru     8.438997    6.496343   10.000000    ( 0.0000,  0.0000,  0.0000)
   9 Ag     0.000000    0.000000   12.296804    ( 0.0000,  0.0000,  0.0000)
  10 Ag     2.812999    0.000000   12.296804    ( 0.0000,  0.0000,  0.0000)
  11 Ag     5.625998    0.000000   12.296804    ( 0.0000,  0.0000,  0.0000)
  12 Pt     1.406500    2.436129   12.296804    ( 0.0000,  0.0000,  0.0000)
  13 Pt     4.219499    2.436129   12.296804    ( 0.0000,  0.0000,  0.0000)
  14 Pt     7.032498    2.436129   12.296804    ( 0.0000,  0.0000,  0.0000)
  15 Ru     2.812999    4.872257   12.296804    ( 0.0000,  0.0000,  0.0000)
  16 Pt     5.625998    4.872257   12.296804    ( 0.0000,  0.0000,  0.0000)
  17 Ir     8.438997    4.872257   12.296804    ( 0.0000,  0.0000,  0.0000)
  18 Pt     1.329381    0.672465   14.656590    ( 0.0000,  0.0000,  0.0000)
  19 Ag     4.177511    0.714163   14.655159    ( 0.0000,  0.0000,  0.0000)
  20 Pd     6.995703    0.777674   14.612796    ( 0.0000,  0.0000,  0.0000)
  21 Ag     2.775498    3.128687   14.658842    ( 0.0000,  0.0000,  0.0000)
  22 Ru     5.638159    3.323937   14.464369    ( 0.0000,  0.0000,  0.0000)
  23 Pd     8.422838    3.139817   14.602892    ( 0.0000,  0.0000,  0.0000)
  24 Ir     4.179742    5.545987   14.563992    ( 0.0000,  0.0000,  0.0000)
  25 Ir     7.035274    5.493088   14.595154    ( 0.0000,  0.0000,  0.0000)
  26 Pt     9.838079    5.590252   14.608251    ( 0.0000,  0.0000,  0.0000)
  27 Ir    -0.046223    1.399092   16.902167    ( 0.0000,  0.0000,  0.0000)
  28 Pd     2.784310    1.487886   16.982937    ( 0.0000,  0.0000,  0.0000)
  29 Ag     5.563831    1.520962   16.886465    ( 0.0000,  0.0000,  0.0000)
  30 Pd     1.395824    3.930688   17.033334    ( 0.0000,  0.0000,  0.0000)
  31 Pd     4.205077    4.007278   16.874979    ( 0.0000,  0.0000,  0.0000)
  32 Pd     7.060143    3.903935   16.849588    ( 0.0000,  0.0000,  0.0000)
  33 Ru     2.819497    6.427304   16.759827    ( 0.0000,  0.0000,  0.0000)
  34 Pd     5.667926    6.366352   16.774312    ( 0.0000,  0.0000,  0.0000)
  35 Ir     8.549356    6.254828   16.960232    ( 0.0000,  0.0000,  0.0000)
  36 Ir     0.064453   -0.159226   18.964537    ( 0.0000,  0.0000,  0.0000)
  37 Pt     2.837725   -0.212048   19.121147    ( 0.0000,  0.0000,  0.0000)
  38 Ag     5.672473   -0.097643   19.348386    ( 0.0000,  0.0000,  0.0000)
  39 Pd     1.407207    2.202417   19.262216    ( 0.0000,  0.0000,  0.0000)
  40 Pd     4.386004    2.434390   19.241559    ( 0.0000,  0.0000,  0.0000)
  41 Ir     7.237084    2.242713   19.038480    ( 0.0000,  0.0000,  0.0000)
  42 Ag     2.832263    4.756334   19.391532    ( 0.0000,  0.0000,  0.0000)
  43 Ir     5.641039    4.872968   19.040951    ( 0.0000,  0.0000,  0.0000)
  44 Ir     8.174735    4.632230   19.284139    ( 0.0000,  0.0000,  0.0000)
  45 O      8.942472    4.628435   21.119341    ( 0.0000,  0.0000,  0.0000)
  46 H      8.699001    5.472236   21.577197    ( 0.0000,  0.0000,  0.0000)

Unit cell:
           periodic     x           y           z      points  spacing
  1. axis:    yes    8.465341    0.000000    0.000000    35     0.2095
  2. axis:    yes    4.232670    7.331200    0.000000    35     0.2095
  3. axis:    no     0.000000    0.000000   29.187217   135     0.2162

  Lengths:   8.465341   8.465341  29.187217
  Angles:   90.000000  90.000000  60.000000

Effective grid spacing dv^(1/3) = 0.2221

                     log10-error:    total        iterations:
           time      wfs    density  energy       fermi  poisson
iter:   1  07:38:41  -3.37   +inf  -239.804767    3             
iter:   2  07:40:12  -2.33  -2.36  -257.461107    4             
iter:   3  07:41:44  -2.71  -1.56  -239.675947    3             
iter:   4  07:43:15  -3.59  -2.56  -239.445413    3             
iter:   5  07:44:47  -4.73  -3.15  -239.436793    2             
iter:   6  07:46:19  -5.23  -3.44  -239.433564    2             
iter:   7  07:47:52  -5.65  -3.55  -239.433360    2             
iter:   8  07:49:24  -5.58  -3.62  -239.432122    2             
iter:   9  07:50:37  -5.69  -3.62  -239.432726    2             
iter:  10  07:51:51  -6.00  -3.73  -239.431009    2             
iter:  11  07:53:05  -6.40  -3.83  -239.431838    2             
iter:  12  07:54:19  -6.74  -4.02  -239.431598    2             
iter:  13  07:55:33  -6.83  -4.12  -239.431739    2             
iter:  14  07:56:47  -7.06  -4.04  -239.431532    2             
iter:  15  07:58:01  -7.26  -4.19  -239.431619    2             
iter:  16  07:59:14  -7.15  -4.21  -239.431223    2             
iter:  17  08:00:28  -7.29  -4.23  -239.431724    2             
iter:  18  08:01:35  -7.38  -4.27  -239.431449    2             
iter:  19  08:02:45  -7.67  -4.49  -239.431479    2             

Converged after 19 iterations.

Dipole moment: (17.959662, 22.163491, 0.097474) |e|*Ang

Energy contributions relative to reference atoms: (reference = -12877860.274276)

Kinetic:       -223.617532
Potential:      +98.769036
External:        +0.000000
XC:            -106.558481
Entropy (-ST):   -2.226566
Local:           -6.911220
--------------------------
Free energy:   -240.544762
Extrapolated:  -239.431479

Fermi level: 1.10917

Showing only first 2 kpts
 Kpt  Band  Eigenvalues  Occupancy
  0   360      1.10320    0.12873
  0   361      1.12761    0.11351
  0   362      1.15082    0.09934
  0   363      1.17572    0.08487

  1   360      1.02031    0.17715
  1   361      1.03293    0.17047
  1   362      1.06825    0.15023
  1   363      1.08549    0.13973



Forces in eV/Ang:
  0 Pd   -0.12615    0.33173   -0.36116
  1 Ir    0.99704    0.71990    0.62521
  2 Ru   -1.08240    0.29957    0.67244
  3 Ru    0.42010    0.28339    1.59443
  4 Ir   -0.58639   -0.80252    1.15832
  5 Pt    0.15664    0.15851    0.05585
  6 Pd   -0.50114   -0.42271   -0.23317
  7 Pd    0.38412   -0.26356   -0.56378
  8 Ru    0.34778   -0.15379    0.56850
  9 Ag   -0.23291   -0.14800    0.03183
 10 Ag   -0.03103   -0.21188    0.10615
 11 Ag    0.05362   -0.24384   -0.12267
 12 Pt    0.02150    0.72053   -0.52658
 13 Pt    0.07859    0.47670   -0.69293
 14 Pt   -0.07943    0.12701   -0.15222
 15 Ru   -0.39758   -0.80642   -0.92662
 16 Pt   -0.36087    0.11001   -0.05119
 17 Ir    0.85806   -0.23817   -0.97853
 18 Pt    0.01821    0.00217   -0.02380
 19 Ag    0.00707   -0.01222   -0.02267
 20 Pd   -0.00934    0.01194    0.02709
 21 Ag    0.01447    0.01895   -0.02136
 22 Ru   -0.01062   -0.00329   -0.00471
 23 Pd    0.01914   -0.03340   -0.01187
 24 Ir    0.01758   -0.00573   -0.01933
 25 Ir   -0.00387    0.02567   -0.01981
 26 Pt    0.00554    0.00741   -0.00389
 27 Ir   -0.02566   -0.01330    0.04524
 28 Pd    0.01849   -0.02458   -0.00800
 29 Ag   -0.02445   -0.01819    0.01452
 30 Pd    0.00100   -0.00072    0.00638
 31 Pd    0.00960    0.00709    0.00627
 32 Pd    0.01262    0.00829    0.00699
 33 Ru    0.00074    0.02544   -0.00560
 34 Pd    0.00200   -0.00414   -0.01656
 35 Ir   -0.00222   -0.01024    0.03238
 36 Ir   -0.02123    0.03592   -0.00548
 37 Pt    0.03839    0.03351    0.00285
 38 Ag    0.01795    0.00673   -0.00085
 39 Pd    0.00699   -0.00984    0.01343
 40 Pd    0.00645   -0.03439    0.03114
 41 Ir    0.01618    0.03691   -0.02719
 42 Ag    0.02485    0.01849    0.00294
 43 Ir    0.02733   -0.05975    0.00520
 44 Ir    0.03385    0.01020   -0.03334
 45 O    -0.04510    0.01927    0.00876
 46 H    -0.07524   -0.01122   -0.03404

Timing:                                      incl.     excl.
-------------------------------------------------------------------
Density initialized from wave functions:   134.211   134.208   0.2% |
 Symmetrize density:                         0.003     0.003   0.0% |
Forces:                                    569.000   569.000   0.9% |
Hamiltonian:                               103.249     0.306   0.0% |
 Atomic:                                    23.674    13.460   0.0% |
  XC Correction:                            10.214    10.214   0.0% |
 Calculate atomic Hamiltonians:             32.865    32.865   0.1% |
 Communicate:                               16.298    16.298   0.0% |
 Initialize Hamiltonian:                     0.001     0.001   0.0% |
 Poisson:                                    0.138     0.138   0.0% |
 XC 3D grid:                                29.967    29.967   0.0% |
LCAO initialization:                        62.704     4.984   0.0% |
 LCAO eigensolver:                           6.935     0.002   0.0% |
  Calculate projections:                     0.075     0.075   0.0% |
  DenseAtomicCorrection:                     0.085     0.085   0.0% |
  Distribute overlap matrix:                 0.017     0.017   0.0% |
  Orbital Layouts:                           0.822     0.822   0.0% |
  Potential matrix:                          5.865     5.865   0.0% |
  Sum over cells:                            0.069     0.069   0.0% |
 LCAO to grid:                              48.505    48.505   0.1% |
 Set positions (LCAO WFS):                   2.281     0.660   0.0% |
  Basic WFS set positions:                   0.003     0.003   0.0% |
  Basis functions set positions:             0.001     0.001   0.0% |
  P tci:                                     0.726     0.726   0.0% |
  ST tci:                                    0.659     0.659   0.0% |
  mktci:                                     0.233     0.233   0.0% |
PWDescriptor:                                0.058     0.058   0.0% |
Redistribute:                                4.040     4.040   0.0% |
SCF-cycle:                               62686.730  9074.845  14.2% |-----|
 Davidson:                               48183.500 10894.365  17.1% |------|
  Apply H:                                8229.539  8032.694  12.6% |----|
   HMM T:                                  196.845   196.845   0.3% |
  Subspace diag:                          6831.015     0.258   0.0% |
   calc_h_matrix:                         4067.495  1333.021   2.1% ||
    Apply H:                              2734.474  2662.727   4.2% |-|
     HMM T:                                 71.747    71.747   0.1% |
   diagonalize:                            233.303   233.303   0.4% |
   rotate_psi:                            2529.959  2529.959   4.0% |-|
  calc. matrices:                        14860.720  9497.832  14.9% |-----|
   Apply H:                               5362.888  5229.084   8.2% |--|
    HMM T:                                 133.803   133.803   0.2% |
  diagonalize:                            2309.604  2309.604   3.6% ||
  rotate_psi:                             5058.256  5058.256   7.9% |--|
 Density:                                 2774.694     0.051   0.0% |
  Atomic density matrices:                  14.478    14.478   0.0% |
  Mix:                                     952.944   952.944   1.5% ||
  Multipole moments:                         1.111     1.111   0.0% |
  Pseudo density:                         1806.110  1806.050   2.8% ||
   Symmetrize density:                       0.060     0.060   0.0% |
 Hamiltonian:                             2468.313     7.193   0.0% |
  Atomic:                                  570.039   315.848   0.5% |
   XC Correction:                          254.191   254.191   0.4% |
  Calculate atomic Hamiltonians:           780.871   780.871   1.2% |
  Communicate:                             374.863   374.863   0.6% |
  Poisson:                                   3.396     3.396   0.0% |
  XC 3D grid:                              731.953   731.953   1.1% |
 Orthonormalize:                           185.379     0.015   0.0% |
  calc_s_matrix:                            26.330    26.330   0.0% |
  inverse-cholesky:                          5.414     5.414   0.0% |
  projections:                             105.096   105.096   0.2% |
  rotate_psi_s:                             48.523    48.523   0.1% |
Set symmetry:                                0.001     0.001   0.0% |
Other:                                     312.560   312.560   0.5% |
-------------------------------------------------------------------
Total:                                             63872.552 100.0%

Date: Fri Mar  4 08:03:02 2022
