
  ___ ___ ___ _ _ _  
 |   |   |_  | | | | 
 | | | | | . | | | | 
 |__ |  _|___|_____|  1.5.1
 |___|_|             

User:   clausen@node248.cluster
Date:   Fri Mar  4 01:01:04 2022
Arch:   x86_64
Pid:    171057
Python: 3.6.12
gpaw:   /software/kemi/gpaw/1.5.1/gpaw
_gpaw:  /software/kemi/gpaw/1.5.1/bin/gpaw-python
ase:    /software/kemi/ase/3.17.0/ase (version 3.17.0)
numpy:  /opt/rh/rh-python36/root/usr/lib64/python3.6/site-packages/numpy (version 1.13.1)
scipy:  /opt/rh/rh-python36/root/usr/lib64/python3.6/site-packages/scipy (version 0.19.1)
units:  Angstrom and eV
cores:  16

Input parameters:
  kpts: [4 4 1]
  mode: {ecut: 400.0,
         gammacentered: False,
         name: pw}
  xc: RPBE

System changes: positions, numbers, cell, pbc, initial_charges, initial_magmoms 

Initialize ...

Pd-setup:
  name: Palladium
  id: 6da19bfba079f22767af9506641940b9
  Z: 46
  valence: 16
  core: 30
  charge: 0.0
  file: /software/kemi/gpaw-setups/0.9.20000/Pd.RPBE.gz
  cutoffs: 1.19(comp), 2.38(filt), 2.28(core), lmax=2
  valence states:
                energy  radius
    5s(0.00)    -3.225   1.228
    4p(6.00)   -51.131   1.360
    5p(0.00)    -0.373   1.360
    4d(10.00)    -3.964   1.228
    *s          23.987   1.228
    *d          23.247   1.228

  Using partial waves for Pd as LCAO basis

Ag-setup:
  name: Silver
  id: c05e55bab2c3858b3f9398f6d75cb77c
  Z: 47
  valence: 17
  core: 30
  charge: 0.0
  file: /software/kemi/gpaw-setups/0.9.20000/Ag.RPBE.gz
  cutoffs: 1.25(comp), 2.35(filt), 2.19(core), lmax=2
  valence states:
                energy  radius
    5s(1.00)    -4.277   1.286
    4p(6.00)   -58.523   1.328
    5p(0.00)    -0.755   1.328
    4d(10.00)    -7.386   1.180
    *s          22.934   1.286
    *d          19.826   1.180

  Using partial waves for Ag as LCAO basis

Pt-setup:
  name: Platinum
  id: f04f522592575c47ad794f6b4a415b4b
  Z: 78
  valence: 16
  core: 62
  charge: 0.0
  file: /software/kemi/gpaw-setups/0.9.20000/Pt.RPBE.gz
  cutoffs: 1.29(comp), 2.26(filt), 2.26(core), lmax=2
  valence states:
                energy  radius
    6s(1.00)    -5.516   1.307
    5p(6.00)   -55.971   1.371
    6p(0.00)    -0.856   1.371
    5d(9.00)    -6.087   1.307
    *s          21.695   1.307
    *d          21.125   1.307

  Using partial waves for Pt as LCAO basis

Ru-setup:
  name: Ruthenium
  id: 76477906e28f51dc1b29884d53556fe9
  Z: 44
  valence: 16
  core: 28
  charge: 0.0
  file: /software/kemi/gpaw-setups/0.9.20000/Ru.RPBE.gz
  cutoffs: 1.23(comp), 2.16(filt), 1.30(core), lmax=2
  valence states:
                energy  radius
    4s(2.00)   -76.255   1.281
    5s(1.00)    -4.126   1.281
    4p(6.00)   -46.371   1.286
    5p(0.00)    -0.913   1.286
    4d(7.00)    -5.146   1.254
    *d          22.066   1.254

  Using partial waves for Ru as LCAO basis

O-setup:
  name: Oxygen
  id: 08071ca1eed670e7821b24b7eb4d558c
  Z: 8
  valence: 6
  core: 2
  charge: 0.0
  file: /software/kemi/gpaw-setups/0.9.20000/O.RPBE.gz
  cutoffs: 0.67(comp), 1.17(filt), 0.83(core), lmax=2
  valence states:
                energy  radius
    2s(2.00)   -24.041   0.688
    2p(4.00)    -8.984   0.598
    *s           3.170   0.688
    *p          18.228   0.598
    *d           0.000   0.619

  Using partial waves for O as LCAO basis

Reference energy: -9073453.423555

Spin-paired calculation

Occupation numbers:
  Fermi-Dirac: width=0.1000 eV

Convergence criteria:
  Maximum total energy change: 0.0005 eV / electron
  Maximum integral of absolute density change: 0.0001 electrons
  Maximum integral of absolute eigenstate change: 4e-08 eV^2
  Maximum number of iterations: 333

Symmetries present (total): 1

  ( 1  0  0)
  ( 0  1  0)
  ( 0  0  1)

16 k-points: 4 x 4 x 1 Monkhorst-Pack grid
8 k-points in the irreducible part of the Brillouin zone
       k-points in crystal coordinates                weights
   0:     0.12500000   -0.37500000    0.00000000          2/16
   1:     0.12500000   -0.12500000    0.00000000          2/16
   2:     0.12500000    0.12500000    0.00000000          2/16
   3:     0.12500000    0.37500000    0.00000000          2/16
   4:     0.37500000   -0.37500000    0.00000000          2/16
   5:     0.37500000   -0.12500000    0.00000000          2/16
   6:     0.37500000    0.12500000    0.00000000          2/16
   7:     0.37500000    0.37500000    0.00000000          2/16

Wave functions: Plane wave expansion
  Cutoff energy: 400.000 eV
  Number of coefficients (min, max): 32266, 32339
  Pulay-stress correction: 0.000000 eV/Ang^3 (de/decut=0.000000)
  Using FFTW library
  ScaLapack parameters: grid=1x1, blocksize=None
  Wavefunction extrapolation:
    Improved wavefunction reuse through dual PAW basis 

Eigensolver
   Davidson(niter=2, smin=None, normalize=True) 

Densities:
  Coarse grid: 35*35*135 grid
  Fine grid: 70*70*270 grid
  Total Charge: 0.000000 

Density mixing:
  Method: separate
  Backend: pulay
  Linear mixing parameter: 0.05
  Mixing with 5 old densities
  Damping of long wave oscillations: 50 

Hamiltonian:
  XC and Coulomb potentials evaluated on a 70*70*270 grid
  Using the RPBE Exchange-Correlation functional
 

XC parameters: RPBE with 2 nearest neighbor stencil

Memory estimate:
  Process memory now: 163.96 MiB
  Calculator: 548.11 MiB
    Density: 48.38 MiB
      Arrays: 16.41 MiB
      Localized functions: 25.61 MiB
      Mixer: 6.36 MiB
    Hamiltonian: 11.51 MiB
      Arrays: 10.73 MiB
      XC: 0.00 MiB
      Poisson: 0.00 MiB
      vbar: 0.78 MiB
    Wavefunctions: 488.23 MiB
      Arrays psit_nG: 220.57 MiB
      Eigensolver: 253.54 MiB
      Projections: 2.81 MiB
      Projectors: 4.69 MiB
      PW-descriptor: 6.62 MiB

Total number of cores used: 16
Parallelization over k-points: 8
Domain decomposition: 1 x 1 x 2

Number of atoms: 46
Number of atomic orbitals: 551
Number of bands in calculation: 447
Bands to converge: occupied states only
Number of valence electrons: 738

... initialized

Initializing position-dependent things.

Density initialized from atomic densities
Creating initial wave functions:
  447 bands from LCAO basis set

                                             
                                             
                                             
                                             
                                             
                                             
                         Pd                  
                 Pt            Ru            
            Pt    OPd    PPd    Ru           
                                             
        Pd    Ru     Pd    Pt                
                                             
        Pt     Pd    PPd    Pd     Ag        
                Ag     Ag     Ag             
                                             
           Ag    PAg    APt    Pd            
                                             
            Pd     Ru     Ag     Pd          
       Ag     Ru     Ru                      
             Pd     Pd     Pt                
        Pd     Ag     Pt                     
                                             
                                             
                                             
                                             
                                             

Positions:
   0 Pd     0.000000    1.633958   10.000000    ( 0.0000,  0.0000,  0.0000)
   1 Ag     2.830098    1.633958   10.000000    ( 0.0000,  0.0000,  0.0000)
   2 Pt     5.660196    1.633958   10.000000    ( 0.0000,  0.0000,  0.0000)
   3 Pd     1.415049    4.084895   10.000000    ( 0.0000,  0.0000,  0.0000)
   4 Pd     4.245147    4.084895   10.000000    ( 0.0000,  0.0000,  0.0000)
   5 Pt     7.075245    4.084895   10.000000    ( 0.0000,  0.0000,  0.0000)
   6 Pd     2.830098    6.535832   10.000000    ( 0.0000,  0.0000,  0.0000)
   7 Ag     5.660196    6.535832   10.000000    ( 0.0000,  0.0000,  0.0000)
   8 Pd     8.490294    6.535832   10.000000    ( 0.0000,  0.0000,  0.0000)
   9 Ag     0.000000    0.000000   12.310765    ( 0.0000,  0.0000,  0.0000)
  10 Ru     2.830098    0.000000   12.310765    ( 0.0000,  0.0000,  0.0000)
  11 Ru     5.660196    0.000000   12.310765    ( 0.0000,  0.0000,  0.0000)
  12 Pd     1.415049    2.450937   12.310765    ( 0.0000,  0.0000,  0.0000)
  13 Ru     4.245147    2.450937   12.310765    ( 0.0000,  0.0000,  0.0000)
  14 Ag     7.075245    2.450937   12.310765    ( 0.0000,  0.0000,  0.0000)
  15 Pd     2.830098    4.901874   12.310765    ( 0.0000,  0.0000,  0.0000)
  16 Ag     5.660196    4.901874   12.310765    ( 0.0000,  0.0000,  0.0000)
  17 Pd     8.490294    4.901874   12.310765    ( 0.0000,  0.0000,  0.0000)
  18 Ag     1.422839    0.836358   14.687202    ( 0.0000,  0.0000,  0.0000)
  19 Ag     4.228290    0.834029   14.668537    ( 0.0000,  0.0000,  0.0000)
  20 Pt     7.000876    0.833422   14.677349    ( 0.0000,  0.0000,  0.0000)
  21 Ag     2.849410    3.275055   14.697646    ( 0.0000,  0.0000,  0.0000)
  22 Ag     5.607020    3.276035   14.715763    ( 0.0000,  0.0000,  0.0000)
  23 Ag     8.407636    3.278571   14.701685    ( 0.0000,  0.0000,  0.0000)
  24 Pd     4.226650    5.664441   14.783889    ( 0.0000,  0.0000,  0.0000)
  25 Pd     7.021524    5.717496   14.695770    ( 0.0000,  0.0000,  0.0000)
  26 Ag     9.810161    5.688371   14.690489    ( 0.0000,  0.0000,  0.0000)
  27 Pt     0.030364    1.654579   17.054310    ( 0.0000,  0.0000,  0.0000)
  28 Pd     2.863636    1.668211   17.080253    ( 0.0000,  0.0000,  0.0000)
  29 Pd     5.584811    1.668389   17.077768    ( 0.0000,  0.0000,  0.0000)
  30 Pd     1.451673    4.084780   17.054426    ( 0.0000,  0.0000,  0.0000)
  31 Ru     4.287216    4.070209   17.299465    ( 0.0000,  0.0000,  0.0000)
  32 Pt     6.976254    4.091014   17.095978    ( 0.0000,  0.0000,  0.0000)
  33 Ag     2.791829    6.501265   17.070936    ( 0.0000,  0.0000,  0.0000)
  34 Pt     5.617052    6.449501   17.092744    ( 0.0000,  0.0000,  0.0000)
  35 Ru     8.289070    6.444709   17.186717    ( 0.0000,  0.0000,  0.0000)
  36 Pd     0.109969    0.038419   19.432145    ( 0.0000,  0.0000,  0.0000)
  37 Ru     2.913932   -0.060119   19.211827    ( 0.0000,  0.0000,  0.0000)
  38 Pd     5.607656    0.003198   19.432032    ( 0.0000,  0.0000,  0.0000)
  39 Pt     1.441354    2.458850   19.369405    ( 0.0000,  0.0000,  0.0000)
  40 Pd     4.211433    2.427374   19.463642    ( 0.0000,  0.0000,  0.0000)
  41 Pd     7.082631    2.483306   19.414916    ( 0.0000,  0.0000,  0.0000)
  42 Pt     2.814800    4.836018   19.384744    ( 0.0000,  0.0000,  0.0000)
  43 Pd     5.686541    4.887569   19.522731    ( 0.0000,  0.0000,  0.0000)
  44 Ru     8.428363    4.985817   19.203811    ( 0.0000,  0.0000,  0.0000)
  45 O      4.244340    0.790151   20.822731    ( 0.0000,  0.0000,  0.0000)

Unit cell:
           periodic     x           y           z      points  spacing
  1. axis:    yes    8.379498    0.000000    0.000000    35     0.2073
  2. axis:    yes    4.189749    7.256858    0.000000    35     0.2073
  3. axis:    no     0.000000    0.000000   29.243062   135     0.2166

  Lengths:   8.379498   8.379498  29.243062
  Angles:   90.000000  90.000000  60.000000

Effective grid spacing dv^(1/3) = 0.2207

                     log10-error:    total        iterations:
           time      wfs    density  energy       fermi  poisson
iter:   1  01:03:25  +0.49   +inf  -239.294188    2             
iter:   2  01:04:33  -1.05  -1.20  -211.606529    3             
iter:   3  01:05:40  -1.33  -1.31  -243.883748    4             
iter:   4  01:06:46  -1.29  -1.24  -246.425701    3             
iter:   5  01:07:50  -1.46  -1.24  -195.909469    36            
iter:   6  01:08:55  -1.91  -1.48  -189.151242    35            
iter:   7  01:10:00  -2.34  -1.59  -186.729268    4             
iter:   8  01:11:05  -2.51  -1.67  -184.227961    3             
iter:   9  01:12:10  -1.96  -1.77  -182.660027    4             
iter:  10  01:13:14  -2.56  -2.01  -184.445839    3             
iter:  11  01:14:19  -3.19  -1.92  -182.498985    2             
iter:  12  01:15:24  -3.35  -2.09  -182.292129    3             
iter:  13  01:16:29  -3.45  -2.17  -182.082317    2             
iter:  14  01:17:34  -3.27  -2.28  -181.976744    3             
iter:  15  01:18:39  -3.68  -2.42  -181.932301    3             
iter:  16  01:19:44  -3.58  -2.47  -182.156641    2             
iter:  17  01:20:49  -3.61  -2.37  -182.192650    3             
iter:  18  01:21:53  -3.64  -2.33  -181.872483    3             
iter:  19  01:22:58  -3.94  -2.63  -181.774508    3             
iter:  20  01:24:03  -4.15  -2.89  -181.768030    2             
iter:  21  01:25:07  -4.72  -2.99  -181.765128    2             
iter:  22  01:26:13  -4.57  -3.04  -181.765513    2             
iter:  23  01:27:17  -5.21  -3.02  -181.760735    2             
iter:  24  01:28:22  -5.26  -3.13  -181.764110    3             
iter:  25  01:29:31  -4.98  -3.17  -181.766952    2             
iter:  26  01:30:43  -5.53  -3.06  -181.760064    2             
iter:  27  01:31:56  -5.49  -3.26  -181.760141    2             
iter:  28  01:33:08  -5.69  -3.30  -181.760184    2             
iter:  29  01:34:21  -5.68  -3.34  -181.757805    2             
iter:  30  01:35:34  -5.81  -3.53  -181.760733    2             
iter:  31  01:36:46  -6.26  -3.53  -181.758389    2             
iter:  32  01:37:57  -6.16  -3.59  -181.758157    2             
iter:  33  01:39:06  -6.76  -3.78  -181.757837    2             
iter:  34  01:40:15  -6.56  -3.84  -181.757983    2             
iter:  35  01:41:24  -6.41  -3.91  -181.757471    2             
iter:  36  01:42:34  -6.34  -4.03  -181.758973    2             
iter:  37  01:43:42  -6.98  -3.69  -181.757914    2             
iter:  38  01:44:51  -6.86  -4.13  -181.757466    2             
iter:  39  01:46:00  -7.17  -4.25  -181.757406    2             
iter:  40  01:47:09  -7.51  -4.33  -181.757464    2             

Converged after 40 iterations.

Dipole moment: (24.506577, 20.888286, -0.361121) |e|*Ang

Energy contributions relative to reference atoms: (reference = -9073453.423555)

Kinetic:       -178.244001
Potential:      +32.147414
External:        +0.000000
XC:             -30.262042
Entropy (-ST):   -2.052029
Local:           -4.372820
--------------------------
Free energy:   -182.783478
Extrapolated:  -181.757464

Fermi level: 0.75743

Showing only first 2 kpts
 Kpt  Band  Eigenvalues  Occupancy
  0   367      0.73346    0.13991
  0   368      0.77217    0.11580
  0   369      0.79267    0.10320
  0   370      0.84766    0.07215

  1   367      0.64292    0.18965
  1   368      0.67392    0.17436
  1   369      0.69620    0.16212
  1   370      0.72103    0.14750



Forces in eV/Ang:
  0 Pd    0.08838    0.50813   -0.42567
  1 Ag    0.11249    0.48808   -0.51574
  2 Pt   -0.23024    0.52268    0.83392
  3 Pd    0.09671    0.03569   -0.07678
  4 Pd    0.12190   -0.37962    0.19529
  5 Pt   -0.13684   -0.29410   -0.09613
  6 Pd   -0.17067   -0.38610   -0.05748
  7 Ag   -0.12120   -0.45692   -0.71829
  8 Pd   -0.25724   -0.30593    0.27965
  9 Ag    0.51717    0.21941    0.43888
 10 Ru    2.20588    1.28191    0.39810
 11 Ru   -1.85330    0.89285   -0.35274
 12 Pd    1.12606   -0.25731    0.00725
 13 Ru   -0.52490   -1.48974   -0.87906
 14 Ag   -0.45025    0.12722    0.28787
 15 Pd    0.18930   -0.58481    0.09607
 16 Ag   -0.18390   -0.38638    0.34341
 17 Pd   -0.37993    0.54804   -0.02012
 18 Ag   -0.02462   -0.00832    0.01262
 19 Ag   -0.01797   -0.00030    0.03153
 20 Pt    0.00066   -0.06662   -0.01848
 21 Ag    0.01218    0.00455    0.02669
 22 Ag    0.00870   -0.01974    0.01317
 23 Ag   -0.01380    0.00173    0.02692
 24 Pd   -0.04462    0.01670   -0.14332
 25 Pd    0.01241    0.02107    0.07351
 26 Ag   -0.00195   -0.00642    0.02970
 27 Pt    0.00115    0.03844    0.02482
 28 Pd   -0.06566   -0.03680   -0.10288
 29 Pd    0.06579   -0.01660   -0.17746
 30 Pd   -0.00153   -0.02750    0.04093
 31 Ru   -0.04910   -0.02444    0.09530
 32 Pt   -0.00958   -0.06715    0.03662
 33 Ag   -0.01166    0.05641    0.10822
 34 Pt    0.04630    0.04927    0.10646
 35 Ru   -0.11737   -0.11282   -0.28511
 36 Pd    0.07680   -0.01354   -0.04670
 37 Ru    0.80423    0.59052    1.57963
 38 Pd    0.22878   -0.12206    0.48502
 39 Pt   -0.22782    0.11027   -0.01977
 40 Pd    0.01195    0.18242    0.31857
 41 Pd    0.11543    0.12442   -0.02068
 42 Pt   -0.02886    0.02449   -0.15779
 43 Pd   -0.03941    0.08446   -0.14036
 44 Ru    0.02949   -0.44969   -0.11767
 45 O    -0.85153   -0.36989   -1.61199

System changes: positions 

Initializing position-dependent things.

Density initialized from wave functions
                                            
                                            
                                            
                                            
                                            
                                            
                 Pt     Pd     Ru           
            Pt    OPd     Pd                
                  Ag     Pt    Ru           
       Pd    PRu    RPd    Pt               
                                            
        Pt     Pd    PPd    Pd    Ag        
                                            
                Ag     Ag     Ag            
           Ag     Ag     Pt                 
                 Pd     Ag     Pd           
            Pd     Ru     Ag                
                  Pd     Ag     Pd          
       Ag    PRu    PRu    Pt               
        Pd     Ag     Pt                    
                                            
                                            
                                            
                                            
                                            

Positions:
   0 Pd     0.000000    1.633958   10.000000    ( 0.0000,  0.0000,  0.0000)
   1 Ag     2.830098    1.633958   10.000000    ( 0.0000,  0.0000,  0.0000)
   2 Pt     5.660196    1.633958   10.000000    ( 0.0000,  0.0000,  0.0000)
   3 Pd     1.415049    4.084895   10.000000    ( 0.0000,  0.0000,  0.0000)
   4 Pd     4.245147    4.084895   10.000000    ( 0.0000,  0.0000,  0.0000)
   5 Pt     7.075245    4.084895   10.000000    ( 0.0000,  0.0000,  0.0000)
   6 Pd     2.830098    6.535832   10.000000    ( 0.0000,  0.0000,  0.0000)
   7 Ag     5.660196    6.535832   10.000000    ( 0.0000,  0.0000,  0.0000)
   8 Pd     8.490294    6.535832   10.000000    ( 0.0000,  0.0000,  0.0000)
   9 Ag     0.000000    0.000000   12.310765    ( 0.0000,  0.0000,  0.0000)
  10 Ru     2.830098    0.000000   12.310765    ( 0.0000,  0.0000,  0.0000)
  11 Ru     5.660196    0.000000   12.310765    ( 0.0000,  0.0000,  0.0000)
  12 Pd     1.415049    2.450937   12.310765    ( 0.0000,  0.0000,  0.0000)
  13 Ru     4.245147    2.450937   12.310765    ( 0.0000,  0.0000,  0.0000)
  14 Ag     7.075245    2.450937   12.310765    ( 0.0000,  0.0000,  0.0000)
  15 Pd     2.830098    4.901874   12.310765    ( 0.0000,  0.0000,  0.0000)
  16 Ag     5.660196    4.901874   12.310765    ( 0.0000,  0.0000,  0.0000)
  17 Pd     8.490294    4.901874   12.310765    ( 0.0000,  0.0000,  0.0000)
  18 Ag     1.420377    0.835527   14.688464    ( 0.0000,  0.0000,  0.0000)
  19 Ag     4.226494    0.833998   14.671690    ( 0.0000,  0.0000,  0.0000)
  20 Pt     7.000942    0.826759   14.675500    ( 0.0000,  0.0000,  0.0000)
  21 Ag     2.850628    3.275510   14.700315    ( 0.0000,  0.0000,  0.0000)
  22 Ag     5.607889    3.274060   14.717080    ( 0.0000,  0.0000,  0.0000)
  23 Ag     8.406256    3.278744   14.704377    ( 0.0000,  0.0000,  0.0000)
  24 Pd     4.222188    5.666110   14.769558    ( 0.0000,  0.0000,  0.0000)
  25 Pd     7.022766    5.719603   14.703122    ( 0.0000,  0.0000,  0.0000)
  26 Ag     9.809967    5.687729   14.693459    ( 0.0000,  0.0000,  0.0000)
  27 Pt     0.030479    1.658423   17.056792    ( 0.0000,  0.0000,  0.0000)
  28 Pd     2.857070    1.664531   17.069965    ( 0.0000,  0.0000,  0.0000)
  29 Pd     5.591390    1.666729   17.060022    ( 0.0000,  0.0000,  0.0000)
  30 Pd     1.451521    4.082030   17.058519    ( 0.0000,  0.0000,  0.0000)
  31 Ru     4.282305    4.067765   17.308995    ( 0.0000,  0.0000,  0.0000)
  32 Pt     6.975296    4.084299   17.099641    ( 0.0000,  0.0000,  0.0000)
  33 Ag     2.790663    6.506906   17.081758    ( 0.0000,  0.0000,  0.0000)
  34 Pt     5.621682    6.454428   17.103390    ( 0.0000,  0.0000,  0.0000)
  35 Ru     8.277333    6.433427   17.158206    ( 0.0000,  0.0000,  0.0000)
  36 Pd     0.117649    0.037065   19.427475    ( 0.0000,  0.0000,  0.0000)
  37 Ru     2.994355   -0.001067   19.369790    ( 0.0000,  0.0000,  0.0000)
  38 Pd     5.630534   -0.009008   19.480534    ( 0.0000,  0.0000,  0.0000)
  39 Pt     1.418572    2.469877   19.367428    ( 0.0000,  0.0000,  0.0000)
  40 Pd     4.212628    2.445616   19.495499    ( 0.0000,  0.0000,  0.0000)
  41 Pd     7.094174    2.495748   19.412848    ( 0.0000,  0.0000,  0.0000)
  42 Pt     2.811914    4.838467   19.368965    ( 0.0000,  0.0000,  0.0000)
  43 Pd     5.682600    4.896015   19.508695    ( 0.0000,  0.0000,  0.0000)
  44 Ru     8.431312    4.940848   19.192045    ( 0.0000,  0.0000,  0.0000)
  45 O      4.159187    0.753163   20.661532    ( 0.0000,  0.0000,  0.0000)

Unit cell:
           periodic     x           y           z      points  spacing
  1. axis:    yes    8.379498    0.000000    0.000000    35     0.2073
  2. axis:    yes    4.189749    7.256858    0.000000    35     0.2073
  3. axis:    no     0.000000    0.000000   29.243062   135     0.2166

  Lengths:   8.379498   8.379498  29.243062
  Angles:   90.000000  90.000000  60.000000

Effective grid spacing dv^(1/3) = 0.2207

                     log10-error:    total        iterations:
           time      wfs    density  energy       fermi  poisson
iter:   1  01:48:49  -1.66   +inf  -186.080302    4             
iter:   2  01:49:58  -2.15  -2.07  -185.145638    35            
iter:   3  01:51:06  -2.24  -2.01  -201.959354    3             
iter:   4  01:52:16  -2.25  -1.60  -187.887701    4             
iter:   5  01:53:25  -3.12  -1.86  -183.318482    3             
iter:   6  01:54:34  -3.63  -2.32  -182.594284    3             
iter:   7  01:55:43  -3.31  -2.51  -182.308966    3             
iter:   8  01:56:51  -4.07  -2.70  -182.348606    2             
iter:   9  01:58:01  -3.96  -2.61  -182.389475    2             
iter:  10  01:59:10  -4.14  -2.50  -182.266268    3             
iter:  11  02:00:19  -4.48  -2.77  -182.244171    3             
iter:  12  02:01:28  -4.18  -2.78  -182.229341    2             
iter:  13  02:02:37  -4.18  -2.81  -182.205631    3             
iter:  14  02:03:46  -4.78  -3.01  -182.211099    2             
iter:  15  02:04:55  -5.05  -2.94  -182.184653    2             
iter:  16  02:06:04  -5.55  -3.35  -182.186144    2             
iter:  17  02:07:13  -5.54  -3.36  -182.183852    2             
iter:  18  02:08:22  -5.92  -3.50  -182.182930    2             
iter:  19  02:09:31  -5.79  -3.62  -182.185149    2             
iter:  20  02:10:40  -5.42  -3.51  -182.185926    2             
iter:  21  02:11:49  -5.77  -3.68  -182.183118    2             
iter:  22  02:12:58  -6.47  -3.71  -182.183624    2             
iter:  23  02:14:10  -6.72  -3.96  -182.183857    2             
iter:  24  02:15:22  -6.46  -3.91  -182.183377    2             
iter:  25  02:16:34  -6.64  -4.13  -182.183537    2             
iter:  26  02:17:45  -6.55  -4.04  -182.183500    2             
iter:  27  02:18:58  -7.36  -4.41  -182.183228    2             
iter:  28  02:20:10  -7.63  -4.28  -182.183369    2             

Converged after 28 iterations.

Dipole moment: (24.029242, 18.406324, -0.214519) |e|*Ang

Energy contributions relative to reference atoms: (reference = -9073453.423555)

Kinetic:       -169.765047
Potential:      +24.626876
External:        +0.000000
XC:             -31.610806
Entropy (-ST):   -2.050296
Local:           -4.409244
--------------------------
Free energy:   -183.208517
Extrapolated:  -182.183369

Fermi level: 0.83393

Showing only first 2 kpts
 Kpt  Band  Eigenvalues  Occupancy
  0   367      0.80396    0.14359
  0   368      0.85056    0.11463
  0   369      0.88577    0.09330
  0   370      0.93325    0.06757

  1   367      0.71977    0.18949
  1   368      0.76272    0.16772
  1   369      0.78601    0.15439
  1   370      0.79719    0.14771



Forces in eV/Ang:
  0 Pd    0.09940    0.50748   -0.41454
  1 Ag    0.10349    0.49518   -0.51351
  2 Pt   -0.23465    0.51972    0.84275
  3 Pd    0.10872    0.03491   -0.06606
  4 Pd    0.10538   -0.38144    0.20417
  5 Pt   -0.13183   -0.29036   -0.07897
  6 Pd   -0.17524   -0.39081   -0.05235
  7 Ag   -0.12453   -0.45070   -0.70976
  8 Pd   -0.24734   -0.30920    0.28244
  9 Ag    0.52457    0.22711    0.41866
 10 Ru    2.20316    1.27702    0.42719
 11 Ru   -1.85062    0.88396   -0.33857
 12 Pd    1.11783   -0.25197    0.01328
 13 Ru   -0.52780   -1.48018   -0.86806
 14 Ag   -0.43650    0.13491    0.29357
 15 Pd    0.18004   -0.59042    0.11037
 16 Ag   -0.17258   -0.39070    0.35546
 17 Pd   -0.38365    0.53837   -0.00321
 18 Ag   -0.01995    0.00297    0.00183
 19 Ag   -0.01436   -0.00020   -0.02813
 20 Pt   -0.00236   -0.01030   -0.04210
 21 Ag   -0.00405   -0.00467    0.01109
 22 Ag   -0.00011    0.02015   -0.02781
 23 Ag   -0.00528   -0.00420   -0.00875
 24 Pd   -0.00258   -0.01144   -0.05197
 25 Pd   -0.04512    0.00948    0.06013
 26 Ag   -0.01360   -0.01295    0.03482
 27 Pt   -0.01529   -0.06718   -0.04145
 28 Pd    0.05184   -0.13909    0.09418
 29 Pd   -0.08048   -0.03573    0.02712
 30 Pd    0.05814   -0.00053   -0.07218
 31 Ru    0.03130   -0.06262   -0.02289
 32 Pt   -0.14233    0.01818   -0.06668
 33 Ag   -0.01469    0.05527    0.03496
 34 Pt    0.15100    0.03213    0.13417
 35 Ru   -0.19141    0.03244    0.45685
 36 Pd    0.15104    0.02857   -0.01166
 37 Ru   -0.28877   -0.41661   -0.19977
 38 Pd    1.10856   -0.42853   -0.32596
 39 Pt   -0.09664    0.10399    0.00279
 40 Pd    0.10343    0.91679   -0.33864
 41 Pd   -0.05546    0.05593   -0.00157
 42 Pt    0.05639    0.03097   -0.01798
 43 Pd    0.07423    0.19131   -0.09620
 44 Ru   -0.01172   -0.10874   -0.20104
 45 O    -1.07291   -0.31359    0.68388

System changes: positions 

Initializing position-dependent things.

Density initialized from wave functions
                                             
                                             
                                             
                                             
                                             
                                             
                 Pt      Pd                  
                               Ru            
            Pt    OPd    PPd    Ru           
                                             
        Pd    PRu    Pd    Pt                
        Pt     Pd     Pd                     
                     Pd     Pd     Ag        
                Ag     Ag     Ag             
                                             
           Ag    PAg    APt    Pd            
                                             
            Pd     Ru     Ag     Pd          
       Ag    PRu    PRu    Pt                
                                             
        Pd     Ag     Pt                     
                                             
                                             
                                             
                                             
                                             

Positions:
   0 Pd     0.000000    1.633958   10.000000    ( 0.0000,  0.0000,  0.0000)
   1 Ag     2.830098    1.633958   10.000000    ( 0.0000,  0.0000,  0.0000)
   2 Pt     5.660196    1.633958   10.000000    ( 0.0000,  0.0000,  0.0000)
   3 Pd     1.415049    4.084895   10.000000    ( 0.0000,  0.0000,  0.0000)
   4 Pd     4.245147    4.084895   10.000000    ( 0.0000,  0.0000,  0.0000)
   5 Pt     7.075245    4.084895   10.000000    ( 0.0000,  0.0000,  0.0000)
   6 Pd     2.830098    6.535832   10.000000    ( 0.0000,  0.0000,  0.0000)
   7 Ag     5.660196    6.535832   10.000000    ( 0.0000,  0.0000,  0.0000)
   8 Pd     8.490294    6.535832   10.000000    ( 0.0000,  0.0000,  0.0000)
   9 Ag     0.000000    0.000000   12.310765    ( 0.0000,  0.0000,  0.0000)
  10 Ru     2.830098    0.000000   12.310765    ( 0.0000,  0.0000,  0.0000)
  11 Ru     5.660196    0.000000   12.310765    ( 0.0000,  0.0000,  0.0000)
  12 Pd     1.415049    2.450937   12.310765    ( 0.0000,  0.0000,  0.0000)
  13 Ru     4.245147    2.450937   12.310765    ( 0.0000,  0.0000,  0.0000)
  14 Ag     7.075245    2.450937   12.310765    ( 0.0000,  0.0000,  0.0000)
  15 Pd     2.830098    4.901874   12.310765    ( 0.0000,  0.0000,  0.0000)
  16 Ag     5.660196    4.901874   12.310765    ( 0.0000,  0.0000,  0.0000)
  17 Pd     8.490294    4.901874   12.310765    ( 0.0000,  0.0000,  0.0000)
  18 Ag     1.417195    0.835354   14.689315    ( 0.0000,  0.0000,  0.0000)
  19 Ag     4.224190    0.833964   14.670775    ( 0.0000,  0.0000,  0.0000)
  20 Pt     7.000759    0.822210   14.670591    ( 0.0000,  0.0000,  0.0000)
  21 Ag     2.850908    3.275322   14.702785    ( 0.0000,  0.0000,  0.0000)
  22 Ag     5.608348    3.274868   14.715205    ( 0.0000,  0.0000,  0.0000)
  23 Ag     8.405021    3.278447   14.705015    ( 0.0000,  0.0000,  0.0000)
  24 Pd     4.219541    5.665947   14.756999    ( 0.0000,  0.0000,  0.0000)
  25 Pd     7.019242    5.721621   14.712674    ( 0.0000,  0.0000,  0.0000)
  26 Ag     9.808598    5.686180   14.698297    ( 0.0000,  0.0000,  0.0000)
  27 Pt     0.029120    1.654252   17.054278    ( 0.0000,  0.0000,  0.0000)
  28 Pd     2.858348    1.649618   17.073171    ( 0.0000,  0.0000,  0.0000)
  29 Pd     5.587458    1.662512   17.052972    ( 0.0000,  0.0000,  0.0000)
  30 Pd     1.456842    4.080498   17.054018    ( 0.0000,  0.0000,  0.0000)
  31 Ru     4.282566    4.060627   17.312006    ( 0.0000,  0.0000,  0.0000)
  32 Pt     6.961550    4.082368   17.095418    ( 0.0000,  0.0000,  0.0000)
  33 Ag     2.788669    6.515085   17.090843    ( 0.0000,  0.0000,  0.0000)
  34 Pt     5.638213    6.460071   17.121601    ( 0.0000,  0.0000,  0.0000)
  35 Ru     8.253213    6.430358   17.185292    ( 0.0000,  0.0000,  0.0000)
  36 Pd     0.135829    0.038990   19.423873    ( 0.0000,  0.0000,  0.0000)
  37 Ru     3.010886   -0.007944   19.436408    ( 0.0000,  0.0000,  0.0000)
  38 Pd     5.745905   -0.055419   19.476394    ( 0.0000,  0.0000,  0.0000)
  39 Pt     1.397305    2.485488   19.366621    ( 0.0000,  0.0000,  0.0000)
  40 Pd     4.222886    2.540664   19.481204    ( 0.0000,  0.0000,  0.0000)
  41 Pd     7.095245    2.507656   19.411587    ( 0.0000,  0.0000,  0.0000)
  42 Pt     2.815599    4.842665   19.358784    ( 0.0000,  0.0000,  0.0000)
  43 Pd     5.687374    4.918351   19.492185    ( 0.0000,  0.0000,  0.0000)
  44 Ru     8.431813    4.906491   19.167014    ( 0.0000,  0.0000,  0.0000)
  45 O      4.013547    0.704069   20.638165    ( 0.0000,  0.0000,  0.0000)

Unit cell:
           periodic     x           y           z      points  spacing
  1. axis:    yes    8.379498    0.000000    0.000000    35     0.2073
  2. axis:    yes    4.189749    7.256858    0.000000    35     0.2073
  3. axis:    no     0.000000    0.000000   29.243062   135     0.2166

  Lengths:   8.379498   8.379498  29.243062
  Angles:   90.000000  90.000000  60.000000

Effective grid spacing dv^(1/3) = 0.2207

                     log10-error:    total        iterations:
           time      wfs    density  energy       fermi  poisson
iter:   1  02:21:54  -1.67   +inf  -188.480440    4             
iter:   2  02:23:04  -1.23  -1.82  -314.391569    36            
iter:   3  02:24:12  -1.66  -1.24  -186.715075    38            
iter:   4  02:25:21  -2.53  -1.95  -182.875096    36            
iter:   5  02:26:31  -3.07  -2.41  -182.905165    3             
iter:   6  02:27:41  -3.78  -2.28  -182.454350    2             
iter:   7  02:28:50  -3.65  -2.61  -182.937778    2             
iter:   8  02:29:59  -3.78  -2.30  -182.308023    3             
iter:   9  02:31:08  -4.33  -2.73  -182.256902    3             
iter:  10  02:32:17  -4.34  -2.93  -182.336876    2             
iter:  11  02:33:27  -4.11  -2.63  -182.242561    3             
iter:  12  02:34:36  -4.28  -2.98  -182.235507    2             
iter:  13  02:35:45  -4.86  -2.91  -182.213148    2             
iter:  14  02:36:54  -5.28  -3.27  -182.210203    2             
iter:  15  02:38:03  -5.71  -3.40  -182.209291    2             
iter:  16  02:39:10  -5.92  -3.52  -182.210845    2             
iter:  17  02:40:16  -5.63  -3.38  -182.209409    2             
iter:  18  02:41:24  -5.77  -3.64  -182.208614    2             
iter:  19  02:42:32  -5.95  -3.70  -182.209981    2             
iter:  20  02:43:41  -5.85  -3.70  -182.208628    2             
iter:  21  02:44:49  -6.27  -3.90  -182.209684    2             
iter:  22  02:45:57  -6.44  -3.76  -182.209584    2             
iter:  23  02:47:05  -6.79  -4.02  -182.209036    2             
iter:  24  02:48:14  -6.81  -4.04  -182.208928    2             
iter:  25  02:49:22  -6.99  -4.21  -182.209326    2             
iter:  26  02:50:30  -6.98  -4.04  -182.209079    2             
iter:  27  02:51:38  -7.41  -4.40  -182.209133    2             

Converged after 27 iterations.

Dipole moment: (25.656854, 20.250156, -0.171092) |e|*Ang

Energy contributions relative to reference atoms: (reference = -9073453.423555)

Kinetic:       -159.676621
Potential:      +16.050272
External:        +0.000000
XC:             -33.027750
Entropy (-ST):   -2.032016
Local:           -4.539027
--------------------------
Free energy:   -183.225141
Extrapolated:  -182.209133

Fermi level: 0.85605

Showing only first 2 kpts
 Kpt  Band  Eigenvalues  Occupancy
  0   367      0.83228    0.13979
  0   368      0.87621    0.11245
  0   369      0.90968    0.09227
  0   370      0.95190    0.06930

  1   367      0.74710    0.18707
  1   368      0.78591    0.16713
  1   369      0.80513    0.15615
  1   370      0.82645    0.14337



Forces in eV/Ang:
  0 Pd    0.10440    0.50559   -0.41622
  1 Ag    0.09950    0.49748   -0.51756
  2 Pt   -0.23373    0.52057    0.83877
  3 Pd    0.10926    0.03180   -0.06861
  4 Pd    0.10519   -0.38051    0.20335
  5 Pt   -0.13359   -0.28809   -0.07787
  6 Pd   -0.17294   -0.39047   -0.05510
  7 Ag   -0.12627   -0.45043   -0.71083
  8 Pd   -0.24893   -0.31354    0.27519
  9 Ag    0.53396    0.23146    0.39484
 10 Ru    2.20095    1.27163    0.43449
 11 Ru   -1.85823    0.87446   -0.32299
 12 Pd    1.11719   -0.25015    0.01767
 13 Ru   -0.53195   -1.47822   -0.86859
 14 Ag   -0.43162    0.13755    0.29050
 15 Pd    0.17041   -0.59298    0.11168
 16 Ag   -0.15955   -0.38500    0.35221
 17 Pd   -0.38506    0.54258    0.01366
 18 Ag   -0.00614    0.00253    0.00589
 19 Ag   -0.00713   -0.01725   -0.02024
 20 Pt   -0.01096    0.01740   -0.02256
 21 Ag   -0.00548   -0.02828    0.01242
 22 Ag   -0.00931    0.00743   -0.04077
 23 Ag   -0.01039   -0.00411   -0.00829
 24 Pd    0.02153    0.00381    0.08605
 25 Pd   -0.04240   -0.00291    0.03705
 26 Ag   -0.03770    0.00805    0.04297
 27 Pt   -0.03711   -0.01187   -0.06131
 28 Pd    0.03408   -0.09174    0.18442
 29 Pd   -0.09448   -0.03887    0.14121
 30 Pd    0.06123   -0.00905   -0.13309
 31 Ru    0.01085    0.04651   -0.28472
 32 Pt   -0.08298   -0.07384   -0.17445
 33 Ag    0.08261   -0.03535   -0.22861
 34 Pt   -0.15582    0.00419   -0.13943
 35 Ru    0.12533    0.13072    0.44047
 36 Pd    0.23544    0.10576    0.06551
 37 Ru   -1.58695   -1.46746   -2.19231
 38 Pd   -0.06385    0.18843   -0.04724
 39 Pt    0.05937    0.12992   -0.02453
 40 Pd    0.13830   -0.13070   -0.02032
 41 Pd   -0.18565   -0.04239   -0.00703
 42 Pt    0.10540   -0.07068    0.08531
 43 Pd    0.14348    0.17597    0.08083
 44 Ru    0.07901    0.05747    0.00761
 45 O     1.02086    1.01886    2.19530

System changes: positions 

Initializing position-dependent things.

Density initialized from wave functions
                                            
                                            
                                            
                                            
                                            
                                            
                 Pt     Pd     Ru           
            Pt    OPd     Pd                
                  Ag     Pt    Ru           
       Pd    PRu    RPd    Pt               
                                            
        Pt     Pd    PPd    Pd    Ag        
                                            
                Ag     Ag     Ag            
           Ag     Ag     Pt                 
                 Pd     Ag     Pd           
            Pd     Ru     Ag                
                  Pd     Ag     Pd          
       Ag    PRu    PRu    Pt               
        Pd     Ag     Pt                    
                                            
                                            
                                            
                                            
                                            

Positions:
   0 Pd     0.000000    1.633958   10.000000    ( 0.0000,  0.0000,  0.0000)
   1 Ag     2.830098    1.633958   10.000000    ( 0.0000,  0.0000,  0.0000)
   2 Pt     5.660196    1.633958   10.000000    ( 0.0000,  0.0000,  0.0000)
   3 Pd     1.415049    4.084895   10.000000    ( 0.0000,  0.0000,  0.0000)
   4 Pd     4.245147    4.084895   10.000000    ( 0.0000,  0.0000,  0.0000)
   5 Pt     7.075245    4.084895   10.000000    ( 0.0000,  0.0000,  0.0000)
   6 Pd     2.830098    6.535832   10.000000    ( 0.0000,  0.0000,  0.0000)
   7 Ag     5.660196    6.535832   10.000000    ( 0.0000,  0.0000,  0.0000)
   8 Pd     8.490294    6.535832   10.000000    ( 0.0000,  0.0000,  0.0000)
   9 Ag     0.000000    0.000000   12.310765    ( 0.0000,  0.0000,  0.0000)
  10 Ru     2.830098    0.000000   12.310765    ( 0.0000,  0.0000,  0.0000)
  11 Ru     5.660196    0.000000   12.310765    ( 0.0000,  0.0000,  0.0000)
  12 Pd     1.415049    2.450937   12.310765    ( 0.0000,  0.0000,  0.0000)
  13 Ru     4.245147    2.450937   12.310765    ( 0.0000,  0.0000,  0.0000)
  14 Ag     7.075245    2.450937   12.310765    ( 0.0000,  0.0000,  0.0000)
  15 Pd     2.830098    4.901874   12.310765    ( 0.0000,  0.0000,  0.0000)
  16 Ag     5.660196    4.901874   12.310765    ( 0.0000,  0.0000,  0.0000)
  17 Pd     8.490294    4.901874   12.310765    ( 0.0000,  0.0000,  0.0000)
  18 Ag     1.418773    0.835440   14.688893    ( 0.0000,  0.0000,  0.0000)
  19 Ag     4.225333    0.833981   14.671229    ( 0.0000,  0.0000,  0.0000)
  20 Pt     7.000850    0.824467   14.673026    ( 0.0000,  0.0000,  0.0000)
  21 Ag     2.850769    3.275415   14.701559    ( 0.0000,  0.0000,  0.0000)
  22 Ag     5.608120    3.274468   14.716135    ( 0.0000,  0.0000,  0.0000)
  23 Ag     8.405633    3.278595   14.704698    ( 0.0000,  0.0000,  0.0000)
  24 Pd     4.220854    5.666028   14.763230    ( 0.0000,  0.0000,  0.0000)
  25 Pd     7.020990    5.720620   14.707935    ( 0.0000,  0.0000,  0.0000)
  26 Ag     9.809277    5.686948   14.695897    ( 0.0000,  0.0000,  0.0000)
  27 Pt     0.029794    1.656321   17.055525    ( 0.0000,  0.0000,  0.0000)
  28 Pd     2.857714    1.657017   17.071580    ( 0.0000,  0.0000,  0.0000)
  29 Pd     5.589409    1.664604   17.056470    ( 0.0000,  0.0000,  0.0000)
  30 Pd     1.454202    4.081258   17.056251    ( 0.0000,  0.0000,  0.0000)
  31 Ru     4.282437    4.064168   17.310512    ( 0.0000,  0.0000,  0.0000)
  32 Pt     6.968370    4.083326   17.097513    ( 0.0000,  0.0000,  0.0000)
  33 Ag     2.789658    6.511027   17.086336    ( 0.0000,  0.0000,  0.0000)
  34 Pt     5.630012    6.457271   17.112566    ( 0.0000,  0.0000,  0.0000)
  35 Ru     8.265180    6.431880   17.171853    ( 0.0000,  0.0000,  0.0000)
  36 Pd     0.126809    0.038035   19.425660    ( 0.0000,  0.0000,  0.0000)
  37 Ru     3.002684   -0.004532   19.403356    ( 0.0000,  0.0000,  0.0000)
  38 Pd     5.688665   -0.032393   19.478448    ( 0.0000,  0.0000,  0.0000)
  39 Pt     1.407856    2.477743   19.367022    ( 0.0000,  0.0000,  0.0000)
  40 Pd     4.217797    2.493507   19.488296    ( 0.0000,  0.0000,  0.0000)
  41 Pd     7.094714    2.501748   19.412213    ( 0.0000,  0.0000,  0.0000)
  42 Pt     2.813771    4.840582   19.363835    ( 0.0000,  0.0000,  0.0000)
  43 Pd     5.685005    4.907269   19.500376    ( 0.0000,  0.0000,  0.0000)
  44 Ru     8.431564    4.923537   19.179433    ( 0.0000,  0.0000,  0.0000)
  45 O      4.085805    0.728426   20.649758    ( 0.0000,  0.0000,  0.0000)

Unit cell:
           periodic     x           y           z      points  spacing
  1. axis:    yes    8.379498    0.000000    0.000000    35     0.2073
  2. axis:    yes    4.189749    7.256858    0.000000    35     0.2073
  3. axis:    no     0.000000    0.000000   29.243062   135     0.2166

  Lengths:   8.379498   8.379498  29.243062
  Angles:   90.000000  90.000000  60.000000

Effective grid spacing dv^(1/3) = 0.2207

                     log10-error:    total        iterations:
           time      wfs    density  energy       fermi  poisson
iter:   1  02:53:16  -2.14   +inf  -188.170426    3             
iter:   2  02:54:24  -1.22  -1.83  -326.330890    36            
iter:   3  02:55:33  -1.65  -1.21  -187.973299    37            
iter:   4  02:56:40  -2.52  -1.90  -182.619221    3             
iter:   5  02:57:50  -3.26  -2.58  -182.403557    3             
iter:   6  02:59:00  -4.07  -2.68  -182.355540    2             
iter:   7  03:00:10  -4.38  -2.83  -182.379240    3             
iter:   8  03:01:19  -4.30  -2.80  -182.337353    2             
iter:   9  03:02:30  -4.67  -2.89  -182.316833    2             
iter:  10  03:03:40  -4.86  -3.17  -182.323319    3             
iter:  11  03:04:50  -4.71  -3.11  -182.310418    2             
iter:  12  03:06:01  -4.95  -3.21  -182.308876    2             
iter:  13  03:07:10  -5.51  -3.33  -182.306644    2             
iter:  14  03:08:19  -6.02  -3.40  -182.305556    2             
iter:  15  03:09:27  -6.21  -3.58  -182.304766    2             
iter:  16  03:10:35  -5.89  -3.57  -182.306082    2             
iter:  17  03:11:43  -5.91  -3.53  -182.304165    2             
iter:  18  03:12:52  -6.56  -3.79  -182.304421    2             
iter:  19  03:14:00  -6.67  -3.88  -182.304138    2             
iter:  20  03:15:09  -6.47  -4.07  -182.304718    2             
iter:  21  03:16:17  -6.43  -4.15  -182.303950    2             
iter:  22  03:17:25  -7.00  -3.92  -182.304185    2             
iter:  23  03:18:33  -7.10  -4.35  -182.304283    2             
iter:  24  03:19:42  -7.35  -4.23  -182.304039    2             
iter:  25  03:20:49  -7.32  -4.32  -182.304108    2             
iter:  26  03:21:58  -7.57  -4.27  -182.304193    2             

Converged after 26 iterations.

Dipole moment: (24.865520, 19.367747, -0.196808) |e|*Ang

Energy contributions relative to reference atoms: (reference = -9073453.423555)

Kinetic:       -166.789582
Potential:      +22.072077
External:        +0.000000
XC:             -32.099993
Entropy (-ST):   -2.043391
Local:           -4.465000
--------------------------
Free energy:   -183.325889
Extrapolated:  -182.304193

Fermi level: 0.84156

Showing only first 2 kpts
 Kpt  Band  Eigenvalues  Occupancy
  0   367      0.81521    0.14137
  0   368      0.85958    0.11377
  0   369      0.89404    0.09293
  0   370      0.93884    0.06858

  1   367      0.72900    0.18876
  1   368      0.77189    0.16686
  1   369      0.79382    0.15429
  1   370      0.80756    0.14605



Forces in eV/Ang:
  0 Pd    0.09947    0.50987   -0.42133
  1 Ag    0.10323    0.49729   -0.51559
  2 Pt   -0.23175    0.51753    0.83521
  3 Pd    0.10803    0.03720   -0.07210
  4 Pd    0.10315   -0.38047    0.19808
  5 Pt   -0.12837   -0.29117   -0.08500
  6 Pd   -0.17879   -0.39111   -0.06031
  7 Ag   -0.12578   -0.45180   -0.71392
  8 Pd   -0.24220   -0.31359    0.27712
  9 Ag    0.52748    0.22981    0.40372
 10 Ru    2.20535    1.27369    0.42822
 11 Ru   -1.85824    0.87679   -0.33825
 12 Pd    1.11680   -0.24838    0.01171
 13 Ru   -0.53137   -1.48111   -0.87374
 14 Ag   -0.43355    0.13608    0.28501
 15 Pd    0.17198   -0.59121    0.10379
 16 Ag   -0.16493   -0.38797    0.35028
 17 Pd   -0.38238    0.54288   -0.00126
 18 Ag   -0.01572    0.00034    0.00191
 19 Ag   -0.00799   -0.01284   -0.02512
 20 Pt   -0.00444    0.00134   -0.02841
 21 Ag   -0.00685   -0.01332    0.00985
 22 Ag   -0.00339    0.01575   -0.03372
 23 Ag   -0.00673   -0.00208   -0.00690
 24 Pd    0.00951    0.00060    0.02355
 25 Pd   -0.04291    0.00169    0.04446
 26 Ag   -0.02719   -0.00191    0.04177
 27 Pt   -0.01904   -0.04191   -0.06521
 28 Pd    0.04972   -0.13289    0.15006
 29 Pd   -0.09946   -0.04982    0.07959
 30 Pd    0.05965   -0.00252   -0.11875
 31 Ru    0.02281   -0.01776   -0.15859
 32 Pt   -0.10851   -0.02824   -0.13993
 33 Ag    0.02034    0.01589   -0.09789
 34 Pt    0.00096    0.02793   -0.01511
 35 Ru   -0.03602    0.10348    0.45257
 36 Pd    0.17834    0.07780    0.02320
 37 Ru   -0.64855   -0.73257   -0.90511
 38 Pd    0.42092   -0.05260   -0.11578
 39 Pt   -0.02289    0.11849   -0.03655
 40 Pd    0.15505    0.30636   -0.14055
 41 Pd   -0.15064   -0.01604    0.02618
 42 Pt    0.06582   -0.01602    0.05337
 43 Pd    0.10629    0.16806   -0.00711
 44 Ru    0.03405   -0.01528   -0.11329
 45 O    -0.06160    0.27866    1.03874

System changes: positions 

Initializing position-dependent things.

Density initialized from wave functions
                                             
                                             
                                             
                                             
                                             
                                             
                         Pd                  
                 Pt            Ru            
            Pt    OPd    PPd    Ru           
                                             
        Pd    PRu    Pd    Pt                
        Pt     Pd     Pd                     
                     Pd     Pd     Ag        
                Ag     Ag     Ag             
                                             
           Ag    PAg    APt    Pd            
                                             
            Pd     Ru     Ag     Pd          
       Ag    PRu    PRu    Pt                
                                             
        Pd     Ag     Pt                     
                                             
                                             
                                             
                                             
                                             

Positions:
   0 Pd     0.000000    1.633958   10.000000    ( 0.0000,  0.0000,  0.0000)
   1 Ag     2.830098    1.633958   10.000000    ( 0.0000,  0.0000,  0.0000)
   2 Pt     5.660196    1.633958   10.000000    ( 0.0000,  0.0000,  0.0000)
   3 Pd     1.415049    4.084895   10.000000    ( 0.0000,  0.0000,  0.0000)
   4 Pd     4.245147    4.084895   10.000000    ( 0.0000,  0.0000,  0.0000)
   5 Pt     7.075245    4.084895   10.000000    ( 0.0000,  0.0000,  0.0000)
   6 Pd     2.830098    6.535832   10.000000    ( 0.0000,  0.0000,  0.0000)
   7 Ag     5.660196    6.535832   10.000000    ( 0.0000,  0.0000,  0.0000)
   8 Pd     8.490294    6.535832   10.000000    ( 0.0000,  0.0000,  0.0000)
   9 Ag     0.000000    0.000000   12.310765    ( 0.0000,  0.0000,  0.0000)
  10 Ru     2.830098    0.000000   12.310765    ( 0.0000,  0.0000,  0.0000)
  11 Ru     5.660196    0.000000   12.310765    ( 0.0000,  0.0000,  0.0000)
  12 Pd     1.415049    2.450937   12.310765    ( 0.0000,  0.0000,  0.0000)
  13 Ru     4.245147    2.450937   12.310765    ( 0.0000,  0.0000,  0.0000)
  14 Ag     7.075245    2.450937   12.310765    ( 0.0000,  0.0000,  0.0000)
  15 Pd     2.830098    4.901874   12.310765    ( 0.0000,  0.0000,  0.0000)
  16 Ag     5.660196    4.901874   12.310765    ( 0.0000,  0.0000,  0.0000)
  17 Pd     8.490294    4.901874   12.310765    ( 0.0000,  0.0000,  0.0000)
  18 Ag     1.416235    0.835228   14.689504    ( 0.0000,  0.0000,  0.0000)
  19 Ag     4.223846    0.832624   14.669441    ( 0.0000,  0.0000,  0.0000)
  20 Pt     7.000393    0.822437   14.669230    ( 0.0000,  0.0000,  0.0000)
  21 Ag     2.850415    3.274137   14.703500    ( 0.0000,  0.0000,  0.0000)
  22 Ag     5.608041    3.275603   14.712865    ( 0.0000,  0.0000,  0.0000)
  23 Ag     8.404461    3.278408   14.704781    ( 0.0000,  0.0000,  0.0000)
  24 Pd     4.220422    5.666558   14.760868    ( 0.0000,  0.0000,  0.0000)
  25 Pd     7.016637    5.721517   14.715258    ( 0.0000,  0.0000,  0.0000)
  26 Ag     9.806289    5.686474   14.701409    ( 0.0000,  0.0000,  0.0000)
  27 Pt     0.027750    1.652779   17.049248    ( 0.0000,  0.0000,  0.0000)
  28 Pd     2.861128    1.641153   17.084567    ( 0.0000,  0.0000,  0.0000)
  29 Pd     5.580626    1.658658   17.059334    ( 0.0000,  0.0000,  0.0000)
  30 Pd     1.460727    4.080119   17.044703    ( 0.0000,  0.0000,  0.0000)
  31 Ru     4.283442    4.061187   17.296781    ( 0.0000,  0.0000,  0.0000)
  32 Pt     6.955908    4.078334   17.083636    ( 0.0000,  0.0000,  0.0000)
  33 Ag     2.791341    6.514785   17.079696    ( 0.0000,  0.0000,  0.0000)
  34 Pt     5.632408    6.461938   17.115093    ( 0.0000,  0.0000,  0.0000)
  35 Ru     8.256632    6.439329   17.212766    ( 0.0000,  0.0000,  0.0000)
  36 Pd     0.148773    0.045920   19.426548    ( 0.0000,  0.0000,  0.0000)
  37 Ru     2.958611   -0.064895   19.357467    ( 0.0000,  0.0000,  0.0000)
  38 Pd     5.746128   -0.044126   19.479911    ( 0.0000,  0.0000,  0.0000)
  39 Pt     1.397700    2.494235   19.362577    ( 0.0000,  0.0000,  0.0000)
  40 Pd     4.235001    2.536438   19.481812    ( 0.0000,  0.0000,  0.0000)
  41 Pd     7.082276    2.504320   19.414293    ( 0.0000,  0.0000,  0.0000)
  42 Pt     2.820066    4.839848   19.364328    ( 0.0000,  0.0000,  0.0000)
  43 Pd     5.695307    4.928619   19.494651    ( 0.0000,  0.0000,  0.0000)
  44 Ru     8.436007    4.907073   19.162719    ( 0.0000,  0.0000,  0.0000)
  45 O      4.046457    0.744196   20.711283    ( 0.0000,  0.0000,  0.0000)

Unit cell:
           periodic     x           y           z      points  spacing
  1. axis:    yes    8.379498    0.000000    0.000000    35     0.2073
  2. axis:    yes    4.189749    7.256858    0.000000    35     0.2073
  3. axis:    no     0.000000    0.000000   29.243062   135     0.2166

  Lengths:   8.379498   8.379498  29.243062
  Angles:   90.000000  90.000000  60.000000

Effective grid spacing dv^(1/3) = 0.2207

                     log10-error:    total        iterations:
           time      wfs    density  energy       fermi  poisson
iter:   1  03:23:37  -1.95   +inf  -184.193384    3             
iter:   2  03:24:45  -2.51  -2.25  -183.808412    3             
iter:   3  03:25:53  -2.35  -2.15  -197.384812    37            
iter:   4  03:27:01  -2.57  -1.69  -183.173524    3             
iter:   5  03:28:09  -3.25  -2.29  -182.621927    3             
iter:   6  03:29:18  -3.84  -2.49  -182.566910    3             
iter:   7  03:30:26  -4.36  -2.56  -182.402218    3             
iter:   8  03:31:34  -4.55  -2.85  -182.375009    2             
iter:   9  03:32:42  -4.40  -2.94  -182.358646    3             
iter:  10  03:33:50  -4.51  -3.13  -182.370896    3             
iter:  11  03:34:58  -4.82  -2.98  -182.352382    3             
iter:  12  03:36:06  -5.07  -3.23  -182.346219    2             
iter:  13  03:37:14  -5.59  -3.45  -182.350125    2             
iter:  14  03:38:24  -5.63  -3.30  -182.347097    2             
iter:  15  03:39:35  -6.32  -3.41  -182.345511    2             
iter:  16  03:40:44  -5.99  -3.62  -182.346029    2             
iter:  17  03:41:53  -5.56  -3.66  -182.345776    2             
iter:  18  03:43:03  -5.99  -3.70  -182.345666    2             
iter:  19  03:44:13  -6.54  -3.72  -182.345636    2             
iter:  20  03:45:23  -6.67  -3.99  -182.345486    2             
iter:  21  03:46:33  -6.28  -3.98  -182.345263    2             
iter:  22  03:47:42  -6.95  -4.26  -182.345551    2             
iter:  23  03:48:50  -7.35  -4.29  -182.345327    2             
iter:  24  03:49:58  -7.23  -4.31  -182.345383    2             
iter:  25  03:51:06  -7.42  -4.53  -182.345453    2             

Converged after 25 iterations.

Dipole moment: (26.682763, 22.558300, -0.274126) |e|*Ang

Energy contributions relative to reference atoms: (reference = -9073453.423555)

Kinetic:       -171.343127
Potential:      +25.770741
External:        +0.000000
XC:             -31.343676
Entropy (-ST):   -2.040689
Local:           -4.409048
--------------------------
Free energy:   -183.365798
Extrapolated:  -182.345453

Fermi level: 0.80368

Showing only first 2 kpts
 Kpt  Band  Eigenvalues  Occupancy
  0   367      0.77767    0.14116
  0   368      0.81637    0.11708
  0   369      0.84831    0.09756
  0   370      0.89524    0.07147

  1   367      0.69303    0.18787
  1   368      0.73847    0.16437
  1   369      0.75036    0.15756
  1   370      0.76249    0.15038



Forces in eV/Ang:
  0 Pd    0.09510    0.51103   -0.41221
  1 Ag    0.10438    0.49774   -0.51079
  2 Pt   -0.22918    0.51881    0.84613
  3 Pd    0.10559    0.03764   -0.06358
  4 Pd    0.10669   -0.38113    0.21102
  5 Pt   -0.13076   -0.29329   -0.07553
  6 Pd   -0.17813   -0.39076   -0.04723
  7 Ag   -0.12554   -0.45331   -0.70607
  8 Pd   -0.24457   -0.31603    0.28493
  9 Ag    0.53021    0.23065    0.39172
 10 Ru    2.20912    1.27613    0.43484
 11 Ru   -1.86734    0.86894   -0.33026
 12 Pd    1.11901   -0.24782    0.01931
 13 Ru   -0.53473   -1.48654   -0.86964
 14 Ag   -0.43375    0.13679    0.28003
 15 Pd    0.16596   -0.59042    0.10703
 16 Ag   -0.15824   -0.38284    0.35357
 17 Pd   -0.38084    0.55052    0.01596
 18 Ag    0.01239    0.01069   -0.00468
 19 Ag   -0.01121   -0.00873    0.01580
 20 Pt   -0.02615    0.01219   -0.01921
 21 Ag    0.00625   -0.03443    0.00614
 22 Ag   -0.02496   -0.02540   -0.04685
 23 Ag   -0.00607   -0.00326   -0.03248
 24 Pd   -0.00358   -0.00725    0.02725
 25 Pd   -0.00817    0.00202    0.01109
 26 Ag   -0.03178    0.00520    0.00789
 27 Pt   -0.03838    0.04344   -0.01322
 28 Pd   -0.01808    0.00594    0.11918
 29 Pd   -0.03632   -0.03768    0.07628
 30 Pd    0.04004   -0.01102   -0.07766
 31 Ru   -0.01225    0.03392   -0.13811
 32 Pt    0.01453   -0.03938   -0.05754
 33 Ag    0.04675   -0.05419   -0.08400
 34 Pt   -0.13202   -0.00660   -0.13063
 35 Ru    0.13710    0.01978    0.04958
 36 Pd    0.09287    0.08891    0.03466
 37 Ru    0.88917    0.46879    0.81113
 38 Pd   -0.47175    0.19982    0.22551
 39 Pt    0.05764    0.11822   -0.01620
 40 Pd   -0.04834   -0.45693    0.16098
 41 Pd   -0.08994   -0.02646   -0.03135
 42 Pt    0.09661   -0.00279   -0.03514
 43 Pd    0.02410   -0.00547    0.04114
 44 Ru    0.08330    0.02710    0.08859
 45 O    -0.60898   -0.28369   -0.68495

System changes: positions 

Initializing position-dependent things.

Density initialized from wave functions
                                            
                                            
                                            
                                            
                                            
                                            
                 Pt     Pd     Ru           
                  OPd     Pd                
            Pt    Ag     Pt    Ru           
       Pd    PRu    RPd    Pt               
                                            
        Pt     Pd    PPd    Pd    Ag        
                                            
                Ag     Ag     Ag            
           Ag     Ag     Pt                 
                 Pd     Ag     Pd           
            Pd     Ru     Ag                
                  Pd     Ag     Pd          
       Ag    PRu    PRu    Pt               
        Pd     Ag     Pt                    
                                            
                                            
                                            
                                            
                                            

Positions:
   0 Pd     0.000000    1.633958   10.000000    ( 0.0000,  0.0000,  0.0000)
   1 Ag     2.830098    1.633958   10.000000    ( 0.0000,  0.0000,  0.0000)
   2 Pt     5.660196    1.633958   10.000000    ( 0.0000,  0.0000,  0.0000)
   3 Pd     1.415049    4.084895   10.000000    ( 0.0000,  0.0000,  0.0000)
   4 Pd     4.245147    4.084895   10.000000    ( 0.0000,  0.0000,  0.0000)
   5 Pt     7.075245    4.084895   10.000000    ( 0.0000,  0.0000,  0.0000)
   6 Pd     2.830098    6.535832   10.000000    ( 0.0000,  0.0000,  0.0000)
   7 Ag     5.660196    6.535832   10.000000    ( 0.0000,  0.0000,  0.0000)
   8 Pd     8.490294    6.535832   10.000000    ( 0.0000,  0.0000,  0.0000)
   9 Ag     0.000000    0.000000   12.310765    ( 0.0000,  0.0000,  0.0000)
  10 Ru     2.830098    0.000000   12.310765    ( 0.0000,  0.0000,  0.0000)
  11 Ru     5.660196    0.000000   12.310765    ( 0.0000,  0.0000,  0.0000)
  12 Pd     1.415049    2.450937   12.310765    ( 0.0000,  0.0000,  0.0000)
  13 Ru     4.245147    2.450937   12.310765    ( 0.0000,  0.0000,  0.0000)
  14 Ag     7.075245    2.450937   12.310765    ( 0.0000,  0.0000,  0.0000)
  15 Pd     2.830098    4.901874   12.310765    ( 0.0000,  0.0000,  0.0000)
  16 Ag     5.660196    4.901874   12.310765    ( 0.0000,  0.0000,  0.0000)
  17 Pd     8.490294    4.901874   12.310765    ( 0.0000,  0.0000,  0.0000)
  18 Ag     1.417319    0.835318   14.689243    ( 0.0000,  0.0000,  0.0000)
  19 Ag     4.224481    0.833203   14.670204    ( 0.0000,  0.0000,  0.0000)
  20 Pt     7.000588    0.823303   14.670850    ( 0.0000,  0.0000,  0.0000)
  21 Ag     2.850566    3.274683   14.702672    ( 0.0000,  0.0000,  0.0000)
  22 Ag     5.608075    3.275118   14.714260    ( 0.0000,  0.0000,  0.0000)
  23 Ag     8.404961    3.278488   14.704746    ( 0.0000,  0.0000,  0.0000)
  24 Pd     4.220606    5.666332   14.761876    ( 0.0000,  0.0000,  0.0000)
  25 Pd     7.018495    5.721134   14.712133    ( 0.0000,  0.0000,  0.0000)
  26 Ag     9.807564    5.686676   14.699057    ( 0.0000,  0.0000,  0.0000)
  27 Pt     0.028623    1.654290   17.051927    ( 0.0000,  0.0000,  0.0000)
  28 Pd     2.859671    1.647923   17.079025    ( 0.0000,  0.0000,  0.0000)
  29 Pd     5.584374    1.661196   17.058112    ( 0.0000,  0.0000,  0.0000)
  30 Pd     1.457942    4.080605   17.049631    ( 0.0000,  0.0000,  0.0000)
  31 Ru     4.283013    4.062459   17.302641    ( 0.0000,  0.0000,  0.0000)
  32 Pt     6.961227    4.080464   17.089559    ( 0.0000,  0.0000,  0.0000)
  33 Ag     2.790623    6.513181   17.082530    ( 0.0000,  0.0000,  0.0000)
  34 Pt     5.631385    6.459947   17.114015    ( 0.0000,  0.0000,  0.0000)
  35 Ru     8.260280    6.436150   17.195306    ( 0.0000,  0.0000,  0.0000)
  36 Pd     0.139400    0.042555   19.426169    ( 0.0000,  0.0000,  0.0000)
  37 Ru     2.977420   -0.039134   19.377051    ( 0.0000,  0.0000,  0.0000)
  38 Pd     5.721605   -0.039119   19.479286    ( 0.0000,  0.0000,  0.0000)
  39 Pt     1.402034    2.487197   19.364474    ( 0.0000,  0.0000,  0.0000)
  40 Pd     4.227659    2.518117   19.484579    ( 0.0000,  0.0000,  0.0000)
  41 Pd     7.087584    2.503222   19.413405    ( 0.0000,  0.0000,  0.0000)
  42 Pt     2.817380    4.840161   19.364118    ( 0.0000,  0.0000,  0.0000)
  43 Pd     5.690910    4.919508   19.497095    ( 0.0000,  0.0000,  0.0000)
  44 Ru     8.434111    4.914099   19.169852    ( 0.0000,  0.0000,  0.0000)
  45 O      4.063249    0.737466   20.685027    ( 0.0000,  0.0000,  0.0000)

Unit cell:
           periodic     x           y           z      points  spacing
  1. axis:    yes    8.379498    0.000000    0.000000    35     0.2073
  2. axis:    yes    4.189749    7.256858    0.000000    35     0.2073
  3. axis:    no     0.000000    0.000000   29.243062   135     0.2166

  Lengths:   8.379498   8.379498  29.243062
  Angles:   90.000000  90.000000  60.000000

Effective grid spacing dv^(1/3) = 0.2207

                     log10-error:    total        iterations:
           time      wfs    density  energy       fermi  poisson
iter:   1  03:52:44  -2.72   +inf  -183.131006    2             
iter:   2  03:53:53  -2.26  -2.27  -202.998657    36            
iter:   3  03:55:02  -2.56  -1.63  -182.593032    37            
iter:   4  03:56:10  -3.42  -2.63  -182.443734    3             
iter:   5  03:57:19  -4.26  -2.82  -182.406825    3             
iter:   6  03:58:27  -4.48  -3.01  -182.421691    2             
iter:   7  03:59:35  -4.69  -2.83  -182.394816    3             
iter:   8  04:00:43  -5.29  -3.18  -182.383197    2             
iter:   9  04:01:51  -5.31  -3.33  -182.384831    2             
iter:  10  04:02:58  -5.26  -3.36  -182.387500    2             
iter:  11  04:04:03  -5.37  -3.16  -182.378554    2             
iter:  12  04:05:12  -5.70  -3.71  -182.380028    2             
iter:  13  04:06:21  -6.34  -3.77  -182.378926    2             
iter:  14  04:07:28  -6.81  -4.01  -182.379405    2             
iter:  15  04:08:36  -6.60  -3.90  -182.379072    2             
iter:  16  04:09:43  -6.68  -4.10  -182.379377    2             
iter:  17  04:10:50  -6.61  -4.11  -182.378980    2             
iter:  18  04:11:55  -6.99  -4.19  -182.379283    2             
iter:  19  04:13:01  -7.09  -4.25  -182.378951    2             
iter:  20  04:14:08  -7.44  -3.97  -182.379105    2             
iter:  21  04:15:16  -7.79  -4.26  -182.379080    2             

Converged after 21 iterations.

Dipole moment: (25.918432, 21.216178, -0.239574) |e|*Ang

Energy contributions relative to reference atoms: (reference = -9073453.423555)

Kinetic:       -169.515328
Potential:      +24.163400
External:        +0.000000
XC:             -31.606471
Entropy (-ST):   -2.042834
Local:           -4.399263
--------------------------
Free energy:   -183.400497
Extrapolated:  -182.379080

Fermi level: 0.81921

Showing only first 2 kpts
 Kpt  Band  Eigenvalues  Occupancy
  0   367      0.79313    0.14121
  0   368      0.83437    0.11555
  0   369      0.86710    0.09563
  0   370      0.91291    0.07038

  1   367      0.70797    0.18814
  1   368      0.75217    0.16540
  1   369      0.76928    0.15557
  1   370      0.78031    0.14901



Forces in eV/Ang:
  0 Pd    0.10098    0.50657   -0.42258
  1 Ag    0.10247    0.49533   -0.51882
  2 Pt   -0.23299    0.51752    0.83142
  3 Pd    0.10847    0.03531   -0.07457
  4 Pd    0.10511   -0.37912    0.19777
  5 Pt   -0.13169   -0.28830   -0.08832
  6 Pd   -0.17365   -0.39109   -0.06049
  7 Ag   -0.12547   -0.45100   -0.71457
  8 Pd   -0.24766   -0.31306    0.27461
  9 Ag    0.53232    0.22888    0.39479
 10 Ru    2.20358    1.27418    0.42953
 11 Ru   -1.86384    0.87158   -0.33265
 12 Pd    1.12009   -0.25042    0.01405
 13 Ru   -0.53391   -1.48348   -0.87090
 14 Ag   -0.43489    0.13639    0.28336
 15 Pd    0.16977   -0.59042    0.10302
 16 Ag   -0.16165   -0.38252    0.34986
 17 Pd   -0.38235    0.54929    0.00774
 18 Ag    0.00222    0.00471   -0.00654
 19 Ag   -0.00986   -0.01359   -0.00554
 20 Pt   -0.01979    0.00709   -0.02942
 21 Ag   -0.00154   -0.02707    0.00356
 22 Ag   -0.01524   -0.00975   -0.04821
 23 Ag   -0.00482    0.00005   -0.02053
 24 Pd    0.00483   -0.00056    0.02119
 25 Pd   -0.02131    0.00476    0.02733
 26 Ag   -0.03604    0.00340    0.02409
 27 Pt   -0.03469    0.01277   -0.03989
 28 Pd    0.02211   -0.05380    0.14218
 29 Pd   -0.07383   -0.05038    0.09134
 30 Pd    0.04773   -0.00791   -0.10299
 31 Ru   -0.00067    0.00844   -0.14545
 32 Pt   -0.03343   -0.04281   -0.10518
 33 Ag    0.03320   -0.02486   -0.09342
 34 Pt   -0.07877    0.00396   -0.09708
 35 Ru    0.06745    0.05626    0.22607
 36 Pd    0.13056    0.09339    0.03713
 37 Ru    0.36129    0.00739    0.15355
 38 Pd   -0.12611    0.09923    0.08976
 39 Pt    0.03398    0.12228   -0.02455
 40 Pd    0.03307   -0.15215    0.01240
 41 Pd   -0.12557   -0.02764   -0.01283
 42 Pt    0.07736   -0.01066    0.00020
 43 Pd    0.06735    0.07954    0.02214
 44 Ru    0.07585    0.02129    0.01645
 45 O    -0.42765   -0.10586   -0.14395

System changes: positions 

Initializing position-dependent things.

Density initialized from wave functions
                                             
                                             
                                             
                                             
                                             
                                             
                         Pd                  
                 Pt            Ru            
            Pt    OPd    PPd    Ru           
                                             
        Pd    PRu    Pd    Pt                
        Pt     Pd     Pd                     
                     Pd     Pd     Ag        
                Ag     Ag     Ag             
                                             
           Ag    PAg    APt    Pd            
                                             
            Pd     Ru     Ag     Pd          
       Ag    PRu    PRu    Pt                
                                             
        Pd     Ag     Pt                     
                                             
                                             
                                             
                                             
                                             

Positions:
   0 Pd     0.000000    1.633958   10.000000    ( 0.0000,  0.0000,  0.0000)
   1 Ag     2.830098    1.633958   10.000000    ( 0.0000,  0.0000,  0.0000)
   2 Pt     5.660196    1.633958   10.000000    ( 0.0000,  0.0000,  0.0000)
   3 Pd     1.415049    4.084895   10.000000    ( 0.0000,  0.0000,  0.0000)
   4 Pd     4.245147    4.084895   10.000000    ( 0.0000,  0.0000,  0.0000)
   5 Pt     7.075245    4.084895   10.000000    ( 0.0000,  0.0000,  0.0000)
   6 Pd     2.830098    6.535832   10.000000    ( 0.0000,  0.0000,  0.0000)
   7 Ag     5.660196    6.535832   10.000000    ( 0.0000,  0.0000,  0.0000)
   8 Pd     8.490294    6.535832   10.000000    ( 0.0000,  0.0000,  0.0000)
   9 Ag     0.000000    0.000000   12.310765    ( 0.0000,  0.0000,  0.0000)
  10 Ru     2.830098    0.000000   12.310765    ( 0.0000,  0.0000,  0.0000)
  11 Ru     5.660196    0.000000   12.310765    ( 0.0000,  0.0000,  0.0000)
  12 Pd     1.415049    2.450937   12.310765    ( 0.0000,  0.0000,  0.0000)
  13 Ru     4.245147    2.450937   12.310765    ( 0.0000,  0.0000,  0.0000)
  14 Ag     7.075245    2.450937   12.310765    ( 0.0000,  0.0000,  0.0000)
  15 Pd     2.830098    4.901874   12.310765    ( 0.0000,  0.0000,  0.0000)
  16 Ag     5.660196    4.901874   12.310765    ( 0.0000,  0.0000,  0.0000)
  17 Pd     8.490294    4.901874   12.310765    ( 0.0000,  0.0000,  0.0000)
  18 Ag     1.416657    0.835697   14.688815    ( 0.0000,  0.0000,  0.0000)
  19 Ag     4.222998    0.831336   14.669065    ( 0.0000,  0.0000,  0.0000)
  20 Pt     6.998458    0.823302   14.666652    ( 0.0000,  0.0000,  0.0000)
  21 Ag     2.850288    3.271523   14.703712    ( 0.0000,  0.0000,  0.0000)
  22 Ag     5.606528    3.274516   14.708327    ( 0.0000,  0.0000,  0.0000)
  23 Ag     8.404062    3.278437   14.702761    ( 0.0000,  0.0000,  0.0000)
  24 Pd     4.220952    5.666517   14.763349    ( 0.0000,  0.0000,  0.0000)
  25 Pd     7.014885    5.721903   14.717377    ( 0.0000,  0.0000,  0.0000)
  26 Ag     9.802899    5.686887   14.703407    ( 0.0000,  0.0000,  0.0000)
  27 Pt     0.024457    1.654446   17.045715    ( 0.0000,  0.0000,  0.0000)
  28 Pd     2.863001    1.637074   17.097787    ( 0.0000,  0.0000,  0.0000)
  29 Pd     5.573969    1.654068   17.068253    ( 0.0000,  0.0000,  0.0000)
  30 Pd     1.464950    4.079400   17.035252    ( 0.0000,  0.0000,  0.0000)
  31 Ru     4.283233    4.062414   17.282991    ( 0.0000,  0.0000,  0.0000)
  32 Pt     6.953701    4.074265   17.074051    ( 0.0000,  0.0000,  0.0000)
  33 Ag     2.794626    6.511908   17.070525    ( 0.0000,  0.0000,  0.0000)
  34 Pt     5.623869    6.461976   17.104769    ( 0.0000,  0.0000,  0.0000)
  35 Ru     8.264510    6.444514   17.231751    ( 0.0000,  0.0000,  0.0000)
  36 Pd     0.160135    0.054736   19.430262    ( 0.0000,  0.0000,  0.0000)
  37 Ru     2.997124   -0.060176   19.374712    ( 0.0000,  0.0000,  0.0000)
  38 Pd     5.726623   -0.032018   19.489798    ( 0.0000,  0.0000,  0.0000)
  39 Pt     1.402008    2.505184   19.360333    ( 0.0000,  0.0000,  0.0000)
  40 Pd     4.237118    2.515762   19.484503    ( 0.0000,  0.0000,  0.0000)
  41 Pd     7.070521    2.501183   19.412946    ( 0.0000,  0.0000,  0.0000)
  42 Pt     2.827259    4.838689   19.364475    ( 0.0000,  0.0000,  0.0000)
  43 Pd     5.701266    4.934783   19.497547    ( 0.0000,  0.0000,  0.0000)
  44 Ru     8.443370    4.910555   19.165932    ( 0.0000,  0.0000,  0.0000)
  45 O      4.010394    0.734423   20.692414    ( 0.0000,  0.0000,  0.0000)

Unit cell:
           periodic     x           y           z      points  spacing
  1. axis:    yes    8.379498    0.000000    0.000000    35     0.2073
  2. axis:    yes    4.189749    7.256858    0.000000    35     0.2073
  3. axis:    no     0.000000    0.000000   29.243062   135     0.2166

  Lengths:   8.379498   8.379498  29.243062
  Angles:   90.000000  90.000000  60.000000

Effective grid spacing dv^(1/3) = 0.2207

                     log10-error:    total        iterations:
           time      wfs    density  energy       fermi  poisson
iter:   1  04:16:53  -2.54   +inf  -182.672199    3             
iter:   2  04:18:00  -3.13  -2.64  -184.557494    2             
iter:   3  04:19:08  -3.16  -2.03  -183.447325    3             
iter:   4  04:20:16  -4.16  -2.19  -182.525216    3             
iter:   5  04:21:27  -4.50  -2.77  -182.442556    3             
iter:   6  04:22:39  -4.93  -3.13  -182.433630    2             
iter:   7  04:23:51  -5.12  -3.24  -182.429473    2             
iter:   8  04:25:03  -5.01  -3.33  -182.428785    2             
iter:   9  04:26:14  -5.12  -3.30  -182.427905    2             
iter:  10  04:27:27  -5.14  -3.36  -182.452519    2             
iter:  11  04:28:39  -5.39  -2.99  -182.425773    2             
iter:  12  04:29:50  -6.07  -3.65  -182.425218    2             
iter:  13  04:30:59  -6.10  -3.72  -182.425294    2             
iter:  14  04:32:05  -6.70  -3.92  -182.425332    2             
iter:  15  04:33:14  -6.56  -3.95  -182.425015    2             
iter:  16  04:34:21  -6.39  -4.08  -182.425348    2             
iter:  17  04:35:30  -6.73  -4.02  -182.425140    1             
iter:  18  04:36:37  -6.81  -3.86  -182.424770    2             
iter:  19  04:37:46  -7.32  -4.31  -182.424976    2             
iter:  20  04:38:53  -7.41  -4.48  -182.424961    2             

Converged after 20 iterations.

Dipole moment: (25.616338, 21.438372, -0.237620) |e|*Ang

Energy contributions relative to reference atoms: (reference = -9073453.423555)

Kinetic:       -168.568453
Potential:      +23.469528
External:        +0.000000
XC:             -31.862672
Entropy (-ST):   -2.032643
Local:           -4.447044
--------------------------
Free energy:   -183.441283
Extrapolated:  -182.424961

Fermi level: 0.82030

Showing only first 2 kpts
 Kpt  Band  Eigenvalues  Occupancy
  0   367      0.79670    0.13968
  0   368      0.83732    0.11439
  0   369      0.86332    0.09852
  0   370      0.91925    0.06776

  1   367      0.70956    0.18791
  1   368      0.75452    0.16470
  1   369      0.77271    0.15420
  1   370      0.78271    0.14823



Forces in eV/Ang:
  0 Pd    0.10083    0.50555   -0.42096
  1 Ag    0.10345    0.49548   -0.51869
  2 Pt   -0.23344    0.51709    0.83286
  3 Pd    0.10887    0.03560   -0.07347
  4 Pd    0.10602   -0.38061    0.20080
  5 Pt   -0.13333   -0.28802   -0.08760
  6 Pd   -0.17417   -0.39027   -0.05673
  7 Ag   -0.12479   -0.45095   -0.71389
  8 Pd   -0.24852   -0.31247    0.27530
  9 Ag    0.53386    0.22771    0.39275
 10 Ru    2.20130    1.27407    0.43193
 11 Ru   -1.86545    0.86311   -0.32865
 12 Pd    1.11937   -0.24918    0.01680
 13 Ru   -0.53869   -1.48494   -0.86926
 14 Ag   -0.43188    0.13785    0.27160
 15 Pd    0.16559   -0.58878    0.12116
 16 Ag   -0.15701   -0.37579    0.35502
 17 Pd   -0.38213    0.55157    0.01547
 18 Ag    0.00559    0.02107   -0.00303
 19 Ag   -0.01753    0.00598    0.03567
 20 Pt   -0.01904    0.01408   -0.01802
 21 Ag    0.01293   -0.02959   -0.00302
 22 Ag   -0.01824   -0.03904   -0.03490
 23 Ag   -0.01047   -0.01119   -0.04445
 24 Pd   -0.02173   -0.02763   -0.02205
 25 Pd   -0.00039   -0.00506    0.00230
 26 Ag   -0.01174    0.00058   -0.02551
 27 Pt   -0.02799    0.04438    0.01775
 28 Pd   -0.07538    0.01444    0.05551
 29 Pd    0.01911   -0.02371    0.00004
 30 Pd    0.00724   -0.00038   -0.00600
 31 Ru    0.00617    0.01541   -0.00028
 32 Pt    0.05179    0.03985    0.02985
 33 Ag   -0.00229   -0.01346    0.05067
 34 Pt    0.01014   -0.02808   -0.04409
 35 Ru    0.06556   -0.03500   -0.15487
 36 Pd    0.05184    0.07545   -0.01779
 37 Ru    0.05310    0.02549    0.19134
 38 Pd   -0.03914    0.03348    0.05986
 39 Pt   -0.04548    0.12076   -0.00464
 40 Pd   -0.02918   -0.08477    0.01346
 41 Pd    0.03347    0.00784   -0.05175
 42 Pt    0.09708    0.05291   -0.06799
 43 Pd    0.00853   -0.02781   -0.02015
 44 Ru    0.07559   -0.15080    0.05423
 45 O    -0.21419   -0.02698    0.21235

System changes: positions 

Initializing position-dependent things.

Density initialized from wave functions
                                             
                                             
                                             
                                             
                                             
                                             
                         Pd                  
                  Pt           Ru            
            Pt    OPd    PPd    Ru           
                                             
        Pd    PRu    Pd    Pt                
        Pt     Pd     Pd                     
                     Pd     Pd     Ag        
                Ag     Ag     Ag             
                                             
           Ag     Ag    APt    Pd            
                                             
            Pd     Ru     Ag     Pd          
       Ag    PRu    PRu    Pt                
                                             
        Pd     Ag     Pt                     
                                             
                                             
                                             
                                             
                                             

Positions:
   0 Pd     0.000000    1.633958   10.000000    ( 0.0000,  0.0000,  0.0000)
   1 Ag     2.830098    1.633958   10.000000    ( 0.0000,  0.0000,  0.0000)
   2 Pt     5.660196    1.633958   10.000000    ( 0.0000,  0.0000,  0.0000)
   3 Pd     1.415049    4.084895   10.000000    ( 0.0000,  0.0000,  0.0000)
   4 Pd     4.245147    4.084895   10.000000    ( 0.0000,  0.0000,  0.0000)
   5 Pt     7.075245    4.084895   10.000000    ( 0.0000,  0.0000,  0.0000)
   6 Pd     2.830098    6.535832   10.000000    ( 0.0000,  0.0000,  0.0000)
   7 Ag     5.660196    6.535832   10.000000    ( 0.0000,  0.0000,  0.0000)
   8 Pd     8.490294    6.535832   10.000000    ( 0.0000,  0.0000,  0.0000)
   9 Ag     0.000000    0.000000   12.310765    ( 0.0000,  0.0000,  0.0000)
  10 Ru     2.830098    0.000000   12.310765    ( 0.0000,  0.0000,  0.0000)
  11 Ru     5.660196    0.000000   12.310765    ( 0.0000,  0.0000,  0.0000)
  12 Pd     1.415049    2.450937   12.310765    ( 0.0000,  0.0000,  0.0000)
  13 Ru     4.245147    2.450937   12.310765    ( 0.0000,  0.0000,  0.0000)
  14 Ag     7.075245    2.450937   12.310765    ( 0.0000,  0.0000,  0.0000)
  15 Pd     2.830098    4.901874   12.310765    ( 0.0000,  0.0000,  0.0000)
  16 Ag     5.660196    4.901874   12.310765    ( 0.0000,  0.0000,  0.0000)
  17 Pd     8.490294    4.901874   12.310765    ( 0.0000,  0.0000,  0.0000)
  18 Ag     1.416693    0.838481   14.688266    ( 0.0000,  0.0000,  0.0000)
  19 Ag     4.219828    0.830802   14.672648    ( 0.0000,  0.0000,  0.0000)
  20 Pt     6.994817    0.824824   14.661627    ( 0.0000,  0.0000,  0.0000)
  21 Ag     2.851682    3.265875   14.704161    ( 0.0000,  0.0000,  0.0000)
  22 Ag     5.603365    3.269440   14.700219    ( 0.0000,  0.0000,  0.0000)
  23 Ag     8.402109    3.277014   14.696156    ( 0.0000,  0.0000,  0.0000)
  24 Pd     4.218439    5.663322   14.761408    ( 0.0000,  0.0000,  0.0000)
  25 Pd     7.012296    5.721805   14.721470    ( 0.0000,  0.0000,  0.0000)
  26 Ag     9.798378    5.687065   14.703409    ( 0.0000,  0.0000,  0.0000)
  27 Pt     0.018357    1.659751   17.043568    ( 0.0000,  0.0000,  0.0000)
  28 Pd     2.855939    1.630876   17.117033    ( 0.0000,  0.0000,  0.0000)
  29 Pd     5.569336    1.646316   17.074516    ( 0.0000,  0.0000,  0.0000)
  30 Pd     1.470605    4.078509   17.024807    ( 0.0000,  0.0000,  0.0000)
  31 Ru     4.284168    4.064116   17.269681    ( 0.0000,  0.0000,  0.0000)
  32 Pt     6.954520    4.074855   17.067032    ( 0.0000,  0.0000,  0.0000)
  33 Ag     2.796959    6.509805   17.068711    ( 0.0000,  0.0000,  0.0000)
  34 Pt     5.620517    6.460199   17.093772    ( 0.0000,  0.0000,  0.0000)
  35 Ru     8.274624    6.446017   17.237921    ( 0.0000,  0.0000,  0.0000)
  36 Pd     0.181039    0.072119   19.430627    ( 0.0000,  0.0000,  0.0000)
  37 Ru     3.009584   -0.076439   19.390523    ( 0.0000,  0.0000,  0.0000)
  38 Pd     5.728526   -0.023757   19.504484    ( 0.0000,  0.0000,  0.0000)
  39 Pt     1.395414    2.532396   19.356734    ( 0.0000,  0.0000,  0.0000)
  40 Pd     4.241026    2.506453   19.486332    ( 0.0000,  0.0000,  0.0000)
  41 Pd     7.063172    2.501064   19.406598    ( 0.0000,  0.0000,  0.0000)
  42 Pt     2.845658    4.844139   19.356497    ( 0.0000,  0.0000,  0.0000)
  43 Pd     5.709510    4.942449   19.494940    ( 0.0000,  0.0000,  0.0000)
  44 Ru     8.458723    4.888179   19.168811    ( 0.0000,  0.0000,  0.0000)
  45 O      3.952220    0.732906   20.729775    ( 0.0000,  0.0000,  0.0000)

Unit cell:
           periodic     x           y           z      points  spacing
  1. axis:    yes    8.379498    0.000000    0.000000    35     0.2073
  2. axis:    yes    4.189749    7.256858    0.000000    35     0.2073
  3. axis:    no     0.000000    0.000000   29.243062   135     0.2166

  Lengths:   8.379498   8.379498  29.243062
  Angles:   90.000000  90.000000  60.000000

Effective grid spacing dv^(1/3) = 0.2207

                     log10-error:    total        iterations:
           time      wfs    density  energy       fermi  poisson
iter:   1  04:40:31  -2.53   +inf  -183.084636    2             
iter:   2  04:41:38  -2.24  -2.30  -205.525368    33            
iter:   3  04:42:45  -2.57  -1.61  -182.762529    37            
iter:   4  04:43:52  -3.57  -2.51  -182.496513    3             
iter:   5  04:44:59  -4.41  -3.04  -182.478040    3             
iter:   6  04:46:06  -4.84  -3.20  -182.479472    2             
iter:   7  04:47:13  -5.10  -3.09  -182.477708    2             
iter:   8  04:48:19  -4.93  -3.25  -182.471414    2             
iter:   9  04:49:26  -5.28  -3.41  -182.470117    2             
iter:  10  04:50:33  -5.45  -3.44  -182.467869    2             
[...]
  18 Ag     1.421494    0.834600   14.704131    ( 0.0000,  0.0000,  0.0000)
  19 Ag     4.220770    0.830542   14.685747    ( 0.0000,  0.0000,  0.0000)
  20 Pt     7.002713    0.820009   14.659296    ( 0.0000,  0.0000,  0.0000)
  21 Ag     2.856427    3.264768   14.713854    ( 0.0000,  0.0000,  0.0000)
  22 Ag     5.616028    3.268468   14.707591    ( 0.0000,  0.0000,  0.0000)
  23 Ag     8.411678    3.278062   14.701588    ( 0.0000,  0.0000,  0.0000)
  24 Pd     4.236369    5.657098   14.769074    ( 0.0000,  0.0000,  0.0000)
  25 Pd     7.026576    5.721154   14.725067    ( 0.0000,  0.0000,  0.0000)
  26 Ag     9.810886    5.686689   14.698968    ( 0.0000,  0.0000,  0.0000)
  27 Pt     0.040612    1.679781   17.055218    ( 0.0000,  0.0000,  0.0000)
  28 Pd     2.863310    1.645397   17.142406    ( 0.0000,  0.0000,  0.0000)
  29 Pd     5.588330    1.661844   17.062042    ( 0.0000,  0.0000,  0.0000)
  30 Pd     1.489484    4.102611   17.033585    ( 0.0000,  0.0000,  0.0000)
  31 Ru     4.314585    4.054694   17.306818    ( 0.0000,  0.0000,  0.0000)
  32 Pt     6.985268    4.097865   17.084555    ( 0.0000,  0.0000,  0.0000)
  33 Ag     2.848097    6.521191   17.053883    ( 0.0000,  0.0000,  0.0000)
  34 Pt     5.675954    6.476664   17.138170    ( 0.0000,  0.0000,  0.0000)
  35 Ru     8.325615    6.466326   17.247396    ( 0.0000,  0.0000,  0.0000)
  36 Pd     0.177351    0.072385   19.436064    ( 0.0000,  0.0000,  0.0000)
  37 Ru     2.990008   -0.186670   19.441609    ( 0.0000,  0.0000,  0.0000)
  38 Pd     5.719033   -0.014290   19.404770    ( 0.0000,  0.0000,  0.0000)
  39 Pt     1.366867    2.571147   19.384763    ( 0.0000,  0.0000,  0.0000)
  40 Pd     4.205115    2.440073   19.501459    ( 0.0000,  0.0000,  0.0000)
  41 Pd     7.052571    2.476902   19.404815    ( 0.0000,  0.0000,  0.0000)
  42 Pt     2.865712    4.851914   19.363697    ( 0.0000,  0.0000,  0.0000)
  43 Pd     5.675187    4.878214   19.520280    ( 0.0000,  0.0000,  0.0000)
  44 Ru     8.469128    4.910368   19.197092    ( 0.0000,  0.0000,  0.0000)
  45 O      3.540030    0.800221   20.815509    ( 0.0000,  0.0000,  0.0000)

Unit cell:
           periodic     x           y           z      points  spacing
  1. axis:    yes    8.379498    0.000000    0.000000    35     0.2073
  2. axis:    yes    4.189749    7.256858    0.000000    35     0.2073
  3. axis:    no     0.000000    0.000000   29.243062   135     0.2166

  Lengths:   8.379498   8.379498  29.243062
  Angles:   90.000000  90.000000  60.000000

Effective grid spacing dv^(1/3) = 0.2207

                     log10-error:    total        iterations:
           time      wfs    density  energy       fermi  poisson
iter:   1  10:02:03  -3.30   +inf  -182.643756    2             
iter:   2  10:03:10  -3.73  -2.98  -183.418276    2             
iter:   3  10:04:17  -3.98  -2.24  -182.635756    3             
iter:   4  10:05:27  -5.09  -3.10  -182.621471    3             
iter:   5  10:06:38  -5.53  -3.55  -182.618520    2             
iter:   6  10:07:49  -5.64  -3.56  -182.619777    2             
iter:   7  10:09:01  -5.83  -3.57  -182.619459    2             
iter:   8  10:10:12  -6.01  -3.86  -182.618540    2             
iter:   9  10:11:22  -6.35  -3.96  -182.618694    2             
iter:  10  10:12:32  -6.51  -3.99  -182.618856    2             
iter:  11  10:13:42  -6.84  -4.09  -182.618348    2             
iter:  12  10:14:52  -7.15  -4.01  -182.618464    2             
iter:  13  10:16:03  -7.21  -4.22  -182.618666    2             
iter:  14  10:17:14  -7.21  -4.27  -182.618377    2             
iter:  15  10:18:25  -7.31  -4.33  -182.618348    2             
iter:  16  10:19:33  -7.62  -4.45  -182.618511    2             

Converged after 16 iterations.

Dipole moment: (31.040780, 25.873481, -0.259291) |e|*Ang

Energy contributions relative to reference atoms: (reference = -9073453.423555)

Kinetic:       -169.863542
Potential:      +24.360303
External:        +0.000000
XC:             -31.638272
Entropy (-ST):   -1.988283
Local:           -4.482859
--------------------------
Free energy:   -183.612652
Extrapolated:  -182.618511

Fermi level: 0.80682

Showing only first 2 kpts
 Kpt  Band  Eigenvalues  Occupancy
  0   367      0.79531    0.13219
  0   368      0.83628    0.10672
  0   369      0.86475    0.08978
  0   370      0.91226    0.06459

  1   367      0.70603    0.18315
  1   368      0.74297    0.16360
  1   369      0.76185    0.15265
  1   370      0.78802    0.13672



Forces in eV/Ang:
  0 Pd    0.10217    0.50497   -0.42148
  1 Ag    0.10379    0.49617   -0.51861
  2 Pt   -0.23591    0.51708    0.82573
  3 Pd    0.10561    0.03576   -0.07370
  4 Pd    0.10884   -0.37899    0.20384
  5 Pt   -0.13510   -0.28711   -0.08692
  6 Pd   -0.17383   -0.39109   -0.05426
  7 Ag   -0.12621   -0.45284   -0.71196
  8 Pd   -0.24454   -0.31287    0.27670
  9 Ag    0.55832    0.22239    0.40931
 10 Ru    2.22211    1.29384    0.47386
 11 Ru   -1.89802    0.88194   -0.31013
 12 Pd    1.13277   -0.26022    0.04225
 13 Ru   -0.55350   -1.50922   -0.83826
 14 Ag   -0.42692    0.14377    0.26146
 15 Pd    0.18149   -0.61110    0.12692
 16 Ag   -0.14857   -0.37194    0.37234
 17 Pd   -0.38376    0.55381    0.01868
 18 Ag    0.00390   -0.00224   -0.01045
 19 Ag    0.00436    0.00289   -0.01966
 20 Pt    0.00800    0.02332   -0.00535
 21 Ag    0.02417   -0.00398   -0.01382
 22 Ag    0.00988    0.01543    0.00245
 23 Ag   -0.00771    0.00159   -0.01974
 24 Pd    0.02388    0.00641    0.04013
 25 Pd   -0.00363   -0.00225   -0.00117
 26 Ag    0.00150   -0.00003   -0.00745
 27 Pt    0.01793   -0.00372    0.00028
 28 Pd   -0.01082    0.01026   -0.03358
 29 Pd    0.00536   -0.01294    0.03140
 30 Pd   -0.00078   -0.00291    0.01433
 31 Ru   -0.02111    0.00536   -0.04816
 32 Pt    0.02462   -0.00764   -0.04315
 33 Ag    0.01426   -0.04442    0.00118
 34 Pt   -0.04117   -0.02124   -0.03464
 35 Ru   -0.03472    0.03389    0.03237
 36 Pd   -0.05393   -0.01548   -0.01601
 37 Ru    0.07687   -0.00076    0.06461
 38 Pd   -0.01828   -0.00736   -0.00077
 39 Pt   -0.03984    0.05984   -0.01842
 40 Pd    0.02704   -0.00988    0.00221
 41 Pd    0.00478   -0.00496    0.00632
 42 Pt   -0.03243    0.00966    0.01590
 43 Pd   -0.01167   -0.01343    0.01647
 44 Ru   -0.00322   -0.00778    0.01408
 45 O    -0.04665   -0.01094   -0.05123

System changes: positions 

Initializing position-dependent things.

Density initialized from wave functions
                                             
                                             
                                             
                                             
                                             
                                             
                        Pd                   
                 OPt           Ru            
            Pt     Pd     Pd    Ru           
                                             
        Pd    PRu    Pd    Pt                
         Pt    Pd     Pd                     
                     Pd     Pd     Ag        
                 Ag    Ag     Ag             
                                             
           Ag     Ag    APt    Pd            
                                             
            Pd     Ru     Ag     Pd          
       Ag     Ru    PRu    Pt                
                                             
        Pd     Ag     Pt                     
                                             
                                             
                                             
                                             
                                             

Positions:
   0 Pd     0.000000    1.633958   10.000000    ( 0.0000,  0.0000,  0.0000)
   1 Ag     2.830098    1.633958   10.000000    ( 0.0000,  0.0000,  0.0000)
   2 Pt     5.660196    1.633958   10.000000    ( 0.0000,  0.0000,  0.0000)
   3 Pd     1.415049    4.084895   10.000000    ( 0.0000,  0.0000,  0.0000)
   4 Pd     4.245147    4.084895   10.000000    ( 0.0000,  0.0000,  0.0000)
   5 Pt     7.075245    4.084895   10.000000    ( 0.0000,  0.0000,  0.0000)
   6 Pd     2.830098    6.535832   10.000000    ( 0.0000,  0.0000,  0.0000)
   7 Ag     5.660196    6.535832   10.000000    ( 0.0000,  0.0000,  0.0000)
   8 Pd     8.490294    6.535832   10.000000    ( 0.0000,  0.0000,  0.0000)
   9 Ag     0.000000    0.000000   12.310765    ( 0.0000,  0.0000,  0.0000)
  10 Ru     2.830098    0.000000   12.310765    ( 0.0000,  0.0000,  0.0000)
  11 Ru     5.660196    0.000000   12.310765    ( 0.0000,  0.0000,  0.0000)
  12 Pd     1.415049    2.450937   12.310765    ( 0.0000,  0.0000,  0.0000)
  13 Ru     4.245147    2.450937   12.310765    ( 0.0000,  0.0000,  0.0000)
  14 Ag     7.075245    2.450937   12.310765    ( 0.0000,  0.0000,  0.0000)
  15 Pd     2.830098    4.901874   12.310765    ( 0.0000,  0.0000,  0.0000)
  16 Ag     5.660196    4.901874   12.310765    ( 0.0000,  0.0000,  0.0000)
  17 Pd     8.490294    4.901874   12.310765    ( 0.0000,  0.0000,  0.0000)
  18 Ag     1.422599    0.834871   14.703648    ( 0.0000,  0.0000,  0.0000)
  19 Ag     4.221979    0.831109   14.683983    ( 0.0000,  0.0000,  0.0000)
  20 Pt     7.004151    0.822290   14.659216    ( 0.0000,  0.0000,  0.0000)
  21 Ag     2.859459    3.265214   14.712788    ( 0.0000,  0.0000,  0.0000)
  22 Ag     5.617900    3.270440   14.708440    ( 0.0000,  0.0000,  0.0000)
  23 Ag     8.411562    3.278640   14.700132    ( 0.0000,  0.0000,  0.0000)
  24 Pd     4.239998    5.658162   14.772865    ( 0.0000,  0.0000,  0.0000)
  25 Pd     7.027155    5.721346   14.725055    ( 0.0000,  0.0000,  0.0000)
  26 Ag     9.812295    5.686751   14.697605    ( 0.0000,  0.0000,  0.0000)
  27 Pt     0.042909    1.679461   17.055215    ( 0.0000,  0.0000,  0.0000)
  28 Pd     2.863842    1.647335   17.137475    ( 0.0000,  0.0000,  0.0000)
  29 Pd     5.589971    1.661145   17.063316    ( 0.0000,  0.0000,  0.0000)
  30 Pd     1.489830    4.102348   17.034639    ( 0.0000,  0.0000,  0.0000)
  31 Ru     4.313726    4.054322   17.303956    ( 0.0000,  0.0000,  0.0000)
  32 Pt     6.987987    4.097373   17.082309    ( 0.0000,  0.0000,  0.0000)
  33 Ag     2.850404    6.517507   17.053696    ( 0.0000,  0.0000,  0.0000)
  34 Pt     5.673625    6.474922   17.137062    ( 0.0000,  0.0000,  0.0000)
  35 Ru     8.323293    6.469832   17.248318    ( 0.0000,  0.0000,  0.0000)
  36 Pd     0.168222    0.068880   19.435071    ( 0.0000,  0.0000,  0.0000)
  37 Ru     2.990820   -0.189960   19.444153    ( 0.0000,  0.0000,  0.0000)
  38 Pd     5.716764   -0.016521   19.402233    ( 0.0000,  0.0000,  0.0000)
  39 Pt     1.362066    2.575417   19.383587    ( 0.0000,  0.0000,  0.0000)
  40 Pd     4.206292    2.439859   19.501211    ( 0.0000,  0.0000,  0.0000)
  41 Pd     7.053956    2.476200   19.406010    ( 0.0000,  0.0000,  0.0000)
  42 Pt     2.862060    4.850851   19.365567    ( 0.0000,  0.0000,  0.0000)
  43 Pd     5.672694    4.875512   19.522575    ( 0.0000,  0.0000,  0.0000)
  44 Ru     8.467666    4.910971   19.199265    ( 0.0000,  0.0000,  0.0000)
  45 O      3.530506    0.804753   20.813844    ( 0.0000,  0.0000,  0.0000)

Unit cell:
           periodic     x           y           z      points  spacing
  1. axis:    yes    8.379498    0.000000    0.000000    35     0.2073
  2. axis:    yes    4.189749    7.256858    0.000000    35     0.2073
  3. axis:    no     0.000000    0.000000   29.243062   135     0.2166

  Lengths:   8.379498   8.379498  29.243062
  Angles:   90.000000  90.000000  60.000000

Effective grid spacing dv^(1/3) = 0.2207

                     log10-error:    total        iterations:
           time      wfs    density  energy       fermi  poisson
iter:   1  10:21:09  -3.67   +inf  -182.795173    2             
iter:   2  10:22:16  -2.75  -2.56  -191.440857    4             
iter:   3  10:23:23  -3.08  -1.79  -182.693320    4             
iter:   4  10:24:30  -4.18  -2.86  -182.627086    3             
iter:   5  10:25:37  -5.22  -3.47  -182.623986    2             
iter:   6  10:26:43  -5.70  -3.58  -182.621786    2             
iter:   7  10:27:51  -6.10  -3.83  -182.621497    2             
iter:   8  10:28:57  -6.40  -3.84  -182.622081    2             
iter:   9  10:30:04  -6.17  -3.70  -182.621641    2             
iter:  10  10:31:10  -6.64  -4.06  -182.621096    2             
iter:  11  10:32:17  -6.77  -3.91  -182.621109    2             
iter:  12  10:33:23  -7.07  -4.25  -182.621076    2             
iter:  13  10:34:30  -7.40  -4.36  -182.620985    1             

Converged after 13 iterations.

Dipole moment: (32.108534, 26.246879, -0.258293) |e|*Ang

Energy contributions relative to reference atoms: (reference = -9073453.423555)

Kinetic:       -169.744896
Potential:      +24.242840
External:        +0.000000
XC:             -31.645708
Entropy (-ST):   -1.988203
Local:           -4.479119
--------------------------
Free energy:   -183.615086
Extrapolated:  -182.620985

Fermi level: 0.80751

Showing only first 2 kpts
 Kpt  Band  Eigenvalues  Occupancy
  0   367      0.79645    0.13191
  0   368      0.83734    0.10650
  0   369      0.86627    0.08930
  0   370      0.91292    0.06461

  1   367      0.70693    0.18305
  1   368      0.74403    0.16340
  1   369      0.76279    0.15250
  1   370      0.78927    0.13637



Forces in eV/Ang:
  0 Pd    0.10179    0.50488   -0.41793
  1 Ag    0.10456    0.49648   -0.51530
  2 Pt   -0.23632    0.51750    0.82923
  3 Pd    0.10576    0.03544   -0.07021
  4 Pd    0.10930   -0.37935    0.20927
  5 Pt   -0.13578   -0.28730   -0.08368
  6 Pd   -0.17291   -0.39120   -0.04913
  7 Ag   -0.12651   -0.45326   -0.70639
  8 Pd   -0.24444   -0.31282    0.27909
  9 Ag    0.55507    0.21646    0.41039
 10 Ru    2.21708    1.28923    0.46419
 11 Ru   -1.88937    0.87698   -0.30939
 12 Pd    1.13424   -0.25848    0.03366
 13 Ru   -0.54999   -1.50234   -0.85023
 14 Ag   -0.42952    0.14217    0.25043
 15 Pd    0.18550   -0.60421    0.12976
 16 Ag   -0.15248   -0.36830    0.36846
 17 Pd   -0.38000    0.55743    0.01408
 18 Ag    0.00401    0.00769   -0.01340
 19 Ag    0.01724   -0.00967   -0.00177
 20 Pt   -0.00997   -0.01915    0.00630
 21 Ag   -0.00232    0.00505   -0.01780
 22 Ag   -0.00131   -0.01077   -0.00676
 23 Ag    0.02227    0.00485   -0.01026
 24 Pd   -0.02893    0.01255   -0.01999
 25 Pd    0.02743    0.01292   -0.00718
 26 Ag    0.00518    0.01148    0.00614
 27 Pt   -0.00193   -0.01237   -0.00218
 28 Pd   -0.01047   -0.01015    0.02362
 29 Pd   -0.00388   -0.01204    0.02034
 30 Pd   -0.01525    0.01562   -0.01455
 31 Ru    0.00067   -0.01467    0.02491
 32 Pt   -0.00036    0.00789    0.00733
 33 Ag   -0.03398   -0.00422   -0.01242
 34 Pt    0.01613    0.00177    0.03306
 35 Ru   -0.01145    0.00308    0.00526
 36 Pd    0.04814    0.01286   -0.02072
 37 Ru   -0.03523   -0.00092   -0.00063
 38 Pd    0.02732    0.02244   -0.00922
 39 Pt    0.03393   -0.03802   -0.01220
 40 Pd   -0.01243    0.01114   -0.02287
 41 Pd   -0.04916   -0.00505   -0.01281
 42 Pt    0.02316   -0.01034   -0.01134
 43 Pd   -0.00713    0.00670   -0.03253
 44 Ru   -0.02069   -0.00146   -0.02737
 45 O    -0.07200    0.05002   -0.00861

Timing:                                      incl.     excl.
-------------------------------------------------------------------
Density initialized from wave functions:    83.219    83.217   0.2% |
 Symmetrize density:                         0.001     0.001   0.0% |
Forces:                                    344.498   344.498   1.0% |
Hamiltonian:                                57.375     0.213   0.0% |
 Atomic:                                    11.420     5.288   0.0% |
  XC Correction:                             6.132     6.132   0.0% |
 Calculate atomic Hamiltonians:             15.758    15.758   0.0% |
 Communicate:                                8.289     8.289   0.0% |
 Initialize Hamiltonian:                     0.000     0.000   0.0% |
 Poisson:                                    0.107     0.107   0.0% |
 XC 3D grid:                                21.587    21.587   0.1% |
LCAO initialization:                        62.069     2.128   0.0% |
 LCAO eigensolver:                           6.537     0.002   0.0% |
  Calculate projections:                     0.032     0.032   0.0% |
  DenseAtomicCorrection:                     0.027     0.027   0.0% |
  Distribute overlap matrix:                 3.302     3.302   0.0% |
  Orbital Layouts:                           0.351     0.351   0.0% |
  Potential matrix:                          2.797     2.797   0.0% |
  Sum over cells:                            0.027     0.027   0.0% |
 LCAO to grid:                              50.150    50.150   0.1% |
 Set positions (LCAO WFS):                   3.254     2.537   0.0% |
  Basic WFS set positions:                   0.001     0.001   0.0% |
  Basis functions set positions:             0.000     0.000   0.0% |
  P tci:                                     0.293     0.293   0.0% |
  ST tci:                                    0.314     0.314   0.0% |
  mktci:                                     0.108     0.108   0.0% |
PWDescriptor:                                0.042     0.042   0.0% |
Redistribute:                                0.113     0.113   0.0% |
SCF-cycle:                               33697.544  3648.246  10.6% |---|
 Davidson:                               27411.825  6629.201  19.3% |-------|
  Apply H:                                4211.082  4103.644  11.9% |----|
   HMM T:                                  107.438   107.438   0.3% |
  Subspace diag:                          3893.476     0.142   0.0% |
   calc_h_matrix:                         2172.280   771.411   2.2% ||
    Apply H:                              1400.869  1363.998   4.0% |-|
     HMM T:                                 36.871    36.871   0.1% |
   diagonalize:                            128.229   128.229   0.4% |
   rotate_psi:                            1592.825  1592.825   4.6% |-|
  calc. matrices:                         8381.478  5576.404  16.2% |-----|
   Apply H:                               2805.074  2733.222   7.9% |--|
    HMM T:                                  71.853    71.853   0.2% |
  diagonalize:                            1313.632  1313.632   3.8% |-|
  rotate_psi:                             2982.957  2982.957   8.7% |--|
 Density:                                 1335.276     0.029   0.0% |
  Atomic density matrices:                   8.128     8.128   0.0% |
  Mix:                                     403.584   403.584   1.2% |
  Multipole moments:                         0.590     0.590   0.0% |
  Pseudo density:                          922.945   922.916   2.7% ||
   Symmetrize density:                       0.029     0.029   0.0% |
 Hamiltonian:                             1174.621     4.489   0.0% |
  Atomic:                                  234.288   100.133   0.3% |
   XC Correction:                          134.155   134.155   0.4% |
  Calculate atomic Hamiltonians:           319.559   319.559   0.9% |
  Communicate:                             176.027   176.027   0.5% |
  Poisson:                                   2.349     2.349   0.0% |
  XC 3D grid:                              437.908   437.908   1.3% ||
 Orthonormalize:                           127.576     0.009   0.0% |
  calc_s_matrix:                            16.487    16.487   0.0% |
  inverse-cholesky:                          5.033     5.033   0.0% |
  projections:                              72.476    72.476   0.2% |
  rotate_psi_s:                             33.572    33.572   0.1% |
Set symmetry:                                0.002     0.002   0.0% |
Other:                                     175.249   175.249   0.5% |
-------------------------------------------------------------------
Total:                                             34420.110 100.0%

Date: Fri Mar  4 10:34:44 2022
