
  ___ ___ ___ _ _ _  
 |   |   |_  | | | | 
 | | | | | . | | | | 
 |__ |  _|___|_____|  1.5.1
 |___|_|             

User:   clausen@node489.cluster
Date:   Thu Mar  3 20:07:23 2022
Arch:   x86_64
Pid:    25721
Python: 3.6.12
gpaw:   /software/kemi/gpaw/1.5.1/gpaw
_gpaw:  /software/kemi/gpaw/1.5.1/bin/gpaw-python
ase:    /software/kemi/ase/3.17.0/ase (version 3.17.0)
numpy:  /opt/rh/rh-python36/root/usr/lib64/python3.6/site-packages/numpy (version 1.13.1)
scipy:  /opt/rh/rh-python36/root/usr/lib64/python3.6/site-packages/scipy (version 0.19.1)
units:  Angstrom and eV
cores:  16

Input parameters:
  kpts: [4 4 1]
  mode: {ecut: 400.0,
         gammacentered: False,
         name: pw}
  xc: RPBE

System changes: positions, numbers, cell, pbc, initial_charges, initial_magmoms 

Initialize ...

Ag-setup:
  name: Silver
  id: c05e55bab2c3858b3f9398f6d75cb77c
  Z: 47
  valence: 17
  core: 30
  charge: 0.0
  file: /software/kemi/gpaw-setups/0.9.20000/Ag.RPBE.gz
  cutoffs: 1.25(comp), 2.35(filt), 2.19(core), lmax=2
  valence states:
                energy  radius
    5s(1.00)    -4.277   1.286
    4p(6.00)   -58.523   1.328
    5p(0.00)    -0.755   1.328
    4d(10.00)    -7.386   1.180
    *s          22.934   1.286
    *d          19.826   1.180

  Using partial waves for Ag as LCAO basis

Ir-setup:
  name: Iridium
  id: 73b603359d1d5397a85ae3c2440f9033
  Z: 77
  valence: 15
  core: 62
  charge: 0.0
  file: /software/kemi/gpaw-setups/0.9.20000/Ir.RPBE.gz
  cutoffs: 1.26(comp), 2.40(filt), 2.36(core), lmax=2
  valence states:
                energy  radius
    6s(2.00)    -6.219   1.296
    5p(6.00)   -54.684   1.328
    6p(0.00)    -1.215   1.328
    5d(7.00)    -7.118   1.286
    *s          20.992   1.296
    *d          20.093   1.286

  Using partial waves for Ir as LCAO basis

Pt-setup:
  name: Platinum
  id: f04f522592575c47ad794f6b4a415b4b
  Z: 78
  valence: 16
  core: 62
  charge: 0.0
  file: /software/kemi/gpaw-setups/0.9.20000/Pt.RPBE.gz
  cutoffs: 1.29(comp), 2.26(filt), 2.26(core), lmax=2
  valence states:
                energy  radius
    6s(1.00)    -5.516   1.307
    5p(6.00)   -55.971   1.371
    6p(0.00)    -0.856   1.371
    5d(9.00)    -6.087   1.307
    *s          21.695   1.307
    *d          21.125   1.307

  Using partial waves for Pt as LCAO basis

Ru-setup:
  name: Ruthenium
  id: 76477906e28f51dc1b29884d53556fe9
  Z: 44
  valence: 16
  core: 28
  charge: 0.0
  file: /software/kemi/gpaw-setups/0.9.20000/Ru.RPBE.gz
  cutoffs: 1.23(comp), 2.16(filt), 1.30(core), lmax=2
  valence states:
                energy  radius
    4s(2.00)   -76.255   1.281
    5s(1.00)    -4.126   1.281
    4p(6.00)   -46.371   1.286
    5p(0.00)    -0.913   1.286
    4d(7.00)    -5.146   1.254
    *d          22.066   1.254

  Using partial waves for Ru as LCAO basis

O-setup:
  name: Oxygen
  id: 08071ca1eed670e7821b24b7eb4d558c
  Z: 8
  valence: 6
  core: 2
  charge: 0.0
  file: /software/kemi/gpaw-setups/0.9.20000/O.RPBE.gz
  cutoffs: 0.67(comp), 1.17(filt), 0.83(core), lmax=2
  valence states:
                energy  radius
    2s(2.00)   -24.041   0.688
    2p(4.00)    -8.984   0.598
    *s           3.170   0.688
    *p          18.228   0.598
    *d           0.000   0.619

  Using partial waves for O as LCAO basis

Reference energy: -16429278.754816

Spin-paired calculation

Occupation numbers:
  Fermi-Dirac: width=0.1000 eV

Convergence criteria:
  Maximum total energy change: 0.0005 eV / electron
  Maximum integral of absolute density change: 0.0001 electrons
  Maximum integral of absolute eigenstate change: 4e-08 eV^2
  Maximum number of iterations: 333

Symmetries present (total): 1

  ( 1  0  0)
  ( 0  1  0)
  ( 0  0  1)

16 k-points: 4 x 4 x 1 Monkhorst-Pack grid
8 k-points in the irreducible part of the Brillouin zone
       k-points in crystal coordinates                weights
   0:     0.12500000   -0.37500000    0.00000000          2/16
   1:     0.12500000   -0.12500000    0.00000000          2/16
   2:     0.12500000    0.12500000    0.00000000          2/16
   3:     0.12500000    0.37500000    0.00000000          2/16
   4:     0.37500000   -0.37500000    0.00000000          2/16
   5:     0.37500000   -0.12500000    0.00000000          2/16
   6:     0.37500000    0.12500000    0.00000000          2/16
   7:     0.37500000    0.37500000    0.00000000          2/16

Wave functions: Plane wave expansion
  Cutoff energy: 400.000 eV
  Number of coefficients (min, max): 32722, 32776
  Pulay-stress correction: 0.000000 eV/Ang^3 (de/decut=0.000000)
  Using FFTW library
  ScaLapack parameters: grid=1x1, blocksize=None
  Wavefunction extrapolation:
    Improved wavefunction reuse through dual PAW basis 

Eigensolver
   Davidson(niter=2, smin=None, normalize=True) 

Densities:
  Coarse grid: 35*35*135 grid
  Fine grid: 70*70*270 grid
  Total Charge: 0.000000 

Density mixing:
  Method: separate
  Backend: pulay
  Linear mixing parameter: 0.05
  Mixing with 5 old densities
  Damping of long wave oscillations: 50 

Hamiltonian:
  XC and Coulomb potentials evaluated on a 70*70*270 grid
  Using the RPBE Exchange-Correlation functional
 

XC parameters: RPBE with 2 nearest neighbor stencil

Memory estimate:
  Process memory now: 150.98 MiB
  Calculator: 540.22 MiB
    Density: 48.12 MiB
      Arrays: 16.41 MiB
      Localized functions: 25.35 MiB
      Mixer: 6.36 MiB
    Hamiltonian: 11.50 MiB
      Arrays: 10.73 MiB
      XC: 0.00 MiB
      Poisson: 0.00 MiB
      vbar: 0.77 MiB
    Wavefunctions: 480.60 MiB
      Arrays psit_nG: 217.55 MiB
      Eigensolver: 248.94 MiB
      Projections: 2.73 MiB
      Projectors: 4.75 MiB
      PW-descriptor: 6.62 MiB

Total number of cores used: 16
Parallelization over k-points: 8
Domain decomposition: 1 x 1 x 2

Number of atoms: 46
Number of atomic orbitals: 547
Number of bands in calculation: 435
Bands to converge: occupied states only
Number of valence electrons: 718

... initialized

Initializing position-dependent things.

Density initialized from atomic densities
Creating initial wave functions:
  435 bands from LCAO basis set

                                             
                                             
                                             
                                             
                            O                
                                             
                               Ag            
                  Ir    Ir                   
            Ag                               
                  AIr     Pt    Ru           
       Ir    IIr    IPt    Pt                
                                             
         Ru    Ir    PIr    Ag     Ir        
                Ag     Ag     Ag             
                                             
           Ir    PPt    RPt    Ir            
                                             
            Ir    IAg    AAg    Pt           
       Ag     Ir     Ir                      
             Ir     Ir     Ir                
        Ag     Ag     Ir                     
                                             
                                             
                                             
                                             
                                             

Positions:
   0 Ag     0.000000    1.621936   10.000000    ( 0.0000,  0.0000,  0.0000)
   1 Ag     2.809275    1.621936   10.000000    ( 0.0000,  0.0000,  0.0000)
   2 Ir     5.618550    1.621936   10.000000    ( 0.0000,  0.0000,  0.0000)
   3 Ir     1.404638    4.054840   10.000000    ( 0.0000,  0.0000,  0.0000)
   4 Ir     4.213913    4.054840   10.000000    ( 0.0000,  0.0000,  0.0000)
   5 Ir     7.023188    4.054840   10.000000    ( 0.0000,  0.0000,  0.0000)
   6 Ir     2.809275    6.487743   10.000000    ( 0.0000,  0.0000,  0.0000)
   7 Ag     5.618550    6.487743   10.000000    ( 0.0000,  0.0000,  0.0000)
   8 Pt     8.427826    6.487743   10.000000    ( 0.0000,  0.0000,  0.0000)
   9 Ag     0.000000    0.000000   12.293764    ( 0.0000,  0.0000,  0.0000)
  10 Ir     2.809275    0.000000   12.293764    ( 0.0000,  0.0000,  0.0000)
  11 Ir     5.618550    0.000000   12.293764    ( 0.0000,  0.0000,  0.0000)
  12 Ir     1.404638    2.432904   12.293764    ( 0.0000,  0.0000,  0.0000)
  13 Ag     4.213913    2.432904   12.293764    ( 0.0000,  0.0000,  0.0000)
  14 Ag     7.023188    2.432904   12.293764    ( 0.0000,  0.0000,  0.0000)
  15 Pt     2.809275    4.865807   12.293764    ( 0.0000,  0.0000,  0.0000)
  16 Ru     5.618550    4.865807   12.293764    ( 0.0000,  0.0000,  0.0000)
  17 Ir     8.427826    4.865807   12.293764    ( 0.0000,  0.0000,  0.0000)
  18 Ir     1.441638    0.791118   14.593247    ( 0.0000,  0.0000,  0.0000)
  19 Pt     4.193480    0.729862   14.611205    ( 0.0000,  0.0000,  0.0000)
  20 Pt     7.034823    0.803600   14.634811    ( 0.0000,  0.0000,  0.0000)
  21 Ag     2.789574    3.267050   14.608106    ( 0.0000,  0.0000,  0.0000)
  22 Ag     5.614143    3.230616   14.629701    ( 0.0000,  0.0000,  0.0000)
  23 Ag     8.464759    3.239382   14.607930    ( 0.0000,  0.0000,  0.0000)
  24 Pt     4.237230    5.675263   14.599690    ( 0.0000,  0.0000,  0.0000)
  25 Ag     7.020289    5.624637   14.588938    ( 0.0000,  0.0000,  0.0000)
  26 Ir     9.810296    5.749034   14.534386    ( 0.0000,  0.0000,  0.0000)
  27 Ru     0.088724    1.655821   16.925664    ( 0.0000,  0.0000,  0.0000)
  28 Ir     2.745717    1.627778   16.875164    ( 0.0000,  0.0000,  0.0000)
  29 Ir     5.551846    1.597836   16.889230    ( 0.0000,  0.0000,  0.0000)
  30 Ir     1.358794    4.007324   17.013226    ( 0.0000,  0.0000,  0.0000)
  31 Ir     4.198339    3.977911   16.957702    ( 0.0000,  0.0000,  0.0000)
  32 Pt     7.125382    4.056246   16.998429    ( 0.0000,  0.0000,  0.0000)
  33 Ag     2.759687    6.474835   16.802442    ( 0.0000,  0.0000,  0.0000)
  34 Ir     5.663661    6.563267   16.864024    ( 0.0000,  0.0000,  0.0000)
  35 Ru     8.399575    6.483077   16.866623    ( 0.0000,  0.0000,  0.0000)
  36 Ir     0.015859   -0.055829   18.998154    ( 0.0000,  0.0000,  0.0000)
  37 Ir     2.776668   -0.025110   18.984491    ( 0.0000,  0.0000,  0.0000)
  38 Pt     5.623976   -0.052286   19.132338    ( 0.0000,  0.0000,  0.0000)
  39 Ag     1.411190    2.424549   19.550242    ( 0.0000,  0.0000,  0.0000)
  40 Ir     4.228423    2.403175   19.018562    ( 0.0000,  0.0000,  0.0000)
  41 Pt     6.964575    2.313754   19.128521    ( 0.0000,  0.0000,  0.0000)
  42 Ir     2.920544    4.885225   19.043791    ( 0.0000,  0.0000,  0.0000)
  43 Ir     5.524960    4.949858   19.026821    ( 0.0000,  0.0000,  0.0000)
  44 Ag     8.407084    4.876484   19.535850    ( 0.0000,  0.0000,  0.0000)
  45 O      6.977118    5.705020   20.850242    ( 0.0000,  0.0000,  0.0000)

Unit cell:
           periodic     x           y           z      points  spacing
  1. axis:    yes    8.445283    0.000000    0.000000    35     0.2090
  2. axis:    yes    4.222641    7.313829    0.000000    35     0.2090
  3. axis:    no     0.000000    0.000000   29.175054   135     0.2161

  Lengths:   8.445283   8.445283  29.175054
  Angles:   90.000000  90.000000  60.000000

Effective grid spacing dv^(1/3) = 0.2217

                     log10-error:    total        iterations:
           time      wfs    density  energy       fermi  poisson
iter:   1  20:09:51  +0.17   +inf  -295.199455    3             
iter:   2  20:11:06  -1.11  -1.37  -295.828526    36            
iter:   3  20:12:21  -1.37  -1.31  -326.839131    35            
iter:   4  20:13:37  -1.76  -1.26  -274.859477    3             
iter:   5  20:14:52  -2.26  -1.49  -269.050932    36            
iter:   6  20:16:07  -2.51  -1.55  -267.501131    3             
iter:   7  20:17:23  -2.32  -1.60  -265.302986    3             
iter:   8  20:18:39  -2.36  -1.73  -264.207981    3             
iter:   9  20:19:54  -2.68  -1.91  -264.331072    3             
iter:  10  20:21:09  -2.70  -2.04  -265.337709    3             
iter:  11  20:22:25  -3.01  -1.99  -264.906337    3             
iter:  12  20:23:41  -3.54  -2.08  -264.506761    3             
iter:  13  20:24:56  -3.75  -2.20  -264.397414    3             
iter:  14  20:26:11  -3.68  -2.23  -264.349868    3             
iter:  15  20:27:26  -3.49  -2.32  -264.304797    2             
iter:  16  20:28:41  -3.71  -2.41  -264.295309    3             
iter:  17  20:29:56  -4.02  -2.43  -264.338368    3             
iter:  18  20:31:11  -3.78  -2.41  -264.321775    3             
iter:  19  20:32:27  -4.01  -2.41  -264.183452    3             
iter:  20  20:33:42  -3.84  -2.64  -264.150781    2             
iter:  21  20:34:55  -4.34  -2.72  -264.142753    3             
iter:  22  20:36:10  -4.54  -2.74  -264.138442    3             
iter:  23  20:37:23  -4.33  -2.78  -264.177658    3             
iter:  24  20:38:38  -4.39  -2.69  -264.145078    3             
iter:  25  20:39:49  -4.60  -2.83  -264.138728    3             
iter:  26  20:41:02  -5.03  -2.96  -264.136937    3             
iter:  27  20:42:16  -5.61  -3.03  -264.131217    2             
iter:  28  20:43:31  -5.54  -3.14  -264.131367    2             
iter:  29  20:44:44  -5.41  -3.19  -264.135666    3             
iter:  30  20:45:58  -5.56  -3.13  -264.126762    2             
iter:  31  20:47:15  -5.68  -3.26  -264.127911    2             
iter:  32  20:48:46  -5.89  -3.35  -264.126871    3             
iter:  33  20:50:17  -5.62  -3.41  -264.124473    2             
iter:  34  20:51:47  -5.73  -3.48  -264.124837    2             
iter:  35  20:53:18  -6.10  -3.57  -264.125241    2             
iter:  36  20:54:49  -6.44  -3.59  -264.124034    2             
iter:  37  20:56:20  -6.19  -3.62  -264.124699    2             
iter:  38  20:57:50  -6.21  -3.69  -264.124986    2             
iter:  39  20:59:21  -6.26  -3.69  -264.123608    2             
iter:  40  21:00:52  -6.78  -3.86  -264.124063    2             
iter:  41  21:02:22  -7.13  -3.90  -264.124005    2             
iter:  42  21:03:53  -7.08  -3.94  -264.123463    2             
iter:  43  21:05:24  -6.77  -3.95  -264.123770    2             
iter:  44  21:06:54  -7.10  -4.09  -264.123844    2             
iter:  45  21:08:25  -7.35  -4.12  -264.123460    2             
iter:  46  21:09:56  -7.96  -4.18  -264.123706    2             

Converged after 46 iterations.

Dipole moment: (23.024272, 18.545056, -0.323518) |e|*Ang

Energy contributions relative to reference atoms: (reference = -16429278.754816)

Kinetic:       -164.009849
Potential:     +106.164103
External:        +0.000000
XC:            -199.039130
Entropy (-ST):   -2.073987
Local:           -6.201837
--------------------------
Free energy:   -265.160700
Extrapolated:  -264.123706

Fermi level: 1.19584

Showing only first 2 kpts
 Kpt  Band  Eigenvalues  Occupancy
  0   357      1.21142    0.11528
  0   358      1.22492    0.10695
  0   359      1.24339    0.09583
  0   360      1.29214    0.06907

  1   357      1.10189    0.17975
  1   358      1.10988    0.17565
  1   359      1.13761    0.16040
  1   360      1.19468    0.12573



Forces in eV/Ang:
  0 Ag   -0.42419    0.16364   -1.04809
  1 Ag    0.25306    0.22830   -0.84836
  2 Ir    0.50367   -0.17968    0.02121
  3 Ir   -0.11249    1.23914    1.37994
  4 Ir    0.41212    0.40189    0.87618
  5 Ir   -0.32836   -0.02367    1.21966
  6 Ir   -1.72282   -0.49819    0.74264
  7 Ag   -0.11916   -0.35368   -0.94626
  8 Pt    1.06814   -0.38989    0.48552
  9 Ag    0.13252    0.00402    0.16761
 10 Ir   -0.02189   -0.41545    0.97548
 11 Ir   -0.64916   -0.78795   -0.51122
 12 Ir    0.38600    0.17964    0.15282
 13 Ag   -0.01547   -0.03658    0.14698
 14 Ag    0.05909    0.08802    0.12783
 15 Pt   -0.15598   -0.04940   -0.61262
 16 Ru    0.63347    0.47745   -1.37513
 17 Ir    0.12632    0.28992   -1.27878
 18 Ir   -0.03484    0.01471    0.04081
 19 Pt   -0.00567    0.06569    0.01782
 20 Pt    0.02063    0.00115    0.04050
 21 Ag   -0.01141    0.04718   -0.00923
 22 Ag    0.00996   -0.00208    0.03945
 23 Ag    0.01103   -0.00475   -0.01359
 24 Pt   -0.00066    0.00987    0.03651
 25 Ag   -0.00901   -0.02784    0.00726
 26 Ir    0.02944   -0.04782    0.01563
 27 Ru    0.02322   -0.07041    0.04994
 28 Ir    0.03743   -0.26845    0.38781
 29 Ir    0.00476   -0.02458    0.02541
 30 Ir    0.01753    0.00059    0.37021
 31 Ir    0.13683    0.20315    0.08477
 32 Pt   -0.04482   -0.01869   -0.07171
 33 Ag   -0.01508   -0.03194   -0.04234
 34 Ir   -0.03775   -0.06052   -0.03754
 35 Ru    0.02475    0.05022   -0.05929
 36 Ir   -0.30207    0.14254   -0.07709
 37 Ir    0.03785   -0.44989    1.13884
 38 Pt    0.17080    0.10783   -0.07500
 39 Ag    0.01438   -0.03627   -0.00657
 40 Ir   -0.01821   -0.04153   -0.02122
 41 Pt   -0.00296   -0.20274   -0.08326
 42 Ir    0.01832   -0.03461   -0.12581
 43 Ir    0.37604    0.08415    1.34496
 44 Ag    0.74697   -0.45205   -0.22013
 45 O    -1.21396    0.69986   -2.36887

System changes: positions 

Initializing position-dependent things.

Density initialized from wave functions
                                             
                                             
                                             
                                             
                            O                
                                             
                               Ag            
                  Ir    Ir                   
            Ag            Pt    Ru           
                  AIr                        
       Ir    IIr    IPt    Pt                
                                             
         Ru    Ir    PIr    Ag     Ir        
                Ag     Ag     Ag             
                                             
           Ir    PPt    RPt    Ir            
                                             
            Ir    IAg    AAg    Pt           
       Ag     Ir     Ir                      
             Ir     Ir     Ir                
        Ag     Ag     Ir                     
                                             
                                             
                                             
                                             
                                             

Positions:
   0 Ag     0.000000    1.621936   10.000000    ( 0.0000,  0.0000,  0.0000)
   1 Ag     2.809275    1.621936   10.000000    ( 0.0000,  0.0000,  0.0000)
   2 Ir     5.618550    1.621936   10.000000    ( 0.0000,  0.0000,  0.0000)
   3 Ir     1.404638    4.054840   10.000000    ( 0.0000,  0.0000,  0.0000)
   4 Ir     4.213913    4.054840   10.000000    ( 0.0000,  0.0000,  0.0000)
   5 Ir     7.023188    4.054840   10.000000    ( 0.0000,  0.0000,  0.0000)
   6 Ir     2.809275    6.487743   10.000000    ( 0.0000,  0.0000,  0.0000)
   7 Ag     5.618550    6.487743   10.000000    ( 0.0000,  0.0000,  0.0000)
   8 Pt     8.427826    6.487743   10.000000    ( 0.0000,  0.0000,  0.0000)
   9 Ag     0.000000    0.000000   12.293764    ( 0.0000,  0.0000,  0.0000)
  10 Ir     2.809275    0.000000   12.293764    ( 0.0000,  0.0000,  0.0000)
  11 Ir     5.618550    0.000000   12.293764    ( 0.0000,  0.0000,  0.0000)
  12 Ir     1.404638    2.432904   12.293764    ( 0.0000,  0.0000,  0.0000)
  13 Ag     4.213913    2.432904   12.293764    ( 0.0000,  0.0000,  0.0000)
  14 Ag     7.023188    2.432904   12.293764    ( 0.0000,  0.0000,  0.0000)
  15 Pt     2.809275    4.865807   12.293764    ( 0.0000,  0.0000,  0.0000)
  16 Ru     5.618550    4.865807   12.293764    ( 0.0000,  0.0000,  0.0000)
  17 Ir     8.427826    4.865807   12.293764    ( 0.0000,  0.0000,  0.0000)
  18 Ir     1.439107    0.792187   14.596213    ( 0.0000,  0.0000,  0.0000)
  19 Pt     4.193068    0.734636   14.612500    ( 0.0000,  0.0000,  0.0000)
  20 Pt     7.036322    0.803683   14.637754    ( 0.0000,  0.0000,  0.0000)
  21 Ag     2.788745    3.270478   14.607435    ( 0.0000,  0.0000,  0.0000)
  22 Ag     5.614867    3.230465   14.632567    ( 0.0000,  0.0000,  0.0000)
  23 Ag     8.465561    3.239037   14.606942    ( 0.0000,  0.0000,  0.0000)
  24 Pt     4.237182    5.675980   14.602343    ( 0.0000,  0.0000,  0.0000)
  25 Ag     7.019635    5.622614   14.589465    ( 0.0000,  0.0000,  0.0000)
  26 Ir     9.812436    5.745559   14.535522    ( 0.0000,  0.0000,  0.0000)
  27 Ru     0.090412    1.650704   16.929292    ( 0.0000,  0.0000,  0.0000)
  28 Ir     2.748437    1.608270   16.903345    ( 0.0000,  0.0000,  0.0000)
  29 Ir     5.552192    1.596050   16.891076    ( 0.0000,  0.0000,  0.0000)
  30 Ir     1.360068    4.007367   17.040128    ( 0.0000,  0.0000,  0.0000)
  31 Ir     4.208282    3.992673   16.963862    ( 0.0000,  0.0000,  0.0000)
  32 Pt     7.122125    4.054888   16.993218    ( 0.0000,  0.0000,  0.0000)
  33 Ag     2.758591    6.472514   16.799365    ( 0.0000,  0.0000,  0.0000)
  34 Ir     5.660918    6.558869   16.861296    ( 0.0000,  0.0000,  0.0000)
  35 Ru     8.401373    6.486727   16.862315    ( 0.0000,  0.0000,  0.0000)
  36 Ir    -0.006092   -0.045471   18.992553    ( 0.0000,  0.0000,  0.0000)
  37 Ir     2.779419   -0.057802   19.067247    ( 0.0000,  0.0000,  0.0000)
  38 Pt     5.636387   -0.044450   19.126888    ( 0.0000,  0.0000,  0.0000)
  39 Ag     1.412235    2.421914   19.549765    ( 0.0000,  0.0000,  0.0000)
  40 Ir     4.227100    2.400157   19.017021    ( 0.0000,  0.0000,  0.0000)
  41 Pt     6.964360    2.299021   19.122471    ( 0.0000,  0.0000,  0.0000)
  42 Ir     2.921875    4.882710   19.034649    ( 0.0000,  0.0000,  0.0000)
  43 Ir     5.552286    4.955973   19.124555    ( 0.0000,  0.0000,  0.0000)
  44 Ag     8.461364    4.843635   19.519854    ( 0.0000,  0.0000,  0.0000)
  45 O      6.888903    5.755877   20.678104    ( 0.0000,  0.0000,  0.0000)

Unit cell:
           periodic     x           y           z      points  spacing
  1. axis:    yes    8.445283    0.000000    0.000000    35     0.2090
  2. axis:    yes    4.222641    7.313829    0.000000    35     0.2090
  3. axis:    no     0.000000    0.000000   29.175054   135     0.2161

  Lengths:   8.445283   8.445283  29.175054
  Angles:   90.000000  90.000000  60.000000

Effective grid spacing dv^(1/3) = 0.2217

                     log10-error:    total        iterations:
           time      wfs    density  energy       fermi  poisson
iter:   1  21:12:06  -1.91   +inf  -271.884664    4             
iter:   2  21:13:35  -1.32  -1.80  -342.561818    37            
iter:   3  21:14:47  -1.46  -1.28  -290.580845    35            
iter:   4  21:16:04  -2.42  -1.53  -265.833966    37            
iter:   5  21:17:18  -2.95  -2.21  -265.487572    3             
iter:   6  21:18:33  -3.82  -2.32  -265.123927    3             
iter:   7  21:19:47  -3.99  -2.60  -265.029757    2             
iter:   8  21:21:03  -4.07  -2.78  -264.985740    2             
iter:   9  21:22:17  -3.70  -2.91  -265.111989    3             
iter:  10  21:23:31  -4.14  -2.48  -265.029136    2             
iter:  11  21:24:46  -4.31  -2.70  -264.948540    3             
iter:  12  21:26:01  -5.21  -3.27  -264.945666    3             
iter:  13  21:27:15  -5.53  -3.25  -264.944535    3             
iter:  14  21:28:30  -5.42  -3.38  -264.943328    2             
iter:  15  21:29:45  -5.29  -3.51  -264.943826    2             
iter:  16  21:31:00  -5.49  -3.31  -264.948910    2             
iter:  17  21:32:15  -5.70  -3.34  -264.942884    2             
iter:  18  21:33:30  -6.18  -3.66  -264.942912    2             
iter:  19  21:34:44  -6.32  -3.66  -264.943219    2             
iter:  20  21:35:59  -6.47  -3.81  -264.943018    2             
iter:  21  21:37:14  -6.77  -3.95  -264.942623    2             
iter:  22  21:38:28  -6.44  -3.97  -264.943634    2             
iter:  23  21:39:42  -7.03  -3.85  -264.942519    2             
iter:  24  21:40:58  -6.75  -4.15  -264.942635    2             
iter:  25  21:42:12  -7.19  -4.28  -264.942923    2             
iter:  26  21:43:27  -7.30  -4.19  -264.942749    2             
iter:  27  21:44:41  -7.53  -4.38  -264.942664    2             

Converged after 27 iterations.

Dipole moment: (24.649334, 19.392128, -0.191979) |e|*Ang

Energy contributions relative to reference atoms: (reference = -16429278.754816)

Kinetic:       -158.599657
Potential:     +100.743871
External:        +0.000000
XC:            -199.703389
Entropy (-ST):   -2.075579
Local:           -6.345699
--------------------------
Free energy:   -265.980453
Extrapolated:  -264.942664

Fermi level: 1.25808

Showing only first 2 kpts
 Kpt  Band  Eigenvalues  Occupancy
  0   357      1.27215    0.11622
  0   358      1.28937    0.10560
  0   359      1.31304    0.09149
  0   360      1.35373    0.06939

  1   357      1.16572    0.17894
  1   358      1.17832    0.17236
  1   359      1.21162    0.15352
  1   360      1.24929    0.13049



Forces in eV/Ang:
  0 Ag   -0.41788    0.15541   -1.04993
  1 Ag    0.24951    0.22829   -0.85804
  2 Ir    0.50036   -0.17364    0.03186
  3 Ir   -0.11157    1.24135    1.35271
  4 Ir    0.40761    0.39480    0.87246
  5 Ir   -0.32589   -0.02052    1.21939
  6 Ir   -1.70867   -0.49935    0.75191
  7 Ag   -0.12246   -0.34222   -0.95437
  8 Pt    1.05640   -0.39240    0.48449
  9 Ag    0.13173    0.00942    0.16683
 10 Ir   -0.02490   -0.41007    0.98752
 11 Ir   -0.64553   -0.77693   -0.50019
 12 Ir    0.38865    0.16797    0.17056
 13 Ag   -0.00795   -0.02819    0.16475
 14 Ag    0.05362    0.08099    0.14082
 15 Pt   -0.13369   -0.03886   -0.59370
 16 Ru    0.62917    0.47018   -1.37930
 17 Ir    0.11812    0.28644   -1.27151
 18 Ir    0.02842   -0.00141    0.11511
 19 Pt   -0.03905    0.01834    0.02709
 20 Pt    0.00621    0.00947   -0.00238
 21 Ag   -0.01705   -0.01607    0.11834
 22 Ag   -0.00842   -0.00243    0.01247
 23 Ag    0.02602    0.00654    0.05124
 24 Pt    0.02990   -0.00741    0.03921
 25 Ag    0.01457   -0.00246    0.00398
 26 Ir   -0.04324    0.00129    0.01945
 27 Ru    0.09823   -0.03058    0.04876
 28 Ir    0.09547   -0.22928    0.22442
 29 Ir   -0.09070    0.05340   -0.03552
 30 Ir    0.09127   -0.06968    0.12155
 31 Ir    0.32788    0.11285    0.22389
 32 Pt   -0.14439    0.04734    0.08675
 33 Ag   -0.02081   -0.04198   -0.06849
 34 Ir    0.06628   -0.12746    0.23317
 35 Ru   -0.10670    0.11387    0.02722
 36 Ir   -0.16611   -0.02703   -0.01347
 37 Ir   -0.08491   -0.28589    0.33784
 38 Pt    0.05048    0.00939   -0.01441
 39 Ag    0.07448   -0.16414    0.03783
 40 Ir    0.06531   -0.02484    0.06615
 41 Pt    0.04523   -0.01380   -0.02614
 42 Ir    0.28103   -0.03523    0.01465
 43 Ir   -0.14426    0.11956    0.69822
 44 Ag    0.71380   -0.37690   -0.24536
 45 O    -1.21534    0.55263   -1.64464

System changes: positions 

Initializing position-dependent things.

Density initialized from wave functions
                                             
                                             
                                             
                                             
                            O                
                                             
                        Ir     Ag            
                  Ir                         
            Ag    AIr     Pt    Ru           
                                             
       Ir    IIr    IPt     Pt               
         Ru    Ir                            
                     PIr    Ag     Ir        
                Ag     Ag     Ag             
                                             
           Ir    PPt    RPt    Ir            
                                             
            Ir     Ag    AAg    Pt           
       Ag    IIr    IIr    Ir                
                                             
        Ag     Ag     Ir                     
                                             
                                             
                                             
                                             
                                             

Positions:
   0 Ag     0.000000    1.621936   10.000000    ( 0.0000,  0.0000,  0.0000)
   1 Ag     2.809275    1.621936   10.000000    ( 0.0000,  0.0000,  0.0000)
   2 Ir     5.618550    1.621936   10.000000    ( 0.0000,  0.0000,  0.0000)
   3 Ir     1.404638    4.054840   10.000000    ( 0.0000,  0.0000,  0.0000)
   4 Ir     4.213913    4.054840   10.000000    ( 0.0000,  0.0000,  0.0000)
   5 Ir     7.023188    4.054840   10.000000    ( 0.0000,  0.0000,  0.0000)
   6 Ir     2.809275    6.487743   10.000000    ( 0.0000,  0.0000,  0.0000)
   7 Ag     5.618550    6.487743   10.000000    ( 0.0000,  0.0000,  0.0000)
   8 Pt     8.427826    6.487743   10.000000    ( 0.0000,  0.0000,  0.0000)
   9 Ag     0.000000    0.000000   12.293764    ( 0.0000,  0.0000,  0.0000)
  10 Ir     2.809275    0.000000   12.293764    ( 0.0000,  0.0000,  0.0000)
  11 Ir     5.618550    0.000000   12.293764    ( 0.0000,  0.0000,  0.0000)
  12 Ir     1.404638    2.432904   12.293764    ( 0.0000,  0.0000,  0.0000)
  13 Ag     4.213913    2.432904   12.293764    ( 0.0000,  0.0000,  0.0000)
  14 Ag     7.023188    2.432904   12.293764    ( 0.0000,  0.0000,  0.0000)
  15 Pt     2.809275    4.865807   12.293764    ( 0.0000,  0.0000,  0.0000)
  16 Ru     5.618550    4.865807   12.293764    ( 0.0000,  0.0000,  0.0000)
  17 Ir     8.427826    4.865807   12.293764    ( 0.0000,  0.0000,  0.0000)
  18 Ir     1.436575    0.793257   14.599178    ( 0.0000,  0.0000,  0.0000)
  19 Pt     4.192657    0.739409   14.613795    ( 0.0000,  0.0000,  0.0000)
  20 Pt     7.037821    0.803767   14.640697    ( 0.0000,  0.0000,  0.0000)
  21 Ag     2.787916    3.273906   14.606763    ( 0.0000,  0.0000,  0.0000)
  22 Ag     5.615591    3.230314   14.635434    ( 0.0000,  0.0000,  0.0000)
  23 Ag     8.466363    3.238691   14.605954    ( 0.0000,  0.0000,  0.0000)
  24 Pt     4.237134    5.676698   14.604997    ( 0.0000,  0.0000,  0.0000)
  25 Ag     7.018980    5.620591   14.589992    ( 0.0000,  0.0000,  0.0000)
  26 Ir     9.814575    5.742084   14.536658    ( 0.0000,  0.0000,  0.0000)
  27 Ru     0.092099    1.645588   16.932921    ( 0.0000,  0.0000,  0.0000)
  28 Ir     2.751157    1.588763   16.931526    ( 0.0000,  0.0000,  0.0000)
  29 Ir     5.552537    1.594264   16.892923    ( 0.0000,  0.0000,  0.0000)
  30 Ir     1.361342    4.007410   17.067030    ( 0.0000,  0.0000,  0.0000)
  31 Ir     4.218225    4.007436   16.970022    ( 0.0000,  0.0000,  0.0000)
  32 Pt     7.118868    4.053530   16.988007    ( 0.0000,  0.0000,  0.0000)
  33 Ag     2.757495    6.470193   16.796288    ( 0.0000,  0.0000,  0.0000)
  34 Ir     5.658176    6.554471   16.858568    ( 0.0000,  0.0000,  0.0000)
  35 Ru     8.403171    6.490376   16.858006    ( 0.0000,  0.0000,  0.0000)
  36 Ir    -0.028043   -0.035113   18.986951    ( 0.0000,  0.0000,  0.0000)
  37 Ir     2.782170   -0.090494   19.150004    ( 0.0000,  0.0000,  0.0000)
  38 Pt     5.648798   -0.036615   19.121438    ( 0.0000,  0.0000,  0.0000)
  39 Ag     1.413280    2.419278   19.549287    ( 0.0000,  0.0000,  0.0000)
  40 Ir     4.225777    2.397140   19.015479    ( 0.0000,  0.0000,  0.0000)
  41 Pt     6.964145    2.284289   19.116421    ( 0.0000,  0.0000,  0.0000)
  42 Ir     2.923206    4.880195   19.025507    ( 0.0000,  0.0000,  0.0000)
  43 Ir     5.579612    4.962088   19.222289    ( 0.0000,  0.0000,  0.0000)
  44 Ag     8.515645    4.810786   19.503858    ( 0.0000,  0.0000,  0.0000)
  45 O      6.800689    5.806735   20.505965    ( 0.0000,  0.0000,  0.0000)

Unit cell:
           periodic     x           y           z      points  spacing
  1. axis:    yes    8.445283    0.000000    0.000000    35     0.2090
  2. axis:    yes    4.222641    7.313829    0.000000    35     0.2090
  3. axis:    no     0.000000    0.000000   29.175054   135     0.2161

  Lengths:   8.445283   8.445283  29.175054
  Angles:   90.000000  90.000000  60.000000

Effective grid spacing dv^(1/3) = 0.2217

                     log10-error:    total        iterations:
           time      wfs    density  energy       fermi  poisson
iter:   1  21:46:29  -1.88   +inf  -273.502796    4             
iter:   2  21:47:43  -1.18  -1.76  -372.463920    38            
iter:   3  21:48:57  -1.44  -1.22  -280.995401    37            
iter:   4  21:50:05  -2.41  -1.62  -266.306114    33            
iter:   5  21:51:18  -2.99  -2.18  -266.097299    3             
iter:   6  21:52:31  -3.50  -2.19  -265.375030    3             
iter:   7  21:53:45  -3.77  -2.58  -265.278658    3             
iter:   8  21:54:58  -4.00  -2.72  -265.318352    3             
iter:   9  21:56:12  -3.94  -2.55  -265.291041    3             
iter:  10  21:57:42  -4.16  -2.63  -265.208570    3             
iter:  11  21:59:13  -4.13  -2.85  -265.182314    3             
iter:  12  22:00:43  -4.74  -3.19  -265.182647    3             
iter:  13  22:02:14  -5.15  -3.15  -265.180779    3             
iter:  14  22:03:44  -5.56  -3.32  -265.179045    2             
iter:  15  22:05:15  -5.71  -3.22  -265.181091    2             
iter:  16  22:06:45  -5.51  -3.32  -265.177764    2             
iter:  17  22:08:16  -5.81  -3.43  -265.177245    2             
iter:  18  22:09:46  -5.93  -3.53  -265.177835    2             
iter:  19  22:11:17  -5.62  -3.65  -265.179262    2             
iter:  20  22:12:47  -6.01  -3.61  -265.177482    2             
iter:  21  22:14:18  -6.25  -3.56  -265.178540    2             
iter:  22  22:15:48  -6.52  -3.78  -265.177871    2             
iter:  23  22:17:19  -6.36  -3.89  -265.177414    2             
iter:  24  22:18:49  -6.59  -4.08  -265.177935    2             
iter:  25  22:20:20  -7.04  -3.97  -265.177751    2             
iter:  26  22:21:50  -7.02  -4.02  -265.177078    2             
iter:  27  22:23:20  -7.22  -4.05  -265.177489    2             
iter:  28  22:24:34  -7.35  -4.23  -265.177373    2             
iter:  29  22:25:50  -7.36  -4.39  -265.177295    2             
iter:  30  22:27:05  -7.51  -4.51  -265.177472    2             

Converged after 30 iterations.

Dipole moment: (26.243051, 20.197027, -0.057278) |e|*Ang

Energy contributions relative to reference atoms: (reference = -16429278.754816)

Kinetic:       -147.779121
Potential:      +91.518566
External:        +0.000000
XC:            -201.480738
Entropy (-ST):   -2.070766
Local:           -6.400797
--------------------------
Free energy:   -266.212855
Extrapolated:  -265.177472

Fermi level: 1.32802

Showing only first 2 kpts
 Kpt  Band  Eigenvalues  Occupancy
  0   357      1.33487    0.12072
  0   358      1.36496    0.10217
  0   359      1.39168    0.08650
  0   360      1.42608    0.06819

  1   357      1.23394    0.17981
  1   358      1.25250    0.17008
  1   359      1.28772    0.14985
  1   360      1.30911    0.13678



Forces in eV/Ang:
  0 Ag   -0.41605    0.15651   -1.04480
  1 Ag    0.24858    0.23027   -0.85487
  2 Ir    0.49905   -0.17259    0.03670
  3 Ir   -0.10444    1.24800    1.34778
  4 Ir    0.40081    0.39237    0.87128
  5 Ir   -0.32186   -0.01819    1.22317
  6 Ir   -1.70888   -0.50585    0.76059
  7 Ag   -0.12118   -0.34142   -0.95345
  8 Pt    1.05339   -0.39479    0.48800
  9 Ag    0.13279    0.01185    0.17567
 10 Ir   -0.01835   -0.40707    1.01314
 11 Ir   -0.65184   -0.77744   -0.48520
 12 Ir    0.38691    0.14609    0.18359
 13 Ag   -0.00627   -0.02609    0.17734
 14 Ag    0.05170    0.07822    0.14941
 15 Pt   -0.11743   -0.01777   -0.57228
 16 Ru    0.62843    0.46757   -1.38181
 17 Ir    0.11537    0.29195   -1.26582
 18 Ir    0.10016   -0.00803    0.18531
 19 Pt   -0.06509   -0.03330    0.03670
 20 Pt   -0.01739    0.00628   -0.03157
 21 Ag   -0.01941   -0.07640    0.24099
 22 Ag   -0.02629   -0.00678   -0.00391
 23 Ag    0.04472    0.00881    0.11714
 24 Pt    0.05421   -0.02816    0.03713
 25 Ag    0.03610    0.03966   -0.02548
 26 Ir   -0.09866    0.06074    0.00346
 27 Ru    0.17922    0.02480    0.02879
 28 Ir    0.14126   -0.11936   -0.05887
 29 Ir   -0.18526    0.13519   -0.13350
 30 Ir    0.15197   -0.13538   -0.20314
 31 Ir    0.42496   -0.01725    0.26538
 32 Pt   -0.22642    0.10424    0.21975
 33 Ag   -0.02389   -0.05958   -0.09832
 34 Ir    0.08281   -0.18484    0.26576
 35 Ru   -0.21575    0.13084    0.10106
 36 Ir   -0.04917   -0.18692    0.04401
 37 Ir    0.05709    1.10494   -1.19589
 38 Pt   -0.09105   -0.10597    0.06170
 39 Ag    0.15304   -0.34097    0.07960
 40 Ir    0.12187    0.03296    0.11286
 41 Pt    0.09682    0.20620    0.04805
 42 Ir    0.54746   -0.03814    0.18337
 43 Ir   -1.56490   -0.64151   -0.77349
 44 Ag    0.57628   -0.24737   -0.16838
 45 O    -0.31626   -0.00017    0.95243

System changes: positions 

Initializing position-dependent things.

Density initialized from wave functions
                                             
                                             
                                             
                                             
                            O                
                                             
                                Ag           
                  Ir    Ir                   
            Ag    AIr     Pt    Ru           
                                             
       Ir    IIr    IPt    Pt                
         Ru                                  
               Ir     Ir    Ag     Ir        
                Ag     Ag     Ag             
                                             
           Ir    PPt    RPt    Ir            
                                             
            Ir     Ag    AAg    Pt           
       Ag    IIr    IIr    Ir                
                                             
        Ag     Ag     Ir                     
                                             
                                             
                                             
                                             
                                             

Positions:
   0 Ag     0.000000    1.621936   10.000000    ( 0.0000,  0.0000,  0.0000)
   1 Ag     2.809275    1.621936   10.000000    ( 0.0000,  0.0000,  0.0000)
   2 Ir     5.618550    1.621936   10.000000    ( 0.0000,  0.0000,  0.0000)
   3 Ir     1.404638    4.054840   10.000000    ( 0.0000,  0.0000,  0.0000)
   4 Ir     4.213913    4.054840   10.000000    ( 0.0000,  0.0000,  0.0000)
   5 Ir     7.023188    4.054840   10.000000    ( 0.0000,  0.0000,  0.0000)
   6 Ir     2.809275    6.487743   10.000000    ( 0.0000,  0.0000,  0.0000)
   7 Ag     5.618550    6.487743   10.000000    ( 0.0000,  0.0000,  0.0000)
   8 Pt     8.427826    6.487743   10.000000    ( 0.0000,  0.0000,  0.0000)
   9 Ag     0.000000    0.000000   12.293764    ( 0.0000,  0.0000,  0.0000)
  10 Ir     2.809275    0.000000   12.293764    ( 0.0000,  0.0000,  0.0000)
  11 Ir     5.618550    0.000000   12.293764    ( 0.0000,  0.0000,  0.0000)
  12 Ir     1.404638    2.432904   12.293764    ( 0.0000,  0.0000,  0.0000)
  13 Ag     4.213913    2.432904   12.293764    ( 0.0000,  0.0000,  0.0000)
  14 Ag     7.023188    2.432904   12.293764    ( 0.0000,  0.0000,  0.0000)
  15 Pt     2.809275    4.865807   12.293764    ( 0.0000,  0.0000,  0.0000)
  16 Ru     5.618550    4.865807   12.293764    ( 0.0000,  0.0000,  0.0000)
  17 Ir     8.427826    4.865807   12.293764    ( 0.0000,  0.0000,  0.0000)
  18 Ir     1.443186    0.792925   14.613162    ( 0.0000,  0.0000,  0.0000)
  19 Pt     4.187890    0.738112   14.616726    ( 0.0000,  0.0000,  0.0000)
  20 Pt     7.036916    0.804237   14.639105    ( 0.0000,  0.0000,  0.0000)
  21 Ag     2.786332    3.269207   14.623911    ( 0.0000,  0.0000,  0.0000)
  22 Ag     5.613869    3.229792   14.635810    ( 0.0000,  0.0000,  0.0000)
  23 Ag     8.469757    3.239245   14.614138    ( 0.0000,  0.0000,  0.0000)
  24 Pt     4.241015    5.674841   14.608270    ( 0.0000,  0.0000,  0.0000)
  25 Ag     7.021423    5.622976   14.588284    ( 0.0000,  0.0000,  0.0000)
  26 Ir     9.807981    5.745648   14.537167    ( 0.0000,  0.0000,  0.0000)
  27 Ru     0.105352    1.646197   16.935819    ( 0.0000,  0.0000,  0.0000)
  28 Ir     2.761921    1.575726   16.933753    ( 0.0000,  0.0000,  0.0000)
  29 Ir     5.539316    1.603560   16.883761    ( 0.0000,  0.0000,  0.0000)
  30 Ir     1.372545    3.997700   17.058607    ( 0.0000,  0.0000,  0.0000)
  31 Ir     4.251011    4.009579   16.990485    ( 0.0000,  0.0000,  0.0000)
  32 Pt     7.101867    4.060702   17.002590    ( 0.0000,  0.0000,  0.0000)
  33 Ag     2.755529    6.465384   16.788524    ( 0.0000,  0.0000,  0.0000)
  34 Ir     5.663493    6.540193   16.877023    ( 0.0000,  0.0000,  0.0000)
  35 Ru     8.388094    6.500605   16.864275    ( 0.0000,  0.0000,  0.0000)
  36 Ir    -0.036600   -0.046160   18.988828    ( 0.0000,  0.0000,  0.0000)
  37 Ir     2.786899   -0.018653   19.083099    ( 0.0000,  0.0000,  0.0000)
  38 Pt     5.645104   -0.042428   19.124619    ( 0.0000,  0.0000,  0.0000)
  39 Ag     1.424507    2.394195   19.554893    ( 0.0000,  0.0000,  0.0000)
  40 Ir     4.234224    2.398815   19.023228    ( 0.0000,  0.0000,  0.0000)
  41 Pt     6.971047    2.295719   19.118485    ( 0.0000,  0.0000,  0.0000)
  42 Ir     2.962816    4.876880   19.036578    ( 0.0000,  0.0000,  0.0000)
  43 Ir     5.473520    4.917432   19.189140    ( 0.0000,  0.0000,  0.0000)
  44 Ag     8.569449    4.785503   19.488106    ( 0.0000,  0.0000,  0.0000)
  45 O      6.757781    5.818370   20.534921    ( 0.0000,  0.0000,  0.0000)

Unit cell:
           periodic     x           y           z      points  spacing
  1. axis:    yes    8.445283    0.000000    0.000000    35     0.2090
  2. axis:    yes    4.222641    7.313829    0.000000    35     0.2090
  3. axis:    no     0.000000    0.000000   29.175054   135     0.2161

  Lengths:   8.445283   8.445283  29.175054
  Angles:   90.000000  90.000000  60.000000

Effective grid spacing dv^(1/3) = 0.2217

                     log10-error:    total        iterations:
           time      wfs    density  energy       fermi  poisson
iter:   1  22:28:54  -1.73   +inf  -270.081238    3             
iter:   2  22:30:08  -1.60  -1.87  -330.970867    37            
iter:   3  22:31:23  -1.98  -1.29  -266.632196    37            
iter:   4  22:32:38  -2.68  -2.15  -266.213856    4             
iter:   5  22:33:54  -3.20  -2.21  -265.681378    3             
iter:   6  22:35:08  -3.62  -2.43  -265.519013    3             
iter:   7  22:36:23  -4.10  -2.56  -265.421942    3             
iter:   8  22:37:37  -4.44  -2.85  -265.401989    2             
iter:   9  22:38:52  -4.13  -2.92  -265.516384    3             
iter:  10  22:40:07  -4.17  -2.54  -265.382535    3             
iter:  11  22:41:22  -4.35  -2.99  -265.373934    3             
iter:  12  22:42:37  -4.70  -3.09  -265.373900    3             
iter:  13  22:43:52  -5.29  -3.12  -265.366792    2             
iter:  14  22:45:07  -5.43  -3.32  -265.363908    2             
iter:  15  22:46:21  -5.73  -3.39  -265.371253    2             
iter:  16  22:47:37  -5.71  -3.19  -265.363719    2             
iter:  17  22:48:52  -5.57  -3.46  -265.364505    2             
iter:  18  22:50:07  -5.96  -3.41  -265.363963    3             
iter:  19  22:51:22  -5.89  -3.64  -265.363483    2             
iter:  20  22:52:37  -6.09  -3.68  -265.363325    2             
iter:  21  22:53:52  -6.00  -3.63  -265.367713    2             
iter:  22  22:55:08  -6.20  -3.44  -265.363422    2             
iter:  23  22:56:23  -6.58  -3.91  -265.363391    2             
iter:  24  22:57:37  -6.38  -3.96  -265.363872    2             
iter:  25  22:58:52  -6.85  -3.97  -265.363516    2             
iter:  26  23:00:08  -7.04  -4.24  -265.363336    2             
iter:  27  23:01:22  -7.17  -4.27  -265.364000    2             
iter:  28  23:02:37  -7.31  -4.00  -265.363390    2             
iter:  29  23:03:52  -7.11  -4.30  -265.363328    2             
iter:  30  23:05:08  -7.38  -4.27  -265.363456    2             
iter:  31  23:06:22  -7.70  -4.46  -265.363464    2             

Converged after 31 iterations.

Dipole moment: (22.666822, 17.320012, -0.126695) |e|*Ang

Energy contributions relative to reference atoms: (reference = -16429278.754816)

Kinetic:       -149.257433
Potential:      +92.474966
External:        +0.000000
XC:            -201.190140
Entropy (-ST):   -2.066630
Local:           -6.357542
--------------------------
Free energy:   -266.396779
Extrapolated:  -265.363464

Fermi level: 1.29262

Showing only first 2 kpts
 Kpt  Band  Eigenvalues  Occupancy
  0   357      1.30156    0.11942
  0   358      1.32850    0.10281
  0   359      1.35496    0.08725
  0   360      1.39128    0.06790

  1   357      1.19123    0.18344
  1   358      1.21317    0.17220
  1   359      1.24718    0.15292
  1   360      1.26733    0.14072



Forces in eV/Ang:
  0 Ag   -0.41872    0.15567   -1.04624
  1 Ag    0.24795    0.22972   -0.85251
  2 Ir    0.49867   -0.17296    0.02885
  3 Ir   -0.10820    1.24465    1.35734
  4 Ir    0.40327    0.39509    0.87762
  5 Ir   -0.32227   -0.02098    1.21346
  6 Ir   -1.71164   -0.49997    0.74859
  7 Ag   -0.12223   -0.34363   -0.95244
  8 Pt    1.05706   -0.39462    0.49062
  9 Ag    0.15110    0.01181    0.22193
 10 Ir   -0.02806   -0.40156    1.00201
 11 Ir   -0.65588   -0.77723   -0.48121
 12 Ir    0.39394    0.13736    0.21615
 13 Ag   -0.02613   -0.01881    0.19977
 14 Ag    0.06372    0.09000    0.16297
 15 Pt   -0.12343   -0.03875   -0.54169
 16 Ru    0.62764    0.47312   -1.37097
 17 Ir    0.12100    0.27927   -1.25859
 18 Ir    0.01225   -0.00836    0.08741
 19 Pt   -0.00934   -0.00108   -0.04371
 20 Pt    0.01054    0.01699    0.01229
 21 Ag    0.02993    0.00873    0.15211
 22 Ag   -0.00141    0.01882   -0.05012
 23 Ag   -0.01089    0.01444    0.07815
 24 Pt    0.01513   -0.03573    0.00358
 25 Ag   -0.00405   -0.02215    0.01154
 26 Ir   -0.00690    0.00486   -0.00804
 27 Ru    0.05004   -0.00481    0.06840
 28 Ir   -0.03154    0.09604   -0.20865
 29 Ir    0.05214   -0.04849   -0.06332
 30 Ir    0.07027   -0.12564   -0.18298
 31 Ir    0.10625   -0.05218   -0.22558
 32 Pt    0.05037    0.09453    0.15089
 33 Ag   -0.08937   -0.03027    0.00915
 34 Ir    0.02463   -0.09570    0.03719
 35 Ru   -0.05273    0.02719    0.10819
 36 Ir   -0.00086    0.05744   -0.01455
 37 Ir   -0.08744   -0.54821    0.16800
 38 Pt    0.00111   -0.07767   -0.02225
 39 Ag    0.07605   -0.20277    0.09391
 40 Ir    0.04489   -0.04369    0.15173
 41 Pt    0.09101    0.03645    0.00523
 42 Ir   -0.52828    0.03239    0.10434
 43 Ir    0.70257    0.28134    0.50040
 44 Ag   -0.14980    0.21942    0.08850
 45 O    -0.43874    0.08507   -1.14681

System changes: positions 

Initializing position-dependent things.

Density initialized from wave functions
                                            
                                            
                                            
                                            
                           O                
                                            
                 Ir    Ir      Ag           
            Ag                              
                  AIr    IPt   Ru           
       Ir    IIr    IPt    Pt               
                                            
        Ru     Ir    PIr    Ag     Ir       
                                            
                Ag     Ag     Ag            
           Ir     Pt     Pt                 
                 Pt     Ru     Ir           
            Ir     Ag     Ag                
       Ag     Ir  Ir Ir  Ag     Pt          
             Ir     Ir     Ir               
        Ag     Ag     Ir                    
                                            
                                            
                                            
                                            
                                            

Positions:
   0 Ag     0.000000    1.621936   10.000000    ( 0.0000,  0.0000,  0.0000)
   1 Ag     2.809275    1.621936   10.000000    ( 0.0000,  0.0000,  0.0000)
   2 Ir     5.618550    1.621936   10.000000    ( 0.0000,  0.0000,  0.0000)
   3 Ir     1.404638    4.054840   10.000000    ( 0.0000,  0.0000,  0.0000)
   4 Ir     4.213913    4.054840   10.000000    ( 0.0000,  0.0000,  0.0000)
   5 Ir     7.023188    4.054840   10.000000    ( 0.0000,  0.0000,  0.0000)
   6 Ir     2.809275    6.487743   10.000000    ( 0.0000,  0.0000,  0.0000)
   7 Ag     5.618550    6.487743   10.000000    ( 0.0000,  0.0000,  0.0000)
   8 Pt     8.427826    6.487743   10.000000    ( 0.0000,  0.0000,  0.0000)
   9 Ag     0.000000    0.000000   12.293764    ( 0.0000,  0.0000,  0.0000)
  10 Ir     2.809275    0.000000   12.293764    ( 0.0000,  0.0000,  0.0000)
  11 Ir     5.618550    0.000000   12.293764    ( 0.0000,  0.0000,  0.0000)
  12 Ir     1.404638    2.432904   12.293764    ( 0.0000,  0.0000,  0.0000)
  13 Ag     4.213913    2.432904   12.293764    ( 0.0000,  0.0000,  0.0000)
  14 Ag     7.023188    2.432904   12.293764    ( 0.0000,  0.0000,  0.0000)
  15 Pt     2.809275    4.865807   12.293764    ( 0.0000,  0.0000,  0.0000)
  16 Ru     5.618550    4.865807   12.293764    ( 0.0000,  0.0000,  0.0000)
  17 Ir     8.427826    4.865807   12.293764    ( 0.0000,  0.0000,  0.0000)
  18 Ir     1.447305    0.792177   14.626938    ( 0.0000,  0.0000,  0.0000)
  19 Pt     4.184771    0.737612   14.614948    ( 0.0000,  0.0000,  0.0000)
  20 Pt     7.037333    0.805764   14.639381    ( 0.0000,  0.0000,  0.0000)
  21 Ag     2.787765    3.267678   14.643999    ( 0.0000,  0.0000,  0.0000)
  22 Ag     5.612935    3.230949   14.632341    ( 0.0000,  0.0000,  0.0000)
  23 Ag     8.470673    3.240600   14.624114    ( 0.0000,  0.0000,  0.0000)
  24 Pt     4.244105    5.671238   14.610311    ( 0.0000,  0.0000,  0.0000)
  25 Ag     7.022308    5.622395   14.588327    ( 0.0000,  0.0000,  0.0000)
  26 Ir     9.804257    5.747635   14.536868    ( 0.0000,  0.0000,  0.0000)
  27 Ru     0.115870    1.645889   16.942629    ( 0.0000,  0.0000,  0.0000)
  28 Ir     2.765062    1.575515   16.920435    ( 0.0000,  0.0000,  0.0000)
  29 Ir     5.536654    1.604462   16.874460    ( 0.0000,  0.0000,  0.0000)
  30 Ir     1.383547    3.983317   17.041831    ( 0.0000,  0.0000,  0.0000)
  31 Ir     4.275983    4.007419   16.983959    ( 0.0000,  0.0000,  0.0000)
  32 Pt     7.096999    4.071393   17.021079    ( 0.0000,  0.0000,  0.0000)
  33 Ag     2.747721    6.460567   16.785175    ( 0.0000,  0.0000,  0.0000)
  34 Ir     5.667891    6.525571   16.888961    ( 0.0000,  0.0000,  0.0000)
  35 Ru     8.376627    6.507971   16.875404    ( 0.0000,  0.0000,  0.0000)
  36 Ir    -0.042024   -0.046844   18.988394    ( 0.0000,  0.0000,  0.0000)
  37 Ir     2.782780   -0.025747   19.066303    ( 0.0000,  0.0000,  0.0000)
  38 Pt     5.643939   -0.050846   19.124264    ( 0.0000,  0.0000,  0.0000)
  39 Ag     1.435948    2.366131   19.564793    ( 0.0000,  0.0000,  0.0000)
  40 Ir     4.241795    2.396199   19.038532    ( 0.0000,  0.0000,  0.0000)
  41 Pt     6.981391    2.303494   19.119622    ( 0.0000,  0.0000,  0.0000)
  42 Ir     2.942725    4.877550   19.049589    ( 0.0000,  0.0000,  0.0000)
  43 Ir     5.474871    4.916649   19.215176    ( 0.0000,  0.0000,  0.0000)
  44 Ag     8.587720    4.787849   19.486134    ( 0.0000,  0.0000,  0.0000)
  45 O      6.698741    5.833121   20.454199    ( 0.0000,  0.0000,  0.0000)

Unit cell:
           periodic     x           y           z      points  spacing
  1. axis:    yes    8.445283    0.000000    0.000000    35     0.2090
  2. axis:    yes    4.222641    7.313829    0.000000    35     0.2090
  3. axis:    no     0.000000    0.000000   29.175054   135     0.2161

  Lengths:   8.445283   8.445283  29.175054
  Angles:   90.000000  90.000000  60.000000

Effective grid spacing dv^(1/3) = 0.2217

                     log10-error:    total        iterations:
           time      wfs    density  energy       fermi  poisson
iter:   1  23:08:11  -2.33   +inf  -268.863015    3             
iter:   2  23:09:26  -1.54  -1.92  -342.369827    34            
iter:   3  23:10:40  -1.81  -1.27  -268.237606    37            
iter:   4  23:11:54  -2.81  -1.98  -265.863472    4             
iter:   5  23:12:51  -4.03  -2.34  -265.512293    3             
iter:   6  23:13:57  -4.12  -2.75  -265.547683    3             
iter:   7  23:15:11  -4.28  -2.60  -265.458607    3             
iter:   8  23:16:25  -4.72  -2.91  -265.443063    3             
iter:   9  23:17:40  -4.98  -3.02  -265.451612    3             
iter:  10  23:18:54  -4.96  -2.98  -265.439088    3             
iter:  11  23:20:25  -4.76  -3.04  -265.436569    3             
iter:  12  23:21:56  -4.89  -3.07  -265.427885    3             
iter:  13  23:23:26  -5.42  -3.46  -265.428830    2             
iter:  14  23:24:57  -5.87  -3.29  -265.427206    2             
iter:  15  23:26:28  -5.73  -3.43  -265.430518    2             
iter:  16  23:27:58  -5.97  -3.44  -265.426881    2             
iter:  17  23:29:29  -6.52  -3.59  -265.426837    2             
iter:  18  23:30:59  -6.22  -3.56  -265.427394    2             
iter:  19  23:32:30  -6.56  -3.80  -265.426968    2             
iter:  20  23:34:01  -6.28  -3.91  -265.427185    2             
iter:  21  23:35:31  -6.34  -4.04  -265.428450    2             
iter:  22  23:37:02  -6.73  -3.74  -265.427008    2             
iter:  23  23:38:33  -6.65  -4.16  -265.426718    2             
iter:  24  23:40:03  -7.15  -4.02  -265.427105    2             
iter:  25  23:41:34  -7.48  -4.28  -265.426948    2             

Converged after 25 iterations.

Dipole moment: (23.608271, 17.886189, -0.074754) |e|*Ang

Energy contributions relative to reference atoms: (reference = -16429278.754816)

Kinetic:       -145.342220
Potential:      +89.133229
External:        +0.000000
XC:            -201.818126
Entropy (-ST):   -2.066483
Local:           -6.366589
--------------------------
Free energy:   -266.460189
Extrapolated:  -265.426948

Fermi level: 1.31780

Showing only first 2 kpts
 Kpt  Band  Eigenvalues  Occupancy
  0   357      1.32359    0.12138
  0   358      1.35226    0.10368
  0   359      1.37895    0.08793
  0   360      1.41795    0.06716

  1   357      1.21056    0.18627
  1   358      1.23539    0.17378
  1   359      1.27101    0.15372
  1   360      1.29547    0.13890



Forces in eV/Ang:
  0 Ag   -0.41804    0.15646   -1.04465
  1 Ag    0.24543    0.23049   -0.85176
  2 Ir    0.49972   -0.17045    0.02289
  3 Ir   -0.10817    1.23656    1.36392
  4 Ir    0.39948    0.39605    0.88023
  5 Ir   -0.32211   -0.02236    1.20869
  6 Ir   -1.71168   -0.50011    0.74233
  7 Ag   -0.12167   -0.34376   -0.95317
  8 Pt    1.05561   -0.39190    0.49528
  9 Ag    0.16284    0.01510    0.25692
 10 Ir   -0.04256   -0.39434    0.99992
 11 Ir   -0.65030   -0.77295   -0.47971
 12 Ir    0.39976    0.13153    0.26637
 13 Ag   -0.04924   -0.00919    0.21439
 14 Ag    0.07890    0.09406    0.17269
 15 Pt   -0.12569   -0.05653   -0.49866
 16 Ru    0.62939    0.48303   -1.37382
 17 Ir    0.12244    0.26367   -1.24302
 18 Ir   -0.04059   -0.01434   -0.00593
 19 Pt    0.02108   -0.01118   -0.04925
 20 Pt    0.02802   -0.00589    0.02930
 21 Ag    0.02661    0.04942   -0.07955
 22 Ag    0.05410    0.00297   -0.06580
 23 Ag   -0.04487    0.00570    0.02123
 24 Pt   -0.01376    0.00025    0.00378
 25 Ag   -0.00847   -0.03966    0.04425
 26 Ir    0.04326   -0.03705   -0.03340
 27 Ru   -0.02631   -0.02659    0.04419
 28 Ir    0.03415    0.15008   -0.09591
 29 Ir    0.06492   -0.06370    0.08731
 30 Ir    0.01573   -0.06376   -0.02339
 31 Ir   -0.13524    0.00401    0.15536
 32 Pt    0.17079    0.04476    0.05098
 33 Ag   -0.02754   -0.04895    0.07140
 34 Ir   -0.11226   -0.03630   -0.22950
 35 Ru    0.06265   -0.01264    0.02177
 36 Ir   -0.06696    0.07671   -0.03297
 37 Ir    0.04206   -0.13373    0.06611
 38 Pt    0.05262    0.08207   -0.03315
 39 Ag    0.01455   -0.02663    0.08294
 40 Ir    0.02159    0.05382   -0.12625
 41 Pt    0.01079   -0.11309   -0.00006
 42 Ir   -0.16523   -0.09690   -0.21156
 43 Ir   -0.03813   -0.16423   -0.08860
 44 Ag   -0.11975    0.06526    0.07499
 45 O     0.28407    0.06899    0.34269

System changes: positions 

Initializing position-dependent things.

Density initialized from wave functions
                                            
                                            
                                            
                                            
                           O                
                                            
                 Ir    Ir      Ag           
            Ag                              
                  AIr    IPt   Ru           
       Ir    IIr    IPt    Pt               
                                            
        Ru     Ir    PIr    Ag     Ir       
                                            
                Ag     Ag     Ag            
           Ir     Pt     Pt                 
                 Pt     Ru     Ir           
            Ir     Ag     Ag                
       Ag     Ir  Ir Ir  Ag     Pt          
             Ir     Ir     Ir               
        Ag     Ag     Ir                    
                                            
                                            
                                            
                                            
                                            

Positions:
   0 Ag     0.000000    1.621936   10.000000    ( 0.0000,  0.0000,  0.0000)
   1 Ag     2.809275    1.621936   10.000000    ( 0.0000,  0.0000,  0.0000)
   2 Ir     5.618550    1.621936   10.000000    ( 0.0000,  0.0000,  0.0000)
   3 Ir     1.404638    4.054840   10.000000    ( 0.0000,  0.0000,  0.0000)
   4 Ir     4.213913    4.054840   10.000000    ( 0.0000,  0.0000,  0.0000)
   5 Ir     7.023188    4.054840   10.000000    ( 0.0000,  0.0000,  0.0000)
   6 Ir     2.809275    6.487743   10.000000    ( 0.0000,  0.0000,  0.0000)
   7 Ag     5.618550    6.487743   10.000000    ( 0.0000,  0.0000,  0.0000)
   8 Pt     8.427826    6.487743   10.000000    ( 0.0000,  0.0000,  0.0000)
   9 Ag     0.000000    0.000000   12.293764    ( 0.0000,  0.0000,  0.0000)
  10 Ir     2.809275    0.000000   12.293764    ( 0.0000,  0.0000,  0.0000)
  11 Ir     5.618550    0.000000   12.293764    ( 0.0000,  0.0000,  0.0000)
  12 Ir     1.404638    2.432904   12.293764    ( 0.0000,  0.0000,  0.0000)
  13 Ag     4.213913    2.432904   12.293764    ( 0.0000,  0.0000,  0.0000)
  14 Ag     7.023188    2.432904   12.293764    ( 0.0000,  0.0000,  0.0000)
  15 Pt     2.809275    4.865807   12.293764    ( 0.0000,  0.0000,  0.0000)
  16 Ru     5.618550    4.865807   12.293764    ( 0.0000,  0.0000,  0.0000)
  17 Ir     8.427826    4.865807   12.293764    ( 0.0000,  0.0000,  0.0000)
  18 Ir     1.444168    0.790896   14.626619    ( 0.0000,  0.0000,  0.0000)
  19 Pt     4.186576    0.736435   14.610291    ( 0.0000,  0.0000,  0.0000)
  20 Pt     7.039563    0.805510   14.641659    ( 0.0000,  0.0000,  0.0000)
  21 Ag     2.790378    3.271597   14.639015    ( 0.0000,  0.0000,  0.0000)
  22 Ag     5.617114    3.231478   14.626351    ( 0.0000,  0.0000,  0.0000)
  23 Ag     8.466813    3.241230   14.626410    ( 0.0000,  0.0000,  0.0000)
  24 Pt     4.243031    5.670820   14.610246    ( 0.0000,  0.0000,  0.0000)
  25 Ag     7.021510    5.619066   14.591942    ( 0.0000,  0.0000,  0.0000)
  26 Ir     9.807703    5.744922   14.534072    ( 0.0000,  0.0000,  0.0000)
  27 Ru     0.113618    1.644153   16.946500    ( 0.0000,  0.0000,  0.0000)
  28 Ir     2.766400    1.590681   16.907834    ( 0.0000,  0.0000,  0.0000)
  29 Ir     5.543106    1.598499   16.880691    ( 0.0000,  0.0000,  0.0000)
  30 Ir     1.384955    3.977268   17.035881    ( 0.0000,  0.0000,  0.0000)
  31 Ir     4.264325    4.005709   16.991101    ( 0.0000,  0.0000,  0.0000)
  32 Pt     7.112067    4.075811   17.026616    ( 0.0000,  0.0000,  0.0000)
  33 Ag     2.744584    6.456862   16.791487    ( 0.0000,  0.0000,  0.0000)
  34 Ir     5.659512    6.522665   16.870974    ( 0.0000,  0.0000,  0.0000)
  35 Ru     8.381462    6.506478   16.878531    ( 0.0000,  0.0000,  0.0000)
  36 Ir    -0.044923   -0.040340   18.985999    ( 0.0000,  0.0000,  0.0000)
  37 Ir     2.784314   -0.045158   19.071031    ( 0.0000,  0.0000,  0.0000)
  38 Pt     5.647224   -0.045889   19.121661    ( 0.0000,  0.0000,  0.0000)
  39 Ag     1.437361    2.362998   19.572156    ( 0.0000,  0.0000,  0.0000)
  40 Ir     4.243676    2.399875   19.030580    ( 0.0000,  0.0000,  0.0000)
  41 Pt     6.983077    2.295809   19.120049    ( 0.0000,  0.0000,  0.0000)
  42 Ir     2.920356    4.870948   19.034846    ( 0.0000,  0.0000,  0.0000)
  43 Ir     5.485648    4.910038   19.209391    ( 0.0000,  0.0000,  0.0000)
  44 Ag     8.568970    4.799976   19.495310    ( 0.0000,  0.0000,  0.0000)
  45 O      6.724111    5.834844   20.476822    ( 0.0000,  0.0000,  0.0000)

Unit cell:
           periodic     x           y           z      points  spacing
  1. axis:    yes    8.445283    0.000000    0.000000    35     0.2090
  2. axis:    yes    4.222641    7.313829    0.000000    35     0.2090
  3. axis:    no     0.000000    0.000000   29.175054   135     0.2161

  Lengths:   8.445283   8.445283  29.175054
  Angles:   90.000000  90.000000  60.000000

Effective grid spacing dv^(1/3) = 0.2217

                     log10-error:    total        iterations:
           time      wfs    density  energy       fermi  poisson
iter:   1  23:43:44  -2.65   +inf  -266.206293    3             
iter:   2  23:45:15  -2.35  -2.23  -282.977257    2             
iter:   3  23:46:45  -2.53  -1.56  -265.723389    3             
iter:   4  23:48:00  -3.78  -2.39  -265.563722    3             
iter:   5  23:49:14  -4.36  -2.65  -265.463175    3             
iter:   6  23:50:29  -5.09  -3.14  -265.459082    2             
iter:   7  23:51:44  -5.01  -3.22  -265.454523    2             
iter:   8  23:52:59  -4.63  -3.32  -265.454515    2             
iter:   9  23:54:14  -5.31  -3.38  -265.456623    2             
iter:  10  23:55:28  -5.35  -3.12  -265.451603    2             
iter:  11  23:56:42  -6.12  -3.64  -265.451556    2             
iter:  12  23:57:57  -6.15  -3.66  -265.450842    2             
iter:  13  23:59:11  -6.00  -3.80  -265.450658    2             
iter:  14  00:00:26  -6.43  -3.92  -265.450656    2             
iter:  15  00:01:41  -6.65  -4.04  -265.450041    2             
iter:  16  00:02:55  -7.02  -3.83  -265.450625    2             
iter:  17  00:04:10  -6.95  -4.10  -265.450408    2             
iter:  18  00:05:24  -7.03  -4.26  -265.450122    2             
iter:  19  00:06:39  -7.24  -4.23  -265.450200    2             
iter:  20  00:07:54  -7.52  -4.35  -265.450297    2             

Converged after 20 iterations.

Dipole moment: (24.716160, 18.129434, -0.083803) |e|*Ang

Energy contributions relative to reference atoms: (reference = -16429278.754816)

Kinetic:       -148.296818
Potential:      +91.731219
External:        +0.000000
XC:            -201.479916
Entropy (-ST):   -2.065164
Local:           -6.372200
--------------------------
Free energy:   -266.482879
Extrapolated:  -265.450297

Fermi level: 1.31300

Showing only first 2 kpts
 Kpt  Band  Eigenvalues  Occupancy
  0   357      1.32474    0.11767
  0   358      1.34704    0.10393
  0   359      1.37651    0.08659
  0   360      1.41236    0.06755

  1   357      1.20983    0.18431
  1   358      1.23149    0.17330
  1   359      1.26697    0.15327
  1   360      1.29028    0.13914



Forces in eV/Ang:
  0 Ag   -0.41997    0.15666   -1.04464
  1 Ag    0.24677    0.23062   -0.85142
  2 Ir    0.50142   -0.17195    0.01886
  3 Ir   -0.10911    1.24171    1.35473
  4 Ir    0.39748    0.39639    0.87883
  5 Ir   -0.32191   -0.02012    1.21027
  6 Ir   -1.71284   -0.50247    0.73900
  7 Ag   -0.12212   -0.34524   -0.95484
  8 Pt    1.05734   -0.39306    0.49466
  9 Ag    0.15917    0.01501    0.25379
 10 Ir   -0.04892   -0.39562    1.01241
 11 Ir   -0.64151   -0.77507   -0.47724
 12 Ir    0.39644    0.14165    0.27044
 13 Ag   -0.05120   -0.01144    0.19796
 14 Ag    0.08868    0.08677    0.16494
 15 Pt   -0.12177   -0.05534   -0.52415
 16 Ru    0.63430    0.49071   -1.38048
 17 Ir    0.11925    0.25965   -1.23180
 18 Ir   -0.00960    0.00754   -0.04058
 19 Pt    0.02034   -0.02747    0.01743
 20 Pt    0.01102   -0.02421    0.02922
 21 Ag    0.00821    0.01399   -0.09980
 22 Ag    0.01140   -0.02354    0.05572
 23 Ag    0.00045   -0.01731   -0.01266
 24 Pt   -0.01985    0.01151   -0.00687
 25 Ag    0.03415   -0.00118   -0.00168
 26 Ir    0.00751   -0.00511   -0.01918
 27 Ru   -0.00092   -0.04509   -0.00458
 28 Ir    0.04126   -0.08078    0.07415
 29 Ir    0.00652    0.02504   -0.03006
 30 Ir   -0.02463   -0.03824    0.03955
 31 Ir    0.06204    0.01244   -0.05310
 32 Pt    0.02773   -0.00762    0.02768
 33 Ag   -0.00343   -0.01958   -0.05475
 34 Ir   -0.02851    0.02720    0.03005
 35 Ru   -0.02056    0.06337    0.00473
 36 Ir    0.02417   -0.12141   -0.03476
 37 Ir   -0.04003    0.01139   -0.11061
 38 Pt   -0.03039    0.02017    0.02630
 39 Ag    0.02396   -0.00703    0.04863
 40 Ir   -0.01072   -0.02346   -0.00156
 41 Pt    0.01974   -0.00820    0.01625
 42 Ir    0.16076   -0.02720    0.00285
 43 Ir   -0.18861    0.05786    0.06742
 44 Ag    0.02526   -0.05764    0.04564
 45 O    -0.12132   -0.02810    0.03293

System changes: positions 

Initializing position-dependent things.

Density initialized from wave functions
                                            
                                            
                                            
                                            
                           O                
                                            
                 Ir    Ir      Ag           
            Ag                              
                  AIr    IPt   Ru           
       Ir    IIr    IPt    Pt               
                                            
        Ru     Ir    PIr    Ag     Ir       
                                            
                Ag     Ag     Ag            
           Ir     Pt     Pt                 
                 Pt     Ru     Ir           
            Ir     Ag     Ag                
       Ag     Ir  Ir Ir  Ag     Pt          
             Ir     Ir     Ir               
        Ag     Ag     Ir                    
                                            
                                            
                                            
                                            
                                            

Positions:
   0 Ag     0.000000    1.621936   10.000000    ( 0.0000,  0.0000,  0.0000)
   1 Ag     2.809275    1.621936   10.000000    ( 0.0000,  0.0000,  0.0000)
   2 Ir     5.618550    1.621936   10.000000    ( 0.0000,  0.0000,  0.0000)
   3 Ir     1.404638    4.054840   10.000000    ( 0.0000,  0.0000,  0.0000)
   4 Ir     4.213913    4.054840   10.000000    ( 0.0000,  0.0000,  0.0000)
   5 Ir     7.023188    4.054840   10.000000    ( 0.0000,  0.0000,  0.0000)
   6 Ir     2.809275    6.487743   10.000000    ( 0.0000,  0.0000,  0.0000)
   7 Ag     5.618550    6.487743   10.000000    ( 0.0000,  0.0000,  0.0000)
   8 Pt     8.427826    6.487743   10.000000    ( 0.0000,  0.0000,  0.0000)
   9 Ag     0.000000    0.000000   12.293764    ( 0.0000,  0.0000,  0.0000)
  10 Ir     2.809275    0.000000   12.293764    ( 0.0000,  0.0000,  0.0000)
  11 Ir     5.618550    0.000000   12.293764    ( 0.0000,  0.0000,  0.0000)
  12 Ir     1.404638    2.432904   12.293764    ( 0.0000,  0.0000,  0.0000)
  13 Ag     4.213913    2.432904   12.293764    ( 0.0000,  0.0000,  0.0000)
  14 Ag     7.023188    2.432904   12.293764    ( 0.0000,  0.0000,  0.0000)
  15 Pt     2.809275    4.865807   12.293764    ( 0.0000,  0.0000,  0.0000)
  16 Ru     5.618550    4.865807   12.293764    ( 0.0000,  0.0000,  0.0000)
  17 Ir     8.427826    4.865807   12.293764    ( 0.0000,  0.0000,  0.0000)
  18 Ir     1.442719    0.791281   14.623493    ( 0.0000,  0.0000,  0.0000)
  19 Pt     4.188516    0.734178   14.610828    ( 0.0000,  0.0000,  0.0000)
  20 Pt     7.040935    0.803529   14.644542    ( 0.0000,  0.0000,  0.0000)
  21 Ag     2.791507    3.273593   14.630101    ( 0.0000,  0.0000,  0.0000)
  22 Ag     5.618876    3.229692   14.629720    ( 0.0000,  0.0000,  0.0000)
  23 Ag     8.466132    3.239962   14.625854    ( 0.0000,  0.0000,  0.0000)
  24 Pt     4.241251    5.671679   14.609803    ( 0.0000,  0.0000,  0.0000)
  25 Ag     7.024067    5.618252   14.592537    ( 0.0000,  0.0000,  0.0000)
  26 Ir     9.809031    5.743865   14.532031    ( 0.0000,  0.0000,  0.0000)
  27 Ru     0.113227    1.640024   16.947044    ( 0.0000,  0.0000,  0.0000)
  28 Ir     2.770135    1.586437   16.912345    ( 0.0000,  0.0000,  0.0000)
  29 Ir     5.544833    1.599309   16.879565    ( 0.0000,  0.0000,  0.0000)
  30 Ir     1.383370    3.972982   17.038842    ( 0.0000,  0.0000,  0.0000)
  31 Ir     4.267493    4.006935   16.988705    ( 0.0000,  0.0000,  0.0000)
  32 Pt     7.117051    4.076056   17.029790    ( 0.0000,  0.0000,  0.0000)
  33 Ag     2.743653    6.454451   16.788215    ( 0.0000,  0.0000,  0.0000)
  34 Ir     5.655488    6.524026   16.869782    ( 0.0000,  0.0000,  0.0000)
  35 Ru     8.380774    6.511429   16.879386    ( 0.0000,  0.0000,  0.0000)
  36 Ir    -0.044443   -0.048424   18.982554    ( 0.0000,  0.0000,  0.0000)
  37 Ir     2.781580   -0.048762   19.065772    ( 0.0000,  0.0000,  0.0000)
  38 Pt     5.645894   -0.043014   19.123061    ( 0.0000,  0.0000,  0.0000)
  39 Ag     1.439645    2.361608   19.577500    ( 0.0000,  0.0000,  0.0000)
  40 Ir     4.243188    2.398648   19.028821    ( 0.0000,  0.0000,  0.0000)
  41 Pt     6.985001    2.293134   19.121217    ( 0.0000,  0.0000,  0.0000)
  42 Ir     2.929139    4.867337   19.031831    ( 0.0000,  0.0000,  0.0000)
  43 Ir     5.472937    4.913213   19.216919    ( 0.0000,  0.0000,  0.0000)
  44 Ag     8.569629    4.796368   19.500070    ( 0.0000,  0.0000,  0.0000)
  45 O      6.716062    5.834889   20.478031    ( 0.0000,  0.0000,  0.0000)

Unit cell:
           periodic     x           y           z      points  spacing
  1. axis:    yes    8.445283    0.000000    0.000000    35     0.2090
  2. axis:    yes    4.222641    7.313829    0.000000    35     0.2090
  3. axis:    no     0.000000    0.000000   29.175054   135     0.2161

  Lengths:   8.445283   8.445283  29.175054
  Angles:   90.000000  90.000000  60.000000

Effective grid spacing dv^(1/3) = 0.2217

                     log10-error:    total        iterations:
           time      wfs    density  energy       fermi  poisson
iter:   1  00:09:44  -3.41   +inf  -265.499937    2             
iter:   2  00:10:58  -4.28  -2.96  -265.495215    3             
iter:   3  00:12:13  -4.23  -2.82  -265.657027    3             
iter:   4  00:13:28  -4.63  -2.50  -265.462013    2             
iter:   5  00:14:44  -5.24  -3.42  -265.460302    3             
iter:   6  00:15:59  -5.67  -3.44  -265.458513    3             
iter:   7  00:17:14  -5.80  -3.61  -265.458040    2             
iter:   8  00:18:29  -5.78  -3.77  -265.457582    2             
iter:   9  00:19:45  -5.92  -3.84  -265.459530    2             
iter:  10  00:20:59  -6.68  -3.68  -265.457641    2             
iter:  11  00:22:14  -6.97  -4.00  -265.457863    2             
iter:  12  00:23:28  -7.14  -4.11  -265.457927    2             
iter:  13  00:24:43  -7.17  -4.16  -265.458064    2             
iter:  14  00:26:01  -7.20  -4.21  -265.457901    2             
iter:  15  00:27:16  -7.47  -4.34  -265.458152    2             

Converged after 15 iterations.

Dipole moment: (24.126308, 18.539805, -0.083776) |e|*Ang

Energy contributions relative to reference atoms: (reference = -16429278.754816)

Kinetic:       -146.932727
Potential:      +90.497602
External:        +0.000000
XC:            -201.627029
Entropy (-ST):   -2.062153
Local:           -6.364920
--------------------------
Free energy:   -266.489228
Extrapolated:  -265.458152

Fermi level: 1.31399

Showing only first 2 kpts
 Kpt  Band  Eigenvalues  Occupancy
  0   357      1.32594    0.11754
  0   358      1.34785    0.10404
  0   359      1.37709    0.08682
  0   360      1.41275    0.06785

  1   357      1.21068    0.18438
  1   358      1.23284    0.17311
  1   359      1.26851    0.15294
  1   360      1.29164    0.13891



Forces in eV/Ang:
  0 Ag   -0.41924    0.15662   -1.04379
  1 Ag    0.24627    0.23020   -0.85036
  2 Ir    0.50102   -0.17265    0.02201
  3 Ir   -0.10961    1.24440    1.35969
  4 Ir    0.39641    0.39642    0.88427
  5 Ir   -0.32032   -0.02069    1.21196
  6 Ir   -1.71261   -0.50303    0.74131
  7 Ag   -0.12145   -0.34426   -0.95258
  8 Pt    1.05713   -0.39433    0.49694
  9 Ag    0.15505    0.01568    0.24618
 10 Ir   -0.04309   -0.40085    1.01105
 11 Ir   -0.63987   -0.77054   -0.47850
 12 Ir    0.39070    0.13534    0.25493
 13 Ag   -0.03817   -0.01835    0.19587
 14 Ag    0.08375    0.08223    0.17364
 15 Pt   -0.11828   -0.04032   -0.55457
 16 Ru    0.63753    0.48823   -1.37196
 17 Ir    0.11416    0.25962   -1.24228
 18 Ir    0.03502    0.00553    0.00111
 19 Pt   -0.01017    0.00381    0.00633
 20 Pt   -0.00211    0.00160   -0.01499
 21 Ag   -0.00299   -0.03404    0.01900
 22 Ag    0.00730   -0.00011    0.01797
 23 Ag    0.01829   -0.00969    0.01077
 24 Pt    0.03188   -0.01051   -0.01680
 25 Ag   -0.00253    0.00455    0.01152
 26 Ir   -0.00477   -0.01418   -0.00684
 27 Ru    0.01486   -0.00410   -0.00201
 28 Ir   -0.02385    0.00465   -0.04402
 29 Ir    0.02572    0.00907    0.00101
 30 Ir    0.04132   -0.02970    0.01191
 31 Ir    0.04976   -0.02519   -0.05234
 32 Pt   -0.02323    0.02070    0.04435
 33 Ag   -0.05582   -0.03559   -0.00038
 34 Ir    0.02661   -0.01799   -0.03807
 35 Ru   -0.00403   -0.00868    0.00249
 36 Ir   -0.03848    0.03005    0.00697
 37 Ir   -0.02513   -0.03144   -0.01661
 38 Pt   -0.01299   -0.03460   -0.00121
 39 Ag    0.00544   -0.02601    0.03523
 40 Ir    0.03900   -0.00736    0.01240
 41 Pt    0.01242    0.00490    0.00289
 42 Ir   -0.13009   -0.02319    0.00523
 43 Ir    0.06200   -0.04387   -0.01746
 44 Ag    0.02486   -0.02262    0.03217
 45 O     0.00487    0.00406    0.05917

System changes: positions 

Initializing position-dependent things.

Density initialized from wave functions
                                            
                                            
                                            
                                            
                           O                
                                            
                 Ir    Ir      Ag           
            Ag                              
                  AIr    IPt   Ru           
       Ir    IIr    IPt    Pt               
                                            
        Ru     Ir    PIr    Ag     Ir       
                                            
                Ag     Ag     Ag            
           Ir     Pt     Pt                 
                 Pt     Ru     Ir           
            Ir     Ag     Ag                
       Ag     Ir  Ir Ir  Ag     Pt          
             Ir     Ir     Ir               
        Ag     Ag     Ir                    
                                            
                                            
                                            
                                            
                                            

Positions:
   0 Ag     0.000000    1.621936   10.000000    ( 0.0000,  0.0000,  0.0000)
   1 Ag     2.809275    1.621936   10.000000    ( 0.0000,  0.0000,  0.0000)
   2 Ir     5.618550    1.621936   10.000000    ( 0.0000,  0.0000,  0.0000)
   3 Ir     1.404638    4.054840   10.000000    ( 0.0000,  0.0000,  0.0000)
   4 Ir     4.213913    4.054840   10.000000    ( 0.0000,  0.0000,  0.0000)
   5 Ir     7.023188    4.054840   10.000000    ( 0.0000,  0.0000,  0.0000)
   6 Ir     2.809275    6.487743   10.000000    ( 0.0000,  0.0000,  0.0000)
   7 Ag     5.618550    6.487743   10.000000    ( 0.0000,  0.0000,  0.0000)
   8 Pt     8.427826    6.487743   10.000000    ( 0.0000,  0.0000,  0.0000)
   9 Ag     0.000000    0.000000   12.293764    ( 0.0000,  0.0000,  0.0000)
  10 Ir     2.809275    0.000000   12.293764    ( 0.0000,  0.0000,  0.0000)
  11 Ir     5.618550    0.000000   12.293764    ( 0.0000,  0.0000,  0.0000)
  12 Ir     1.404638    2.432904   12.293764    ( 0.0000,  0.0000,  0.0000)
  13 Ag     4.213913    2.432904   12.293764    ( 0.0000,  0.0000,  0.0000)
  14 Ag     7.023188    2.432904   12.293764    ( 0.0000,  0.0000,  0.0000)
  15 Pt     2.809275    4.865807   12.293764    ( 0.0000,  0.0000,  0.0000)
  16 Ru     5.618550    4.865807   12.293764    ( 0.0000,  0.0000,  0.0000)
  17 Ir     8.427826    4.865807   12.293764    ( 0.0000,  0.0000,  0.0000)
  18 Ir     1.445195    0.791917   14.622391    ( 0.0000,  0.0000,  0.0000)
  19 Pt     4.188491    0.733369   14.611578    ( 0.0000,  0.0000,  0.0000)
  20 Pt     7.041401    0.802759   14.644593    ( 0.0000,  0.0000,  0.0000)
  21 Ag     2.791831    3.271516   14.627981    ( 0.0000,  0.0000,  0.0000)
  22 Ag     5.620322    3.228859   14.632780    ( 0.0000,  0.0000,  0.0000)
  23 Ag     8.467409    3.238550   14.626773    ( 0.0000,  0.0000,  0.0000)
  24 Pt     4.243246    5.671081   14.608150    ( 0.0000,  0.0000,  0.0000)
  25 Ag     7.025096    5.618265   14.593818    ( 0.0000,  0.0000,  0.0000)
  26 Ir     9.809141    5.742209   14.530441    ( 0.0000,  0.0000,  0.0000)
  27 Ru     0.114563    1.637739   16.947255    ( 0.0000,  0.0000,  0.0000)
  28 Ir     2.769885    1.585016   16.910053    ( 0.0000,  0.0000,  0.0000)
  29 Ir     5.547835    1.600520   16.878871    ( 0.0000,  0.0000,  0.0000)
  30 Ir     1.386454    3.968006   17.040608    ( 0.0000,  0.0000,  0.0000)
  31 Ir     4.273821    4.005121   16.982759    ( 0.0000,  0.0000,  0.0000)
  32 Pt     7.117337    4.078244   17.035660    ( 0.0000,  0.0000,  0.0000)
  33 Ag     2.738175    6.450114   16.786572    ( 0.0000,  0.0000,  0.0000)
  34 Ir     5.656015    6.522812   16.866214    ( 0.0000,  0.0000,  0.0000)
  35 Ru     8.379804    6.513175   16.880324    ( 0.0000,  0.0000,  0.0000)
  36 Ir    -0.047456   -0.049794   18.981561    ( 0.0000,  0.0000,  0.0000)
  37 Ir     2.777953   -0.053111   19.060593    ( 0.0000,  0.0000,  0.0000)
  38 Pt     5.643972   -0.044936   19.123672    ( 0.0000,  0.0000,  0.0000)
  39 Ag     1.441471    2.358040   19.583360    ( 0.0000,  0.0000,  0.0000)
  40 Ir     4.246539    2.397384   19.029448    ( 0.0000,  0.0000,  0.0000)
  41 Pt     6.987251    2.292619   19.122116    ( 0.0000,  0.0000,  0.0000)
  42 Ir     2.921487    4.863643   19.031258    ( 0.0000,  0.0000,  0.0000)
  43 Ir     5.472095    4.910878   19.218654    ( 0.0000,  0.0000,  0.0000)
  44 Ag     8.571947    4.793096   19.505273    ( 0.0000,  0.0000,  0.0000)
  45 O      6.712131    5.835085   20.483523    ( 0.0000,  0.0000,  0.0000)

Unit cell:
           periodic     x           y           z      points  spacing
  1. axis:    yes    8.445283    0.000000    0.000000    35     0.2090
  2. axis:    yes    4.222641    7.313829    0.000000    35     0.2090
  3. axis:    no     0.000000    0.000000   29.175054   135     0.2161

  Lengths:   8.445283   8.445283  29.175054
  Angles:   90.000000  90.000000  60.000000

Effective grid spacing dv^(1/3) = 0.2217

                     log10-error:    total        iterations:
           time      wfs    density  energy       fermi  poisson
iter:   1  00:29:05  -3.42   +inf  -266.338487    3             
iter:   2  00:30:19  -2.02  -2.15  -300.374566    4             
iter:   3  00:31:34  -2.35  -1.44  -265.780333    36            
iter:   4  00:32:50  -3.55  -2.44  -265.483933    3             
iter:   5  00:34:04  -4.63  -3.03  -265.464492    3             
iter:   6  00:35:19  -5.46  -3.46  -265.462916    2             
iter:   7  00:36:34  -5.74  -3.56  -265.462056    2             
iter:   8  00:37:49  -5.60  -3.67  -265.460406    2             
iter:   9  00:39:04  -6.03  -3.87  -265.460644    2             
iter:  10  00:40:19  -6.28  -4.02  -265.460438    2             
iter:  11  00:41:33  -6.79  -4.13  -265.460209    2             
iter:  12  00:42:48  -6.77  -4.04  -265.460685    2             
iter:  13  00:44:04  -7.11  -4.11  -265.460470    2             
iter:  14  00:45:18  -7.36  -4.28  -265.460150    2             
iter:  15  00:46:33  -7.52  -4.40  -265.460358    2             

Converged after 15 iterations.

Dipole moment: (24.686908, 18.811158, -0.087645) |e|*Ang

Energy contributions relative to reference atoms: (reference = -16429278.754816)

Kinetic:       -147.732389
Potential:      +91.177168
External:        +0.000000
XC:            -201.496685
Entropy (-ST):   -2.062631
Local:           -6.377137
--------------------------
Free energy:   -266.491674
Extrapolated:  -265.460358

Fermi level: 1.31134

Showing only first 2 kpts
 Kpt  Band  Eigenvalues  Occupancy
  0   357      1.32364    0.11732
  0   358      1.34445    0.10449
  0   359      1.37362    0.08728
  0   360      1.41014    0.06782

  1   357      1.20755    0.18461
  1   358      1.22953    0.17345
  1   359      1.26550    0.15316
  1   360      1.29021    0.13815



Forces in eV/Ang:
  0 Ag   -0.41839    0.15730   -1.04561
  1 Ag    0.24557    0.23073   -0.85247
  2 Ir    0.50129   -0.17447    0.01917
  3 Ir   -0.11045    1.23984    1.35191
  4 Ir    0.39440    0.39801    0.88107
  5 Ir   -0.31937   -0.02058    1.20538
  6 Ir   -1.70940   -0.50165    0.73678
  7 Ag   -0.12163   -0.34484   -0.95346
  8 Pt    1.05478   -0.39394    0.49366
  9 Ag    0.15474    0.01592    0.24308
 10 Ir   -0.03754   -0.40472    1.01020
 11 Ir   -0.64077   -0.77048   -0.47500
 12 Ir    0.39006    0.13651    0.25221
 13 Ag   -0.03227   -0.01707    0.20031
 14 Ag    0.08113    0.08607    0.18040
 15 Pt   -0.11596   -0.04461   -0.55419
 16 Ru    0.64198    0.48190   -1.36333
 17 Ir    0.10883    0.25654   -1.23421
 18 Ir   -0.00636   -0.01400   -0.01949
 19 Pt    0.02603   -0.00214   -0.00726
 20 Pt    0.00825   -0.00608   -0.00507
 21 Ag    0.01025    0.00108    0.00988
 22 Ag    0.02116    0.00090   -0.02834
 23 Ag   -0.00257    0.00496    0.01413
 24 Pt    0.00214   -0.00674   -0.00786
 25 Ag    0.00978   -0.01947   -0.00811
 26 Ir   -0.00373   -0.00980   -0.02039
 27 Ru   -0.01557   -0.00954    0.00265
 28 Ir    0.02611    0.00703    0.02430
 29 Ir    0.00478   -0.03241    0.01542
 30 Ir   -0.00932   -0.03661    0.00639
 31 Ir   -0.03396    0.01083    0.10187
 32 Pt    0.05041   -0.00018    0.00259
 33 Ag    0.01588   -0.02394    0.01020
 34 Ir   -0.03650   -0.00811    0.00256
 35 Ru   -0.00246   -0.00381    0.00444
 36 Ir   -0.00452   -0.04180   -0.01148
 37 Ir   -0.02764   -0.04533    0.04579
 38 Pt   -0.02320    0.00607    0.00339
 39 Ag    0.01229   -0.03460    0.03046
 40 Ir   -0.00462    0.02999   -0.03269
 41 Pt    0.01048   -0.02296    0.01540
 42 Ir    0.08448   -0.03777   -0.03560
 43 Ir   -0.04411    0.01898    0.00043
 44 Ag   -0.01572   -0.00879    0.04658
 45 O     0.01326    0.00634   -0.02863

System changes: positions 

Initializing position-dependent things.

Density initialized from wave functions
                                            
                                            
                                            
                                            
                           O                
                                            
                 Ir    Ir      Ag           
            Ag                              
                  AIr    IPt   Ru           
       Ir    IIr    IPt    Pt               
                                            
        Ru     Ir    PIr    Ag     Ir       
                                            
                Ag     Ag     Ag            
           Ir     Pt     Pt                 
                 Pt     Ru     Ir           
            Ir     Ag     Ag                
       Ag     Ir  Ir Ir  Ag     Pt          
             Ir     Ir     Ir               
        Ag     Ag     Ir                    
                                            
                                            
                                            
                                            
                                            

Positions:
   0 Ag     0.000000    1.621936   10.000000    ( 0.0000,  0.0000,  0.0000)
   1 Ag     2.809275    1.621936   10.000000    ( 0.0000,  0.0000,  0.0000)
   2 Ir     5.618550    1.621936   10.000000    ( 0.0000,  0.0000,  0.0000)
   3 Ir     1.404638    4.054840   10.000000    ( 0.0000,  0.0000,  0.0000)
   4 Ir     4.213913    4.054840   10.000000    ( 0.0000,  0.0000,  0.0000)
   5 Ir     7.023188    4.054840   10.000000    ( 0.0000,  0.0000,  0.0000)
   6 Ir     2.809275    6.487743   10.000000    ( 0.0000,  0.0000,  0.0000)
   7 Ag     5.618550    6.487743   10.000000    ( 0.0000,  0.0000,  0.0000)
   8 Pt     8.427826    6.487743   10.000000    ( 0.0000,  0.0000,  0.0000)
   9 Ag     0.000000    0.000000   12.293764    ( 0.0000,  0.0000,  0.0000)
  10 Ir     2.809275    0.000000   12.293764    ( 0.0000,  0.0000,  0.0000)
  11 Ir     5.618550    0.000000   12.293764    ( 0.0000,  0.0000,  0.0000)
  12 Ir     1.404638    2.432904   12.293764    ( 0.0000,  0.0000,  0.0000)
  13 Ag     4.213913    2.432904   12.293764    ( 0.0000,  0.0000,  0.0000)
  14 Ag     7.023188    2.432904   12.293764    ( 0.0000,  0.0000,  0.0000)
  15 Pt     2.809275    4.865807   12.293764    ( 0.0000,  0.0000,  0.0000)
  16 Ru     5.618550    4.865807   12.293764    ( 0.0000,  0.0000,  0.0000)
  17 Ir     8.427826    4.865807   12.293764    ( 0.0000,  0.0000,  0.0000)
  18 Ir     1.447014    0.791228   14.620061    ( 0.0000,  0.0000,  0.0000)
  19 Pt     4.190638    0.732495   14.611452    ( 0.0000,  0.0000,  0.0000)
  20 Pt     7.042586    0.801610   14.644157    ( 0.0000,  0.0000,  0.0000)
  21 Ag     2.793082    3.269668   14.627436    ( 0.0000,  0.0000,  0.0000)
  22 Ag     5.623584    3.228268   14.632793    ( 0.0000,  0.0000,  0.0000)
  23 Ag     8.468317    3.237750   14.629155    ( 0.0000,  0.0000,  0.0000)
  24 Pt     4.245427    5.669816   14.605977    ( 0.0000,  0.0000,  0.0000)
  25 Ag     7.026789    5.616491   14.594424    ( 0.0000,  0.0000,  0.0000)
  26 Ir     9.808913    5.739766   14.527161    ( 0.0000,  0.0000,  0.0000)
  27 Ru     0.114622    1.634855   16.947929    ( 0.0000,  0.0000,  0.0000)
  28 Ir     2.771894    1.584889   16.909279    ( 0.0000,  0.0000,  0.0000)
  29 Ir     5.551154    1.598630   16.879678    ( 0.0000,  0.0000,  0.0000)
  30 Ir     1.388898    3.959849   17.042334    ( 0.0000,  0.0000,  0.0000)
  31 Ir     4.276818    4.004278   16.986401    ( 0.0000,  0.0000,  0.0000)
  32 Pt     7.122150    4.080624   17.041790    ( 0.0000,  0.0000,  0.0000)
  33 Ag     2.734179    6.443806   16.786198    ( 0.0000,  0.0000,  0.0000)
  34 Ir     5.653294    6.520494   16.862694    ( 0.0000,  0.0000,  0.0000)
  35 Ru     8.378665    6.514369   16.881835    ( 0.0000,  0.0000,  0.0000)
  36 Ir    -0.051052   -0.054105   18.979673    ( 0.0000,  0.0000,  0.0000)
  37 Ir     2.772276   -0.061675   19.059998    ( 0.0000,  0.0000,  0.0000)
  38 Pt     5.640346   -0.046288   19.124364    ( 0.0000,  0.0000,  0.0000)
  39 Ag     1.444425    2.351086   19.591732    ( 0.0000,  0.0000,  0.0000)
  40 Ir     4.249538    2.398948   19.027234    ( 0.0000,  0.0000,  0.0000)
  41 Pt     6.990437    2.290067   19.124261    ( 0.0000,  0.0000,  0.0000)
  42 Ir     2.920243    4.856775   19.027408    ( 0.0000,  0.0000,  0.0000)
  43 Ir     5.468177    4.909757   19.220478    ( 0.0000,  0.0000,  0.0000)
  44 Ag     8.572809    4.789617   19.514185    ( 0.0000,  0.0000,  0.0000)
  45 O      6.709421    5.836394   20.485112    ( 0.0000,  0.0000,  0.0000)

Unit cell:
           periodic     x           y           z      points  spacing
  1. axis:    yes    8.445283    0.000000    0.000000    35     0.2090
  2. axis:    yes    4.222641    7.313829    0.000000    35     0.2090
  3. axis:    no     0.000000    0.000000   29.175054   135     0.2161

  Lengths:   8.445283   8.445283  29.175054
  Angles:   90.000000  90.000000  60.000000

Effective grid spacing dv^(1/3) = 0.2217

                     log10-error:    total        iterations:
           time      wfs    density  energy       fermi  poisson
iter:   1  00:48:21  -3.49   +inf  -265.787604    2             
iter:   2  00:49:35  -2.45  -2.35  -279.813475    3             
iter:   3  00:50:51  -2.76  -1.61  -265.561696    3             
iter:   4  00:52:06  -4.00  -2.71  -265.474377    3             
iter:   5  00:53:21  -5.06  -3.26  -265.466684    2             
iter:   6  00:54:36  -5.62  -3.59  -265.464738    2             
iter:   7  00:55:51  -5.93  -3.70  -265.464616    2             
iter:   8  00:57:06  -5.78  -3.80  -265.463455    2             
iter:   9  00:58:20  -6.12  -3.80  -265.464059    2             
iter:  10  00:59:34  -6.71  -4.07  -265.463858    2             
iter:  11  01:00:49  -7.08  -4.15  -265.463769    2             
iter:  12  01:02:05  -7.12  -4.22  -265.464034    2             
iter:  13  01:03:19  -7.18  -4.24  -265.464104    2             
iter:  14  01:04:33  -7.56  -4.29  -265.463744    2             

Converged after 14 iterations.

Dipole moment: (24.904755, 19.308551, -0.084258) |e|*Ang

Energy contributions relative to reference atoms: (reference = -16429278.754816)

Kinetic:       -147.304742
Potential:      +90.782909
External:        +0.000000
XC:            -201.544551
Entropy (-ST):   -2.060981
Local:           -6.366869
--------------------------
Free energy:   -266.494234
Extrapolated:  -265.463744

Fermi level: 1.31280

Showing only first 2 kpts
 Kpt  Band  Eigenvalues  Occupancy
  0   357      1.32623    0.11662
  0   358      1.34609    0.10438
  0   359      1.37523    0.08720
  0   360      1.41077    0.06824

  1   357      1.20901    0.18461
  1   358      1.23065    0.17364
  1   359      1.26664    0.15335
  1   360      1.29145    0.13829



Forces in eV/Ang:
  0 Ag   -0.41979    0.15819   -1.04332
  1 Ag    0.24688    0.23151   -0.85105
  2 Ir    0.50091   -0.17619    0.01833
  3 Ir   -0.11195    1.23903    1.34490
  4 Ir    0.39312    0.39866    0.87793
  5 Ir   -0.31914   -0.02018    1.20098
  6 Ir   -1.70901   -0.50137    0.73331
  7 Ag   -0.12119   -0.34600   -0.95262
  8 Pt    1.05585   -0.39427    0.49175
  9 Ag    0.15238    0.01764    0.23367
 10 Ir   -0.03267   -0.40501    1.00509
 11 Ir   -0.63601   -0.76943   -0.48509
 12 Ir    0.38564    0.13885    0.25028
 13 Ag   -0.03133   -0.01794    0.19439
 14 Ag    0.08722    0.08534    0.17487
 15 Pt   -0.11485   -0.04941   -0.57052
 16 Ru    0.64457    0.48234   -1.37343
 17 Ir    0.10678    0.24692   -1.24588
 18 Ir   -0.00716   -0.01731   -0.00323
 19 Pt    0.01467   -0.00506    0.00348
 20 Pt    0.01064   -0.02165    0.01106
 21 Ag    0.02135    0.01547    0.01583
 22 Ag    0.00100   -0.00180    0.00125
 23 Ag    0.00039   -0.00337   -0.00169
 24 Pt   -0.02142   -0.00718    0.01328
 25 Ag    0.00768   -0.00531   -0.00651
 26 Ir    0.01489    0.00477   -0.00463
 27 Ru   -0.01447   -0.02241   -0.00193
 28 Ir    0.00776   -0.05292    0.02843
 29 Ir    0.00962   -0.02181   -0.00772
 30 Ir   -0.02732   -0.00717    0.01351
 31 Ir    0.01181    0.00120   -0.05893
 32 Pt    0.01376   -0.01871   -0.01933
 33 Ag    0.01457   -0.00126   -0.02497
 34 Ir   -0.00316    0.01830    0.00453
 35 Ru   -0.01181    0.00814    0.00546
 36 Ir   -0.01192   -0.01634   -0.01701
 37 Ir   -0.00165    0.02171   -0.02124
 38 Pt   -0.01076    0.00478   -0.01894
 39 Ag    0.00518   -0.02629    0.00749
 40 Ir    0.00260   -0.04285    0.02383
 41 Pt   -0.00787   -0.02883   -0.00032
 42 Ir    0.00262    0.01660    0.03405
 43 Ir    0.01734    0.01471    0.02435
 44 Ag    0.00778   -0.02373    0.02250
 45 O     0.00550   -0.01881   -0.00188

Timing:                                      incl.     excl.
-------------------------------------------------------------------
Density initialized from wave functions:    29.167    29.167   0.2% |
 Symmetrize density:                         0.001     0.001   0.0% |
Forces:                                    175.629   175.629   1.0% |
Hamiltonian:                                24.986     0.103   0.0% |
 Atomic:                                     7.381     3.459   0.0% |
  XC Correction:                             3.923     3.923   0.0% |
 Calculate atomic Hamiltonians:              7.836     7.836   0.0% |
 Communicate:                                0.308     0.308   0.0% |
 Initialize Hamiltonian:                     0.001     0.001   0.0% |
 Poisson:                                    0.064     0.064   0.0% |
 XC 3D grid:                                 9.292     9.292   0.1% |
LCAO initialization:                        60.603     3.811   0.0% |
 LCAO eigensolver:                           7.540     0.004   0.0% |
  Calculate projections:                     0.093     0.093   0.0% |
  DenseAtomicCorrection:                     0.099     0.099   0.0% |
  Distribute overlap matrix:                 0.296     0.296   0.0% |
  Orbital Layouts:                           0.599     0.599   0.0% |
  Potential matrix:                          6.370     6.370   0.0% |
  Sum over cells:                            0.079     0.079   0.0% |
 LCAO to grid:                              46.812    46.812   0.3% |
 Set positions (LCAO WFS):                   2.439     0.927   0.0% |
  Basic WFS set positions:                   0.003     0.003   0.0% |
  Basis functions set positions:             0.001     0.001   0.0% |
  P tci:                                     0.596     0.596   0.0% |
  ST tci:                                    0.684     0.684   0.0% |
  mktci:                                     0.229     0.229   0.0% |
PWDescriptor:                                0.052     0.052   0.0% |
Redistribute:                                0.064     0.064   0.0% |
SCF-cycle:                               17485.511   442.826   2.5% ||
 Davidson:                               15628.003  3547.216  19.9% |-------|
  Apply H:                                2594.978  2507.231  14.0% |-----|
   HMM T:                                   87.748    87.748   0.5% |
  Subspace diag:                          2228.459     0.085   0.0% |
   calc_h_matrix:                         1328.101   469.853   2.6% ||
    Apply H:                               858.248   829.135   4.6% |-|
     HMM T:                                 29.113    29.113   0.2% |
   diagonalize:                             34.535    34.535   0.2% |
   rotate_psi:                             865.738   865.738   4.8% |-|
  calc. matrices:                         4867.955  3148.400  17.6% |------|
   Apply H:                               1719.555  1661.435   9.3% |---|
    HMM T:                                  58.120    58.120   0.3% |
  diagonalize:                             656.785   656.785   3.7% ||
  rotate_psi:                             1732.609  1732.609   9.7% |---|
 Density:                                  742.104     0.014   0.0% |
  Atomic density matrices:                   5.669     5.669   0.0% |
  Mix:                                     241.909   241.909   1.4% ||
  Multipole moments:                         0.317     0.317   0.0% |
  Pseudo density:                          494.195   494.182   2.8% ||
   Symmetrize density:                       0.013     0.013   0.0% |
 Hamiltonian:                              608.297     2.194   0.0% |
  Atomic:                                  186.427    92.041   0.5% |
   XC Correction:                           94.386    94.386   0.5% |
  Calculate atomic Hamiltonians:           191.353   191.353   1.1% |
  Communicate:                               7.954     7.954   0.0% |
  Poisson:                                   1.364     1.364   0.0% |
  XC 3D grid:                              219.004   219.004   1.2% |
 Orthonormalize:                            64.281     0.004   0.0% |
  calc_s_matrix:                             9.943     9.943   0.1% |
  inverse-cholesky:                          0.879     0.879   0.0% |
  projections:                              35.170    35.170   0.2% |
  rotate_psi_s:                             18.285    18.285   0.1% |
Set symmetry:                                0.003     0.003   0.0% |
Other:                                      75.331    75.331   0.4% |
-------------------------------------------------------------------
Total:                                             17851.346 100.0%

Date: Fri Mar  4 01:04:54 2022
