
  ___ ___ ___ _ _ _  
 |   |   |_  | | | | 
 | | | | | . | | | | 
 |__ |  _|___|_____|  1.5.1
 |___|_|             

User:   clausen@node031.cluster
Date:   Thu Mar  3 14:11:56 2022
Arch:   x86_64
Pid:    53603
Python: 3.6.12
gpaw:   /software/kemi/gpaw/1.5.1/gpaw
_gpaw:  /software/kemi/gpaw/1.5.1/bin/gpaw-python
ase:    /software/kemi/ase/3.17.0/ase (version 3.17.0)
numpy:  /opt/rh/rh-python36/root/usr/lib64/python3.6/site-packages/numpy (version 1.13.1)
scipy:  /opt/rh/rh-python36/root/usr/lib64/python3.6/site-packages/scipy (version 0.19.1)
units:  Angstrom and eV
cores:  16

Input parameters:
  kpts: [4 4 1]
  mode: {ecut: 400.0,
         gammacentered: False,
         name: pw}
  xc: RPBE

System changes: positions, numbers, cell, pbc, initial_charges, initial_magmoms 

Initialize ...

Pd-setup:
  name: Palladium
  id: 6da19bfba079f22767af9506641940b9
  Z: 46
  valence: 16
  core: 30
  charge: 0.0
  file: /software/kemi/gpaw-setups/0.9.20000/Pd.RPBE.gz
  cutoffs: 1.19(comp), 2.38(filt), 2.28(core), lmax=2
  valence states:
                energy  radius
    5s(0.00)    -3.225   1.228
    4p(6.00)   -51.131   1.360
    5p(0.00)    -0.373   1.360
    4d(10.00)    -3.964   1.228
    *s          23.987   1.228
    *d          23.247   1.228

  Using partial waves for Pd as LCAO basis

Ir-setup:
  name: Iridium
  id: 73b603359d1d5397a85ae3c2440f9033
  Z: 77
  valence: 15
  core: 62
  charge: 0.0
  file: /software/kemi/gpaw-setups/0.9.20000/Ir.RPBE.gz
  cutoffs: 1.26(comp), 2.40(filt), 2.36(core), lmax=2
  valence states:
                energy  radius
    6s(2.00)    -6.219   1.296
    5p(6.00)   -54.684   1.328
    6p(0.00)    -1.215   1.328
    5d(7.00)    -7.118   1.286
    *s          20.992   1.296
    *d          20.093   1.286

  Using partial waves for Ir as LCAO basis

Ru-setup:
  name: Ruthenium
  id: 76477906e28f51dc1b29884d53556fe9
  Z: 44
  valence: 16
  core: 28
  charge: 0.0
  file: /software/kemi/gpaw-setups/0.9.20000/Ru.RPBE.gz
  cutoffs: 1.23(comp), 2.16(filt), 1.30(core), lmax=2
  valence states:
                energy  radius
    4s(2.00)   -76.255   1.281
    5s(1.00)    -4.126   1.281
    4p(6.00)   -46.371   1.286
    5p(0.00)    -0.913   1.286
    4d(7.00)    -5.146   1.254
    *d          22.066   1.254

  Using partial waves for Ru as LCAO basis

Pt-setup:
  name: Platinum
  id: f04f522592575c47ad794f6b4a415b4b
  Z: 78
  valence: 16
  core: 62
  charge: 0.0
  file: /software/kemi/gpaw-setups/0.9.20000/Pt.RPBE.gz
  cutoffs: 1.29(comp), 2.26(filt), 2.26(core), lmax=2
  valence states:
                energy  radius
    6s(1.00)    -5.516   1.307
    5p(6.00)   -55.971   1.371
    6p(0.00)    -0.856   1.371
    5d(9.00)    -6.087   1.307
    *s          21.695   1.307
    *d          21.125   1.307

  Using partial waves for Pt as LCAO basis

Ag-setup:
  name: Silver
  id: c05e55bab2c3858b3f9398f6d75cb77c
  Z: 47
  valence: 17
  core: 30
  charge: 0.0
  file: /software/kemi/gpaw-setups/0.9.20000/Ag.RPBE.gz
  cutoffs: 1.25(comp), 2.35(filt), 2.19(core), lmax=2
  valence states:
                energy  radius
    5s(1.00)    -4.277   1.286
    4p(6.00)   -58.523   1.328
    5p(0.00)    -0.755   1.328
    4d(10.00)    -7.386   1.180
    *s          22.934   1.286
    *d          19.826   1.180

  Using partial waves for Ag as LCAO basis

O-setup:
  name: Oxygen
  id: 08071ca1eed670e7821b24b7eb4d558c
  Z: 8
  valence: 6
  core: 2
  charge: 0.0
  file: /software/kemi/gpaw-setups/0.9.20000/O.RPBE.gz
  cutoffs: 0.67(comp), 1.17(filt), 0.83(core), lmax=2
  valence states:
                energy  radius
    2s(2.00)   -24.041   0.688
    2p(4.00)    -8.984   0.598
    *s           3.170   0.688
    *p          18.228   0.598
    *d           0.000   0.619

  Using partial waves for O as LCAO basis

H-setup:
  name: Hydrogen
  id: ea3f9156a1dc40d47a60fdce8f8bd75d
  Z: 1
  valence: 1
  core: 0
  charge: 0.0
  file: /software/kemi/gpaw-setups/0.9.20000/H.RPBE.gz
  cutoffs: 0.48(comp), 0.85(filt), 0.53(core), lmax=2
  valence states:
                energy  radius
    1s(1.00)    -6.572   0.476
    *s          20.639   0.476
    *p           0.000   0.476

  Using partial waves for H as LCAO basis

Reference energy: -12877860.274276

Spin-paired calculation

Occupation numbers:
  Fermi-Dirac: width=0.1000 eV

Convergence criteria:
  Maximum total energy change: 0.0005 eV / electron
  Maximum integral of absolute density change: 0.0001 electrons
  Maximum integral of absolute eigenstate change: 4e-08 eV^2
  Maximum number of iterations: 333

Symmetries present (total): 1

  ( 1  0  0)
  ( 0  1  0)
  ( 0  0  1)

16 k-points: 4 x 4 x 1 Monkhorst-Pack grid
8 k-points in the irreducible part of the Brillouin zone
       k-points in crystal coordinates                weights
   0:     0.12500000   -0.37500000    0.00000000          2/16
   1:     0.12500000   -0.12500000    0.00000000          2/16
   2:     0.12500000    0.12500000    0.00000000          2/16
   3:     0.12500000    0.37500000    0.00000000          2/16
   4:     0.37500000   -0.37500000    0.00000000          2/16
   5:     0.37500000   -0.12500000    0.00000000          2/16
   6:     0.37500000    0.12500000    0.00000000          2/16
   7:     0.37500000    0.37500000    0.00000000          2/16

Wave functions: Plane wave expansion
  Cutoff energy: 400.000 eV
  Number of coefficients (min, max): 32894, 32940
  Pulay-stress correction: 0.000000 eV/Ang^3 (de/decut=0.000000)
  Using FFTW library
  ScaLapack parameters: grid=1x1, blocksize=None
  Wavefunction extrapolation:
    Improved wavefunction reuse through dual PAW basis 

Eigensolver
   Davidson(niter=2, smin=None, normalize=True) 

Densities:
  Coarse grid: 35*35*135 grid
  Fine grid: 70*70*270 grid
  Total Charge: 0.000000 

Density mixing:
  Method: separate
  Backend: pulay
  Linear mixing parameter: 0.05
  Mixing with 5 old densities
  Damping of long wave oscillations: 50 

Hamiltonian:
  XC and Coulomb potentials evaluated on a 70*70*270 grid
  Using the RPBE Exchange-Correlation functional
 

XC parameters: RPBE with 2 nearest neighbor stencil

Memory estimate:
  Process memory now: 151.34 MiB
  Calculator: 554.76 MiB
    Density: 54.46 MiB
      Arrays: 16.41 MiB
      Localized functions: 31.69 MiB
      Mixer: 6.36 MiB
    Hamiltonian: 11.75 MiB
      Arrays: 10.73 MiB
      XC: 0.00 MiB
      Poisson: 0.00 MiB
      vbar: 1.03 MiB
    Wavefunctions: 488.54 MiB
      Arrays psit_nG: 220.65 MiB
      Eigensolver: 252.59 MiB
      Projections: 2.77 MiB
      Projectors: 5.91 MiB
      PW-descriptor: 6.62 MiB

Total number of cores used: 16
Parallelization over k-points: 8
Domain decomposition: 1 x 1 x 2

Number of atoms: 47
Number of atomic orbitals: 551
Number of bands in calculation: 439
Bands to converge: occupied states only
Number of valence electrons: 724

... initialized

Initializing position-dependent things.

Density initialized from atomic densities
Creating initial wave functions:
  439 bands from LCAO basis set

                                             
                                             
                                             
                                             
                                             
                                             
                             H               
                           O                 
                  Ag     Ir    Ir            
            Pd      Pd                       
                   Ru     PIr    Ir          
        Ir    Pt    PAg                      
                           Pd                
        Ir     Pd    IAg    Ir     Pt        
                                             
                Ag     Ru     Pd             
           Pt     Ag    PPd    Ir            
                                             
            Pt     Pt    PPt    Ru           
       Ag     Ag     Ag                      
              Ru    Ir     Pt                
         Pd    Ir     Ru                     
                                             
                                             
                                             
                                             
                                             

Positions:
   0 Pd     0.000000    1.624086   10.000000    ( 0.0000,  0.0000,  0.0000)
   1 Ir     2.812999    1.624086   10.000000    ( 0.0000,  0.0000,  0.0000)
   2 Ru     5.625998    1.624086   10.000000    ( 0.0000,  0.0000,  0.0000)
   3 Ru     1.406500    4.060215   10.000000    ( 0.0000,  0.0000,  0.0000)
   4 Ir     4.219499    4.060215   10.000000    ( 0.0000,  0.0000,  0.0000)
   5 Pt     7.032498    4.060215   10.000000    ( 0.0000,  0.0000,  0.0000)
   6 Pd     2.812999    6.496343   10.000000    ( 0.0000,  0.0000,  0.0000)
   7 Pd     5.625998    6.496343   10.000000    ( 0.0000,  0.0000,  0.0000)
   8 Ru     8.438997    6.496343   10.000000    ( 0.0000,  0.0000,  0.0000)
   9 Ag     0.000000    0.000000   12.296804    ( 0.0000,  0.0000,  0.0000)
  10 Ag     2.812999    0.000000   12.296804    ( 0.0000,  0.0000,  0.0000)
  11 Ag     5.625998    0.000000   12.296804    ( 0.0000,  0.0000,  0.0000)
  12 Pt     1.406500    2.436129   12.296804    ( 0.0000,  0.0000,  0.0000)
  13 Pt     4.219499    2.436129   12.296804    ( 0.0000,  0.0000,  0.0000)
  14 Pt     7.032498    2.436129   12.296804    ( 0.0000,  0.0000,  0.0000)
  15 Ru     2.812999    4.872257   12.296804    ( 0.0000,  0.0000,  0.0000)
  16 Pt     5.625998    4.872257   12.296804    ( 0.0000,  0.0000,  0.0000)
  17 Ir     8.438997    4.872257   12.296804    ( 0.0000,  0.0000,  0.0000)
  18 Pt     1.331112    0.739375   14.657283    ( 0.0000,  0.0000,  0.0000)
  19 Ag     4.181622    0.793852   14.645499    ( 0.0000,  0.0000,  0.0000)
  20 Pd     7.001587    0.862206   14.620346    ( 0.0000,  0.0000,  0.0000)
  21 Ag     2.800841    3.198617   14.645984    ( 0.0000,  0.0000,  0.0000)
  22 Ru     5.661352    3.374873   14.464570    ( 0.0000,  0.0000,  0.0000)
  23 Pd     8.454364    3.209063   14.568969    ( 0.0000,  0.0000,  0.0000)
  24 Ir     4.203312    5.613553   14.568997    ( 0.0000,  0.0000,  0.0000)
  25 Ir     7.031881    5.578044   14.561300    ( 0.0000,  0.0000,  0.0000)
  26 Pt     9.857688    5.665883   14.596939    ( 0.0000,  0.0000,  0.0000)
  27 Ir    -0.077764    1.506761   16.938800    ( 0.0000,  0.0000,  0.0000)
  28 Pd     2.746751    1.593087   16.991368    ( 0.0000,  0.0000,  0.0000)
  29 Ag     5.532334    1.594992   16.918159    ( 0.0000,  0.0000,  0.0000)
  30 Pd     1.401555    4.031321   16.973309    ( 0.0000,  0.0000,  0.0000)
  31 Pd     4.186062    4.107308   16.892321    ( 0.0000,  0.0000,  0.0000)
  32 Pd     7.007491    3.969527   16.736476    ( 0.0000,  0.0000,  0.0000)
  33 Ru     2.845276    6.541012   16.753610    ( 0.0000,  0.0000,  0.0000)
  34 Pd     5.662228    6.450069   16.794393    ( 0.0000,  0.0000,  0.0000)
  35 Ir     8.552515    6.378355   16.920371    ( 0.0000,  0.0000,  0.0000)
  36 Ir     0.061963   -0.029589   18.981657    ( 0.0000,  0.0000,  0.0000)
  37 Pt     2.802470   -0.097062   19.141410    ( 0.0000,  0.0000,  0.0000)
  38 Ag     5.661265    0.013033   19.406409    ( 0.0000,  0.0000,  0.0000)
  39 Pd     1.350042    2.376862   19.278970    ( 0.0000,  0.0000,  0.0000)
  40 Pd     4.315258    2.518491   19.256067    ( 0.0000,  0.0000,  0.0000)
  41 Ir     7.173708    2.513849   19.018418    ( 0.0000,  0.0000,  0.0000)
  42 Ag     2.809713    4.893314   19.379442    ( 0.0000,  0.0000,  0.0000)
  43 Ir     5.700233    4.913916   19.039342    ( 0.0000,  0.0000,  0.0000)
  44 Ir     8.278779    4.849064   19.000358    ( 0.0000,  0.0000,  0.0000)
  45 O      7.173708    2.513849   21.406409    ( 0.0000,  0.0000,  0.0000)
  46 H      7.823708    3.163849   21.806409    ( 0.0000,  0.0000,  0.0000)

Unit cell:
           periodic     x           y           z      points  spacing
  1. axis:    yes    8.465341    0.000000    0.000000    35     0.2095
  2. axis:    yes    4.232670    7.331200    0.000000    35     0.2095
  3. axis:    no     0.000000    0.000000   29.187217   135     0.2162

  Lengths:   8.465341   8.465341  29.187217
  Angles:   90.000000  90.000000  60.000000

Effective grid spacing dv^(1/3) = 0.2221

                     log10-error:    total        iterations:
           time      wfs    density  energy       fermi  poisson
iter:   1  14:14:16  +0.33   +inf  -325.245374    3             
iter:   2  14:15:21  -0.56  -1.16  -404.121087    32            
iter:   3  14:16:27  -0.63  -1.08  -353.460211    3             
iter:   4  14:17:32  -1.30  -1.14  -271.081659    35            
iter:   5  14:18:38  -1.72  -1.35  -250.919453    35            
iter:   6  14:19:45  -1.90  -1.44  -246.771642    34            
iter:   7  14:20:52  -2.21  -1.49  -243.800754    3             
iter:   8  14:21:57  -2.28  -1.55  -240.655501    3             
iter:   9  14:23:01  -2.03  -1.69  -242.832020    3             
iter:  10  14:24:06  -2.35  -1.70  -241.215808    3             
iter:  11  14:25:11  -2.73  -1.82  -239.341176    3             
iter:  12  14:26:15  -3.02  -2.01  -238.947957    2             
iter:  13  14:27:18  -3.32  -2.14  -238.923040    3             
iter:  14  14:28:24  -3.73  -2.21  -238.899607    3             
iter:  15  14:29:31  -3.50  -2.26  -238.870412    3             
iter:  16  14:30:37  -3.01  -2.33  -239.144755    3             
iter:  17  14:31:43  -3.48  -2.25  -238.772399    3             
iter:  18  14:32:52  -3.84  -2.48  -238.630268    3             
iter:  19  14:34:00  -4.14  -2.73  -238.625585    3             
iter:  20  14:35:07  -4.33  -2.75  -238.607374    2             
iter:  21  14:36:16  -4.52  -2.82  -238.596785    3             
iter:  22  14:37:23  -4.58  -2.93  -238.609387    2             
iter:  23  14:38:31  -4.88  -2.85  -238.596179    3             
iter:  24  14:39:39  -4.90  -2.95  -238.596748    3             
iter:  25  14:40:44  -4.81  -3.00  -238.594717    2             
iter:  26  14:41:48  -5.10  -3.08  -238.593920    2             
iter:  27  14:42:51  -5.36  -3.07  -238.591667    2             
iter:  28  14:43:53  -5.73  -3.18  -238.591792    2             
iter:  29  14:44:55  -5.39  -3.19  -238.593032    3             
iter:  30  14:45:58  -5.27  -3.11  -238.591698    2             
iter:  31  14:47:01  -5.57  -3.27  -238.590031    2             
iter:  32  14:48:04  -6.06  -3.32  -238.587949    2             
iter:  33  14:49:07  -6.24  -3.39  -238.587944    2             
iter:  34  14:50:11  -5.90  -3.43  -238.588165    2             
iter:  35  14:51:14  -6.30  -3.49  -238.587646    2             
iter:  36  14:52:21  -5.89  -3.45  -238.588350    2             
iter:  37  14:53:29  -6.35  -3.54  -238.588003    2             
iter:  38  14:54:37  -6.15  -3.56  -238.587689    2             
iter:  39  14:55:46  -5.95  -3.49  -238.587671    2             
iter:  40  14:56:55  -6.36  -3.67  -238.587887    2             
iter:  41  14:58:04  -6.67  -3.71  -238.587240    2             
iter:  42  14:59:11  -6.50  -3.76  -238.587756    2             
iter:  43  15:00:19  -6.57  -3.80  -238.587458    2             
iter:  44  15:01:28  -6.07  -3.80  -238.586824    2             
iter:  45  15:02:35  -6.61  -3.89  -238.587178    2             
iter:  46  15:03:44  -7.27  -4.12  -238.587144    2             
iter:  47  15:04:52  -7.19  -4.22  -238.586895    2             
iter:  48  15:06:00  -7.35  -4.24  -238.587061    2             
iter:  49  15:07:08  -7.89  -4.27  -238.586993    1             

Converged after 49 iterations.

Dipole moment: (24.091151, 16.386677, -0.236902) |e|*Ang

Energy contributions relative to reference atoms: (reference = -12877860.274276)

Kinetic:       -232.585811
Potential:     +106.946572
External:        +0.000000
XC:            -104.948635
Entropy (-ST):   -2.258281
Local:           -6.869980
--------------------------
Free energy:   -239.716134
Extrapolated:  -238.586993

Fermi level: 0.95247

Showing only first 2 kpts
 Kpt  Band  Eigenvalues  Occupancy
  0   360      0.94214    0.13145
  0   361      0.96282    0.11854
  0   362      0.98485    0.10494
  0   363      1.01047    0.08973

  1   360      0.86499    0.17643
  1   361      0.87849    0.16924
  1   362      0.91460    0.14839
  1   363      0.94026    0.13262



Forces in eV/Ang:
  0 Pd   -0.12083    0.32422   -0.34695
  1 Ir    0.95137    0.69794    0.60154
  2 Ru   -1.08177    0.28909    0.68723
  3 Ru    0.43263    0.29957    1.59924
  4 Ir   -0.56410   -0.79286    1.15741
  5 Pt    0.15418    0.16256    0.05156
  6 Pd   -0.49410   -0.41930   -0.25197
  7 Pd    0.38273   -0.26368   -0.58099
  8 Ru    0.34190   -0.15797    0.54409
  9 Ag   -0.24109   -0.09289    0.05538
 10 Ag   -0.02490   -0.09796    0.03064
 11 Ag    0.08140   -0.16745   -0.13612
 12 Pt    0.07533    0.76071   -0.52240
 13 Pt    0.12094    0.55930   -0.71995
 14 Pt   -0.10443    0.19641   -0.18088
 15 Ru   -0.39619   -0.72534   -0.96662
 16 Pt   -0.41982    0.17553   -0.12733
 17 Ir    0.92150   -0.10002   -1.04467
 18 Pt    0.06719   -0.04724   -0.02067
 19 Ag   -0.00983   -0.05172    0.03238
 20 Pd   -0.00580   -0.04585    0.04315
 21 Ag   -0.00690   -0.01555   -0.01519
 22 Ru    0.01035   -0.00348    0.02774
 23 Pd   -0.04001   -0.02797    0.04449
 24 Ir    0.01195   -0.03436    0.00276
 25 Ir   -0.04171    0.02342    0.02558
 26 Pt    0.00091   -0.01017    0.00932
 27 Ir   -0.11031    0.02512    0.08410
 28 Pd   -0.01350   -0.02444   -0.04564
 29 Ag   -0.00568    0.01194    0.01388
 30 Pd   -0.00134   -0.04475   -0.02044
 31 Pd    0.00784   -0.06544    0.00473
 32 Pd    0.03771   -0.26543    0.21075
 33 Ru   -0.02536   -0.03671    0.00359
 34 Pd   -0.00692    0.06452   -0.00067
 35 Ir   -0.00503   -0.03362    0.06947
 36 Ir    0.13429   -0.28107   -0.14110
 37 Pt    0.09461   -0.02230   -0.03656
 38 Ag   -0.01377   -0.07860   -0.02994
 39 Pd    0.16331   -0.01513   -0.04813
 40 Pd   -0.13828    0.02785   -0.02389
 41 Ir    0.12679    0.23165    2.30363
 42 Ag   -0.03145   -0.02776   -0.00613
 43 Ir   -0.05344    0.10527   -0.07156
 44 Ir    0.07916    0.27392   -0.14934
 45 O     0.21861    0.04019   -1.55973
 46 H    -0.31336   -0.27470   -0.58729

System changes: positions 

Initializing position-dependent things.

Density initialized from wave functions
                                             
                                             
                                             
                                             
                                             
                                             
                             H               
                           O                 
                  Ag     Ir    Ir            
            Pd      Pd     Ir                
                   Ru     Pd     Ir          
        Ir    Pt    PAg    Pd                
                                             
        Ir     Pd    IAg    Ir     Pt        
                                             
                Ag     Ru     Pd             
           Pt     Ag    PPd    Ir            
                                             
             Pt    Pt    PPt    Ru           
       Ag     Ag     Ag                      
              Ru    Ir     Pt                
         Pd    Ir     Ru                     
                                             
                                             
                                             
                                             
                                             

Positions:
   0 Pd     0.000000    1.624086   10.000000    ( 0.0000,  0.0000,  0.0000)
   1 Ir     2.812999    1.624086   10.000000    ( 0.0000,  0.0000,  0.0000)
   2 Ru     5.625998    1.624086   10.000000    ( 0.0000,  0.0000,  0.0000)
   3 Ru     1.406500    4.060215   10.000000    ( 0.0000,  0.0000,  0.0000)
   4 Ir     4.219499    4.060215   10.000000    ( 0.0000,  0.0000,  0.0000)
   5 Pt     7.032498    4.060215   10.000000    ( 0.0000,  0.0000,  0.0000)
   6 Pd     2.812999    6.496343   10.000000    ( 0.0000,  0.0000,  0.0000)
   7 Pd     5.625998    6.496343   10.000000    ( 0.0000,  0.0000,  0.0000)
   8 Ru     8.438997    6.496343   10.000000    ( 0.0000,  0.0000,  0.0000)
   9 Ag     0.000000    0.000000   12.296804    ( 0.0000,  0.0000,  0.0000)
  10 Ag     2.812999    0.000000   12.296804    ( 0.0000,  0.0000,  0.0000)
  11 Ag     5.625998    0.000000   12.296804    ( 0.0000,  0.0000,  0.0000)
  12 Pt     1.406500    2.436129   12.296804    ( 0.0000,  0.0000,  0.0000)
  13 Pt     4.219499    2.436129   12.296804    ( 0.0000,  0.0000,  0.0000)
  14 Pt     7.032498    2.436129   12.296804    ( 0.0000,  0.0000,  0.0000)
  15 Ru     2.812999    4.872257   12.296804    ( 0.0000,  0.0000,  0.0000)
  16 Pt     5.625998    4.872257   12.296804    ( 0.0000,  0.0000,  0.0000)
  17 Ir     8.438997    4.872257   12.296804    ( 0.0000,  0.0000,  0.0000)
  18 Pt     1.336908    0.735300   14.655500    ( 0.0000,  0.0000,  0.0000)
  19 Ag     4.180775    0.789391   14.648292    ( 0.0000,  0.0000,  0.0000)
  20 Pd     7.001087    0.858251   14.624068    ( 0.0000,  0.0000,  0.0000)
  21 Ag     2.800246    3.197276   14.644674    ( 0.0000,  0.0000,  0.0000)
  22 Ru     5.662245    3.374573   14.466963    ( 0.0000,  0.0000,  0.0000)
  23 Pd     8.450912    3.206651   14.572806    ( 0.0000,  0.0000,  0.0000)
  24 Ir     4.204343    5.610589   14.569235    ( 0.0000,  0.0000,  0.0000)
  25 Ir     7.028283    5.580064   14.563507    ( 0.0000,  0.0000,  0.0000)
  26 Pt     9.857767    5.665005   14.597743    ( 0.0000,  0.0000,  0.0000)
  27 Ir    -0.087278    1.508928   16.946054    ( 0.0000,  0.0000,  0.0000)
  28 Pd     2.745586    1.590979   16.987431    ( 0.0000,  0.0000,  0.0000)
  29 Ag     5.531845    1.596022   16.919357    ( 0.0000,  0.0000,  0.0000)
  30 Pd     1.401439    4.027461   16.971547    ( 0.0000,  0.0000,  0.0000)
  31 Pd     4.186739    4.101664   16.892729    ( 0.0000,  0.0000,  0.0000)
  32 Pd     7.010744    3.946632   16.754654    ( 0.0000,  0.0000,  0.0000)
  33 Ru     2.843088    6.537846   16.753919    ( 0.0000,  0.0000,  0.0000)
  34 Pd     5.661631    6.455634   16.794335    ( 0.0000,  0.0000,  0.0000)
  35 Ir     8.552081    6.375456   16.926363    ( 0.0000,  0.0000,  0.0000)
  36 Ir     0.073546   -0.053833   18.969487    ( 0.0000,  0.0000,  0.0000)
  37 Pt     2.810630   -0.098985   19.138257    ( 0.0000,  0.0000,  0.0000)
  38 Ag     5.660077    0.006254   19.403827    ( 0.0000,  0.0000,  0.0000)
  39 Pd     1.364128    2.375557   19.274819    ( 0.0000,  0.0000,  0.0000)
  40 Pd     4.303330    2.520893   19.254006    ( 0.0000,  0.0000,  0.0000)
  41 Ir     7.184644    2.533830   19.217117    ( 0.0000,  0.0000,  0.0000)
  42 Ag     2.807000    4.890920   19.378914    ( 0.0000,  0.0000,  0.0000)
  43 Ir     5.695623    4.922996   19.033170    ( 0.0000,  0.0000,  0.0000)
  44 Ir     8.285608    4.872690   18.987477    ( 0.0000,  0.0000,  0.0000)
  45 O      7.192564    2.517315   21.271876    ( 0.0000,  0.0000,  0.0000)
  46 H      7.796679    3.140155   21.755753    ( 0.0000,  0.0000,  0.0000)

Unit cell:
           periodic     x           y           z      points  spacing
  1. axis:    yes    8.465341    0.000000    0.000000    35     0.2095
  2. axis:    yes    4.232670    7.331200    0.000000    35     0.2095
  3. axis:    no     0.000000    0.000000   29.187217   135     0.2162

  Lengths:   8.465341   8.465341  29.187217
  Angles:   90.000000  90.000000  60.000000

Effective grid spacing dv^(1/3) = 0.2221

                     log10-error:    total        iterations:
           time      wfs    density  energy       fermi  poisson
iter:   1  15:08:50  -1.82   +inf  -243.156946    4             
iter:   2  15:09:57  -1.71  -1.97  -260.221281    34            
iter:   3  15:11:05  -1.62  -1.58  -282.603551    3             
iter:   4  15:12:14  -2.18  -1.43  -239.901007    32            
iter:   5  15:13:23  -3.24  -2.32  -239.418511    3             
iter:   6  15:14:31  -3.77  -2.56  -239.312542    2             
iter:   7  15:15:38  -3.67  -2.62  -239.421678    3             
iter:   8  15:16:39  -3.71  -2.45  -239.231315    3             
iter:   9  15:17:41  -3.83  -2.70  -239.497972    3             
iter:  10  15:18:43  -3.75  -2.35  -239.249370    3             
iter:  11  15:19:44  -4.11  -2.62  -239.159355    3             
iter:  12  15:20:45  -4.39  -2.92  -239.147040    2             
iter:  13  15:21:47  -4.93  -3.04  -239.140580    2             
iter:  14  15:22:49  -5.05  -3.17  -239.137929    3             
iter:  15  15:23:51  -4.86  -3.13  -239.148385    2             
iter:  16  15:24:54  -5.21  -2.97  -239.138226    2             
iter:  17  15:25:56  -5.26  -3.19  -239.131430    2             
iter:  18  15:26:59  -5.49  -3.47  -239.132273    2             
iter:  19  15:28:01  -5.42  -3.42  -239.132709    2             
iter:  20  15:29:02  -5.79  -3.43  -239.130954    2             
iter:  21  15:30:03  -5.97  -3.58  -239.131237    2             
iter:  22  15:31:03  -5.75  -3.65  -239.132045    2             
iter:  23  15:32:04  -6.60  -3.65  -239.130634    2             
iter:  24  15:33:06  -6.48  -3.96  -239.130883    2             
iter:  25  15:34:07  -6.63  -4.17  -239.130965    2             
iter:  26  15:35:00  -6.90  -4.04  -239.130595    2             
iter:  27  15:35:53  -7.43  -4.15  -239.130737    2             

Converged after 27 iterations.

Dipole moment: (23.210478, 17.620021, -0.004029) |e|*Ang

Energy contributions relative to reference atoms: (reference = -12877860.274276)

Kinetic:       -230.433653
Potential:     +104.674790
External:        +0.000000
XC:            -105.382528
Entropy (-ST):   -2.262959
Local:           -6.857867
--------------------------
Free energy:   -240.262216
Extrapolated:  -239.130737

Fermi level: 1.05528

Showing only first 2 kpts
 Kpt  Band  Eigenvalues  Occupancy
  0   360      1.03858    0.13542
  0   361      1.05826    0.12314
  0   362      1.08945    0.10385
  0   363      1.11793    0.08708

  1   360      0.96704    0.17683
  1   361      0.97723    0.17145
  1   362      1.02068    0.14641
  1   363      1.04342    0.13240



Forces in eV/Ang:
  0 Pd   -0.12258    0.32177   -0.35355
  1 Ir    0.95027    0.69464    0.60636
  2 Ru   -1.07832    0.28896    0.68597
  3 Ru    0.43078    0.29947    1.60568
  4 Ir   -0.56192   -0.79288    1.16393
  5 Pt    0.15383    0.16194    0.04992
  6 Pd   -0.49568   -0.41571   -0.24633
  7 Pd    0.38438   -0.25609   -0.57934
  8 Ru    0.33951   -0.15866    0.55392
  9 Ag   -0.24919   -0.09349    0.06001
 10 Ag   -0.02063   -0.10306    0.03668
 11 Ag    0.08189   -0.16755   -0.13034
 12 Pt    0.06502    0.76440   -0.51468
 13 Pt    0.12416    0.56057   -0.72162
 14 Pt   -0.10291    0.19460   -0.16888
 15 Ru   -0.39884   -0.72262   -0.97144
 16 Pt   -0.41916    0.16344   -0.11662
 17 Ir    0.92741   -0.10432   -1.03091
 18 Pt   -0.01501   -0.00819   -0.01522
 19 Ag    0.02184   -0.01999    0.00945
 20 Pd    0.01154   -0.02078    0.04014
 21 Ag   -0.00376   -0.01616   -0.01768
 22 Ru    0.03024   -0.02777    0.07046
 23 Pd   -0.04024   -0.00708    0.05113
 24 Ir    0.02079   -0.01724   -0.01628
 25 Ir   -0.01624   -0.06152    0.04293
 26 Pt   -0.02772   -0.03647   -0.00560
 27 Ir   -0.21050    0.11676    0.42883
 28 Pd   -0.00172   -0.01239   -0.06276
 29 Ag    0.15927    0.04592    0.26353
 30 Pd   -0.00832   -0.06444   -0.02767
 31 Pd    0.01890   -0.02641   -0.01600
 32 Pd    0.04339   -0.29182    0.31575
 33 Ru   -0.00305    0.04415    0.01369
 34 Pd    0.04237   -0.05959   -0.07400
 35 Ir    0.00736    0.03438   -0.11557
 36 Ir    0.07009   -0.18462    0.00050
 37 Pt    0.09593    0.11646   -0.05260
 38 Ag    0.02046   -0.02225   -0.04301
 39 Pd    0.16860   -0.07116   -0.13709
 40 Pd   -0.07452   -0.02710   -0.04042
 41 Ir    0.04354    0.42320    0.50922
 42 Ag   -0.04613   -0.02728   -0.01247
 43 Ir   -0.02930   -0.00101   -0.03241
 44 Ir    0.04543    0.01518    0.00869
 45 O    -0.11439   -0.37835   -0.70947
 46 H    -0.03927   -0.02562   -0.58391

System changes: positions 

Initializing position-dependent things.

Density initialized from wave functions
                                             
                                             
                                             
                                             
                                             
                                             
                             H               
                           O                 
                  Ag     Ir    Ir            
            Pd      Pd     Ir                
                   Ru     Pd     Ir          
        Ir    Pt    PAg    Pd                
                                             
        Ir     Pd    IAg    Ir     Pt        
                Ag                           
                        Ru    Pd             
           Pt     Ag    PPd    Ir            
                                             
             Pt    Pt     Pt    Ru           
        Ag    Ag     Ag                      
              Ru    Ir     Pt                
         Pd    Ir     Ru                     
                                             
                                             
                                             
                                             
                                             

Positions:
   0 Pd     0.000000    1.624086   10.000000    ( 0.0000,  0.0000,  0.0000)
   1 Ir     2.812999    1.624086   10.000000    ( 0.0000,  0.0000,  0.0000)
   2 Ru     5.625998    1.624086   10.000000    ( 0.0000,  0.0000,  0.0000)
   3 Ru     1.406500    4.060215   10.000000    ( 0.0000,  0.0000,  0.0000)
   4 Ir     4.219499    4.060215   10.000000    ( 0.0000,  0.0000,  0.0000)
   5 Pt     7.032498    4.060215   10.000000    ( 0.0000,  0.0000,  0.0000)
   6 Pd     2.812999    6.496343   10.000000    ( 0.0000,  0.0000,  0.0000)
   7 Pd     5.625998    6.496343   10.000000    ( 0.0000,  0.0000,  0.0000)
   8 Ru     8.438997    6.496343   10.000000    ( 0.0000,  0.0000,  0.0000)
   9 Ag     0.000000    0.000000   12.296804    ( 0.0000,  0.0000,  0.0000)
  10 Ag     2.812999    0.000000   12.296804    ( 0.0000,  0.0000,  0.0000)
  11 Ag     5.625998    0.000000   12.296804    ( 0.0000,  0.0000,  0.0000)
  12 Pt     1.406500    2.436129   12.296804    ( 0.0000,  0.0000,  0.0000)
  13 Pt     4.219499    2.436129   12.296804    ( 0.0000,  0.0000,  0.0000)
  14 Pt     7.032498    2.436129   12.296804    ( 0.0000,  0.0000,  0.0000)
  15 Ru     2.812999    4.872257   12.296804    ( 0.0000,  0.0000,  0.0000)
  16 Pt     5.625998    4.872257   12.296804    ( 0.0000,  0.0000,  0.0000)
  17 Ir     8.438997    4.872257   12.296804    ( 0.0000,  0.0000,  0.0000)
  18 Pt     1.336098    0.733012   14.652724    ( 0.0000,  0.0000,  0.0000)
  19 Ag     4.183888    0.785204   14.650445    ( 0.0000,  0.0000,  0.0000)
  20 Pd     7.002719    0.854073   14.631139    ( 0.0000,  0.0000,  0.0000)
  21 Ag     2.799520    3.194470   14.641643    ( 0.0000,  0.0000,  0.0000)
  22 Ru     5.667083    3.370262   14.478316    ( 0.0000,  0.0000,  0.0000)
  23 Pd     8.443896    3.204955   14.581581    ( 0.0000,  0.0000,  0.0000)
  24 Ir     4.207777    5.607204   14.566813    ( 0.0000,  0.0000,  0.0000)
  25 Ir     7.024889    5.571200   14.570616    ( 0.0000,  0.0000,  0.0000)
  26 Pt     9.853560    5.659221   14.597094    ( 0.0000,  0.0000,  0.0000)
  27 Ir    -0.121803    1.527284   17.013291    ( 0.0000,  0.0000,  0.0000)
  28 Pd     2.745026    1.588551   16.976856    ( 0.0000,  0.0000,  0.0000)
  29 Ag     5.556004    1.603286   16.959844    ( 0.0000,  0.0000,  0.0000)
  30 Pd     1.400141    4.016650   16.966878    ( 0.0000,  0.0000,  0.0000)
  31 Pd     4.189793    4.096196   16.890394    ( 0.0000,  0.0000,  0.0000)
  32 Pd     7.018189    3.896296   16.807436    ( 0.0000,  0.0000,  0.0000)
  33 Ru     2.842065    6.543770   16.756086    ( 0.0000,  0.0000,  0.0000)
  34 Pd     5.667939    6.447968   16.783038    ( 0.0000,  0.0000,  0.0000)
  35 Ir     8.553093    6.379957   16.910271    ( 0.0000,  0.0000,  0.0000)
  36 Ir     0.087189   -0.088170   18.966458    ( 0.0000,  0.0000,  0.0000)
  37 Pt     2.827340   -0.081718   19.129433    ( 0.0000,  0.0000,  0.0000)
  38 Ag     5.662895    0.001132   19.396610    ( 0.0000,  0.0000,  0.0000)
  39 Pd     1.393431    2.364373   19.252857    ( 0.0000,  0.0000,  0.0000)
  40 Pd     4.288924    2.517375   19.247318    ( 0.0000,  0.0000,  0.0000)
  41 Ir     7.194074    2.603455   19.345465    ( 0.0000,  0.0000,  0.0000)
  42 Ag     2.799274    4.886149   19.376878    ( 0.0000,  0.0000,  0.0000)
  43 Ir     5.689979    4.925160   19.026653    ( 0.0000,  0.0000,  0.0000)
  44 Ir     8.294276    4.881034   18.985514    ( 0.0000,  0.0000,  0.0000)
  45 O      7.179934    2.460512   21.129370    ( 0.0000,  0.0000,  0.0000)
  46 H      7.783794    3.130202   21.653796    ( 0.0000,  0.0000,  0.0000)

Unit cell:
           periodic     x           y           z      points  spacing
  1. axis:    yes    8.465341    0.000000    0.000000    35     0.2095
  2. axis:    yes    4.232670    7.331200    0.000000    35     0.2095
  3. axis:    no     0.000000    0.000000   29.187217   135     0.2162

  Lengths:   8.465341   8.465341  29.187217
  Angles:   90.000000  90.000000  60.000000

Effective grid spacing dv^(1/3) = 0.2221

                     log10-error:    total        iterations:
           time      wfs    density  energy       fermi  poisson
iter:   1  15:37:12  -1.76   +inf  -250.132124    3             
iter:   2  15:38:05  -0.66  -1.66  -458.487762    37            
iter:   3  15:38:58  -1.28  -1.06  -252.229672    35            
iter:   4  15:39:50  -1.98  -1.67  -239.807096    35            
iter:   5  15:40:43  -2.87  -2.30  -239.558401    3             
iter:   6  15:41:35  -3.45  -2.28  -239.153946    3             
iter:   7  15:42:28  -3.64  -2.53  -239.001716    3             
iter:   8  15:43:22  -3.84  -2.68  -238.994840    2             
iter:   9  15:44:26  -3.99  -2.63  -239.035497    3             
iter:  10  15:45:30  -4.21  -2.51  -238.963355    3             
iter:  11  15:46:35  -3.97  -2.70  -238.896170    2             
iter:  12  15:47:41  -4.32  -2.98  -238.918011    3             
iter:  13  15:48:46  -4.55  -2.85  -238.886325    3             
iter:  14  15:49:50  -4.90  -3.11  -238.889355    2             
iter:  15  15:50:55  -4.74  -3.02  -238.917913    2             
iter:  16  15:52:00  -5.02  -2.83  -238.879903    3             
iter:  17  15:53:05  -5.51  -3.29  -238.877322    2             
iter:  18  15:54:10  -5.75  -3.43  -238.879623    2             
iter:  19  15:55:13  -5.64  -3.38  -238.876723    3             
iter:  20  15:56:17  -5.85  -3.54  -238.876743    2             
iter:  21  15:57:23  -5.52  -3.65  -238.880767    2             
iter:  22  15:58:30  -5.98  -3.27  -238.876853    2             
iter:  23  15:59:37  -5.80  -3.67  -238.876697    2             
iter:  24  16:00:44  -5.85  -3.70  -238.878548    2             
iter:  25  16:01:52  -6.11  -3.74  -238.876888    2             
iter:  26  16:02:56  -6.79  -3.69  -238.876906    2             
iter:  27  16:03:58  -6.73  -3.89  -238.876952    2             
iter:  28  16:05:01  -6.57  -3.82  -238.877530    2             
iter:  29  16:06:04  -6.62  -3.78  -238.876861    2             
iter:  30  16:07:06  -6.72  -4.26  -238.877113    2             
iter:  31  16:08:09  -7.32  -4.37  -238.876719    2             
iter:  32  16:09:12  -7.05  -4.19  -238.876938    2             
iter:  33  16:10:14  -7.46  -4.50  -238.876901    2             

Converged after 33 iterations.

Dipole moment: (20.545691, 18.515014, 0.221760) |e|*Ang

Energy contributions relative to reference atoms: (reference = -12877860.274276)

Kinetic:       -216.777426
Potential:      +92.800817
External:        +0.000000
XC:            -106.830314
Entropy (-ST):   -2.252137
Local:           -6.943909
--------------------------
Free energy:   -240.002969
Extrapolated:  -238.876901

Fermi level: 1.16587

Showing only first 2 kpts
 Kpt  Band  Eigenvalues  Occupancy
  0   360      1.15273    0.13320
  0   361      1.17530    0.11911
  0   362      1.20814    0.09897
  0   363      1.23650    0.08260

  1   360      1.07664    0.17734
  1   361      1.08829    0.17120
  1   362      1.13208    0.14592
  1   363      1.14950    0.13521



Forces in eV/Ang:
  0 Pd   -0.12428    0.32110   -0.35453
  1 Ir    0.95316    0.69548    0.61552
  2 Ru   -1.07731    0.28896    0.69051
  3 Ru    0.43348    0.29375    1.59881
  4 Ir   -0.56229   -0.79607    1.15890
  5 Pt    0.15218    0.16752    0.04880
  6 Pd   -0.49881   -0.41474   -0.24479
  7 Pd    0.38715   -0.25167   -0.58205
  8 Ru    0.33677   -0.16554    0.56845
  9 Ag   -0.26200   -0.09188    0.06213
 10 Ag   -0.01697   -0.12035    0.06581
 11 Ag    0.08735   -0.16679   -0.11658
 12 Pt    0.04341    0.76747   -0.49004
 13 Pt    0.13765    0.56174   -0.71178
 14 Pt   -0.09689    0.19232   -0.12668
 15 Ru   -0.39783   -0.71888   -0.96448
 16 Pt   -0.41024    0.11259   -0.06716
 17 Ir    0.92371   -0.11253   -1.00733
 18 Pt   -0.07771    0.03240    0.09877
 19 Ag    0.05432    0.03998    0.04117
 20 Pd    0.03214    0.00831    0.08011
 21 Ag    0.00059   -0.01085   -0.01807
 22 Ru    0.01712   -0.02579    0.03790
 23 Pd   -0.03263   -0.01624    0.04533
 24 Ir   -0.00232    0.00181    0.00117
 25 Ir    0.03701   -0.04185    0.05346
 26 Pt    0.02418   -0.02034   -0.01727
 27 Ir    0.12582   -0.05509    0.18334
 28 Pd    0.01963   -0.05702   -0.16731
 29 Ag   -0.13155   -0.13770    0.06525
 30 Pd   -0.02105    0.01961   -0.05075
 31 Pd   -0.00701    0.02183   -0.07206
 32 Pd    0.02772    0.14285   -0.08453
 33 Ru    0.03185   -0.02350   -0.00656
 34 Pd    0.07669   -0.05516   -0.06517
 35 Ir   -0.02206   -0.02559   -0.08600
 36 Ir    0.09891   -0.29285    0.11612
 37 Pt    0.06479   -0.02053   -0.04712
 38 Ag    0.05432   -0.03464   -0.02560
 39 Pd    0.03116   -0.05164   -0.04799
 40 Pd   -0.08647   -0.02519    0.04522
 41 Ir   -0.27414    0.39071   -4.51238
 42 Ag   -0.04561   -0.03266    0.00655
 43 Ir    0.07423    0.07653    0.08902
 44 Ir    0.11231    0.29186   -0.02048
 45 O     0.87886    0.57079    5.28508
 46 H    -0.96418   -1.18311   -1.01593

System changes: positions 

Initializing position-dependent things.

Density initialized from wave functions
                                             
                                             
                                             
                                             
                                             
                                             
                             H               
                           O                 
                  Ag     Ir    Ir            
            Pd      Pd     Ir                
                   Ru     Pd     Ir          
        Ir    Pt    PAg    Pd                
                                             
        Ir     Pd    IAg    Ir     Pt        
                Ag                           
                        Ru    Pd             
           Pt     Ag    PPd    Ir            
                                             
             Pt    Pt    PPt    Ru           
       Ag     Ag     Ag                      
              Ru    Ir     Pt                
         Pd    Ir     Ru                     
                                             
                                             
                                             
                                             
                                             

Positions:
   0 Pd     0.000000    1.624086   10.000000    ( 0.0000,  0.0000,  0.0000)
   1 Ir     2.812999    1.624086   10.000000    ( 0.0000,  0.0000,  0.0000)
   2 Ru     5.625998    1.624086   10.000000    ( 0.0000,  0.0000,  0.0000)
   3 Ru     1.406500    4.060215   10.000000    ( 0.0000,  0.0000,  0.0000)
   4 Ir     4.219499    4.060215   10.000000    ( 0.0000,  0.0000,  0.0000)
   5 Pt     7.032498    4.060215   10.000000    ( 0.0000,  0.0000,  0.0000)
   6 Pd     2.812999    6.496343   10.000000    ( 0.0000,  0.0000,  0.0000)
   7 Pd     5.625998    6.496343   10.000000    ( 0.0000,  0.0000,  0.0000)
   8 Ru     8.438997    6.496343   10.000000    ( 0.0000,  0.0000,  0.0000)
   9 Ag     0.000000    0.000000   12.296804    ( 0.0000,  0.0000,  0.0000)
  10 Ag     2.812999    0.000000   12.296804    ( 0.0000,  0.0000,  0.0000)
  11 Ag     5.625998    0.000000   12.296804    ( 0.0000,  0.0000,  0.0000)
  12 Pt     1.406500    2.436129   12.296804    ( 0.0000,  0.0000,  0.0000)
  13 Pt     4.219499    2.436129   12.296804    ( 0.0000,  0.0000,  0.0000)
  14 Pt     7.032498    2.436129   12.296804    ( 0.0000,  0.0000,  0.0000)
  15 Ru     2.812999    4.872257   12.296804    ( 0.0000,  0.0000,  0.0000)
  16 Pt     5.625998    4.872257   12.296804    ( 0.0000,  0.0000,  0.0000)
  17 Ir     8.438997    4.872257   12.296804    ( 0.0000,  0.0000,  0.0000)
  18 Pt     1.336634    0.734526   14.654560    ( 0.0000,  0.0000,  0.0000)
  19 Ag     4.181828    0.787974   14.649021    ( 0.0000,  0.0000,  0.0000)
  20 Pd     7.001639    0.856837   14.626461    ( 0.0000,  0.0000,  0.0000)
  21 Ag     2.800000    3.196326   14.643648    ( 0.0000,  0.0000,  0.0000)
  22 Ru     5.663882    3.373114   14.470806    ( 0.0000,  0.0000,  0.0000)
  23 Pd     8.448537    3.206077   14.575776    ( 0.0000,  0.0000,  0.0000)
  24 Ir     4.205505    5.609444   14.568415    ( 0.0000,  0.0000,  0.0000)
  25 Ir     7.027134    5.577064   14.565913    ( 0.0000,  0.0000,  0.0000)
  26 Pt     9.856343    5.663048   14.597523    ( 0.0000,  0.0000,  0.0000)
  27 Ir    -0.098964    1.515141   16.968812    ( 0.0000,  0.0000,  0.0000)
  28 Pd     2.745396    1.590157   16.983852    ( 0.0000,  0.0000,  0.0000)
  29 Ag     5.540022    1.598481   16.933061    ( 0.0000,  0.0000,  0.0000)
  30 Pd     1.401000    4.023801   16.969966    ( 0.0000,  0.0000,  0.0000)
  31 Pd     4.187773    4.099813   16.891938    ( 0.0000,  0.0000,  0.0000)
  32 Pd     7.013264    3.929595   16.772520    ( 0.0000,  0.0000,  0.0000)
  33 Ru     2.842742    6.539851   16.754653    ( 0.0000,  0.0000,  0.0000)
  34 Pd     5.663766    6.453039   16.790511    ( 0.0000,  0.0000,  0.0000)
  35 Ir     8.552424    6.376979   16.920916    ( 0.0000,  0.0000,  0.0000)
  36 Ir     0.078164   -0.065455   18.968462    ( 0.0000,  0.0000,  0.0000)
  37 Pt     2.816286   -0.093140   19.135270    ( 0.0000,  0.0000,  0.0000)
  38 Ag     5.661031    0.004520   19.401384    ( 0.0000,  0.0000,  0.0000)
  39 Pd     1.374047    2.371771   19.267385    ( 0.0000,  0.0000,  0.0000)
  40 Pd     4.298454    2.519702   19.251742    ( 0.0000,  0.0000,  0.0000)
  41 Ir     7.187836    2.557396   19.260560    ( 0.0000,  0.0000,  0.0000)
  42 Ag     2.804385    4.889305   19.378224    ( 0.0000,  0.0000,  0.0000)
  43 Ir     5.693713    4.923729   19.030964    ( 0.0000,  0.0000,  0.0000)
  44 Ir     8.288542    4.875514   18.986813    ( 0.0000,  0.0000,  0.0000)
  45 O      7.188289    2.498089   21.223641    ( 0.0000,  0.0000,  0.0000)
  46 H      7.792318    3.136786   21.721243    ( 0.0000,  0.0000,  0.0000)

Unit cell:
           periodic     x           y           z      points  spacing
  1. axis:    yes    8.465341    0.000000    0.000000    35     0.2095
  2. axis:    yes    4.232670    7.331200    0.000000    35     0.2095
  3. axis:    no     0.000000    0.000000   29.187217   135     0.2162

  Lengths:   8.465341   8.465341  29.187217
  Angles:   90.000000  90.000000  60.000000

Effective grid spacing dv^(1/3) = 0.2221

                     log10-error:    total        iterations:
           time      wfs    density  energy       fermi  poisson
iter:   1  16:11:45  -1.89   +inf  -243.512745    3             
iter:   2  16:12:49  -1.54  -1.92  -325.369159    37            
iter:   3  16:13:51  -1.80  -1.27  -239.835049    31            
iter:   4  16:14:54  -2.99  -2.43  -239.494624    3             
iter:   5  16:15:57  -3.37  -2.56  -239.652999    3             
iter:   6  16:17:00  -3.67  -2.33  -239.440624    3             
iter:   7  16:18:03  -4.08  -2.47  -239.264509    3             
iter:   8  16:19:05  -4.34  -2.88  -239.238592    3             
iter:   9  16:20:08  -4.45  -3.00  -239.228580    3             
iter:  10  16:21:11  -4.57  -3.02  -239.244427    3             
iter:  11  16:22:15  -4.39  -2.95  -239.242156    3             
iter:  12  16:23:18  -4.75  -2.84  -239.214009    3             
iter:  13  16:24:21  -5.02  -3.20  -239.211455    2             
iter:  14  16:25:25  -5.30  -3.36  -239.221386    2             
iter:  15  16:26:29  -5.88  -3.05  -239.210561    2             
iter:  16  16:27:33  -6.07  -3.46  -239.210713    2             
iter:  17  16:28:36  -6.32  -3.61  -239.210370    2             
iter:  18  16:29:39  -5.82  -3.47  -239.211005    2             
iter:  19  16:30:43  -6.07  -3.73  -239.210535    2             
iter:  20  16:31:48  -6.43  -3.77  -239.210735    2             
iter:  21  16:32:53  -6.31  -3.77  -239.210834    2             
iter:  22  16:33:58  -6.63  -3.73  -239.210397    2             
iter:  23  16:35:03  -6.17  -3.93  -239.209887    2             
iter:  24  16:36:09  -6.65  -3.69  -239.210137    2             
iter:  25  16:37:15  -7.27  -4.10  -239.209948    2             
iter:  26  16:38:19  -7.18  -4.21  -239.210072    2             
iter:  27  16:39:24  -7.50  -4.16  -239.209975    2             

Converged after 27 iterations.

Dipole moment: (22.299039, 17.938145, 0.069201) |e|*Ang

Energy contributions relative to reference atoms: (reference = -12877860.274276)

Kinetic:       -229.045864
Potential:     +103.464235
External:        +0.000000
XC:            -105.608841
Entropy (-ST):   -2.259928
Local:           -6.889541
--------------------------
Free energy:   -240.339939
Extrapolated:  -239.209975

Fermi level: 1.08999

Showing only first 2 kpts
 Kpt  Band  Eigenvalues  Occupancy
  0   360      1.07401    0.13497
  0   361      1.09482    0.12199
  0   362      1.12710    0.10207
  0   363      1.15438    0.08609

  1   360      1.00167    0.17687
  1   361      1.01286    0.17095
  1   362      1.05581    0.14616
  1   363      1.07689    0.13318



Forces in eV/Ang:
  0 Pd   -0.12237    0.32130   -0.35658
  1 Ir    0.95007    0.69603    0.60871
  2 Ru   -1.07793    0.29045    0.68536
  3 Ru    0.43276    0.29625    1.60465
  4 Ir   -0.56174   -0.79459    1.16316
  5 Pt    0.15189    0.16234    0.04993
  6 Pd   -0.49434   -0.41417   -0.24825
  7 Pd    0.38479   -0.25410   -0.58259
  8 Ru    0.33777   -0.16042    0.55817
  9 Ag   -0.25393   -0.09075    0.05951
 10 Ag   -0.01926   -0.11016    0.04812
 11 Ag    0.08391   -0.16492   -0.12586
 12 Pt    0.05698    0.76351   -0.50985
 13 Pt    0.13169    0.56060   -0.71800
 14 Pt   -0.10301    0.19437   -0.15727
 15 Ru   -0.39752   -0.72225   -0.97211
 16 Pt   -0.41392    0.14252   -0.09989
 17 Ir    0.92293   -0.10712   -1.02284
 18 Pt   -0.05353    0.01142    0.05381
 19 Ag    0.03062   -0.00063    0.01781
 20 Pd    0.03233   -0.01291    0.05262
 21 Ag   -0.00420   -0.01368   -0.01313
 22 Ru    0.02306   -0.02671    0.05110
 23 Pd   -0.02950   -0.02103    0.04756
 24 Ir    0.00803   -0.00475    0.00046
 25 Ir    0.00175   -0.05242    0.04381
 26 Pt   -0.00496   -0.03096   -0.00822
 27 Ir   -0.10744    0.07392    0.35897
 28 Pd   -0.01398   -0.03161   -0.11474
 29 Ag    0.08651   -0.00130    0.21027
 30 Pd   -0.01760   -0.03696   -0.04707
 31 Pd    0.00813   -0.00514   -0.04839
 32 Pd    0.04046   -0.16535    0.19701
 33 Ru    0.01714    0.01873   -0.01370
 34 Pd    0.04448   -0.03909   -0.08764
 35 Ir   -0.01026    0.00230   -0.11771
 36 Ir    0.08556   -0.20534    0.05788
 37 Pt    0.07646    0.07144    0.01142
 38 Ag    0.03134   -0.03807   -0.02623
 39 Pd    0.14870   -0.07533   -0.11554
 40 Pd   -0.10576   -0.01884    0.00398
 41 Ir   -0.06217    0.32156   -0.55811
 42 Ag   -0.04948   -0.03495    0.03583
 43 Ir    0.01248    0.03882    0.02404
 44 Ir    0.06508    0.11312    0.00438
 45 O     0.31114    0.12413    0.58301
 46 H    -0.43068   -0.46597   -0.81742

System changes: positions 

Initializing position-dependent things.

Density initialized from wave functions
                                             
                                             
                                             
                                             
                                             
                                             
                            H                
                           O                 
                  Ag     Ir    Ir            
             Pd     Pd     Ir                
                   Ru     Pd     Ir          
        Ir    Pt    PAg    Pd                
                                             
        Ir     Pd    IAg    Ir     Pt        
                Ag      Ru    Pd             
                                             
           Pt     Ag    PPd    Ir            
                                             
             Pt    Pt     Pt    Ru           
        Ag    Ag     Ag                      
              Ru    Ir     Pt                
         Pd    Ir     Ru                     
                                             
                                             
                                             
                                             
                                             

Positions:
   0 Pd     0.000000    1.624086   10.000000    ( 0.0000,  0.0000,  0.0000)
   1 Ir     2.812999    1.624086   10.000000    ( 0.0000,  0.0000,  0.0000)
   2 Ru     5.625998    1.624086   10.000000    ( 0.0000,  0.0000,  0.0000)
   3 Ru     1.406500    4.060215   10.000000    ( 0.0000,  0.0000,  0.0000)
   4 Ir     4.219499    4.060215   10.000000    ( 0.0000,  0.0000,  0.0000)
   5 Pt     7.032498    4.060215   10.000000    ( 0.0000,  0.0000,  0.0000)
   6 Pd     2.812999    6.496343   10.000000    ( 0.0000,  0.0000,  0.0000)
   7 Pd     5.625998    6.496343   10.000000    ( 0.0000,  0.0000,  0.0000)
   8 Ru     8.438997    6.496343   10.000000    ( 0.0000,  0.0000,  0.0000)
   9 Ag     0.000000    0.000000   12.296804    ( 0.0000,  0.0000,  0.0000)
  10 Ag     2.812999    0.000000   12.296804    ( 0.0000,  0.0000,  0.0000)
  11 Ag     5.625998    0.000000   12.296804    ( 0.0000,  0.0000,  0.0000)
  12 Pt     1.406500    2.436129   12.296804    ( 0.0000,  0.0000,  0.0000)
  13 Pt     4.219499    2.436129   12.296804    ( 0.0000,  0.0000,  0.0000)
  14 Pt     7.032498    2.436129   12.296804    ( 0.0000,  0.0000,  0.0000)
  15 Ru     2.812999    4.872257   12.296804    ( 0.0000,  0.0000,  0.0000)
  16 Pt     5.625998    4.872257   12.296804    ( 0.0000,  0.0000,  0.0000)
  17 Ir     8.438997    4.872257   12.296804    ( 0.0000,  0.0000,  0.0000)
  18 Pt     1.331397    0.733934   14.658870    ( 0.0000,  0.0000,  0.0000)
  19 Ag     4.186552    0.785067   14.652550    ( 0.0000,  0.0000,  0.0000)
  20 Pd     7.005911    0.852667   14.636374    ( 0.0000,  0.0000,  0.0000)
  21 Ag     2.799076    3.193217   14.640498    ( 0.0000,  0.0000,  0.0000)
  22 Ru     5.668918    3.368035   14.482346    ( 0.0000,  0.0000,  0.0000)
  23 Pd     8.441265    3.202480   14.585964    ( 0.0000,  0.0000,  0.0000)
  24 Ir     4.208229    5.606743   14.567354    ( 0.0000,  0.0000,  0.0000)
  25 Ir     7.025031    5.567395   14.574582    ( 0.0000,  0.0000,  0.0000)
  26 Pt     9.853799    5.656686   14.596453    ( 0.0000,  0.0000,  0.0000)
  27 Ir    -0.129157    1.532514   17.042107    ( 0.0000,  0.0000,  0.0000)
  28 Pd     2.743359    1.585095   16.965333    ( 0.0000,  0.0000,  0.0000)
  29 Ag     5.561065    1.601998   16.975948    ( 0.0000,  0.0000,  0.0000)
  30 Pd     1.398406    4.013814   16.962183    ( 0.0000,  0.0000,  0.0000)
  31 Pd     4.190259    4.095572   16.885532    ( 0.0000,  0.0000,  0.0000)
  32 Pd     7.021919    3.882913   16.822996    ( 0.0000,  0.0000,  0.0000)
  33 Ru     2.843744    6.544163   16.754225    ( 0.0000,  0.0000,  0.0000)
  34 Pd     5.671601    6.446087   16.775383    ( 0.0000,  0.0000,  0.0000)
  35 Ir     8.551687    6.378839   16.901299    ( 0.0000,  0.0000,  0.0000)
  36 Ir     0.096348   -0.109187   18.971151    ( 0.0000,  0.0000,  0.0000)
  37 Pt     2.834282   -0.077331   19.131731    ( 0.0000,  0.0000,  0.0000)
  38 Ag     5.665630   -0.003423   19.394542    ( 0.0000,  0.0000,  0.0000)
  39 Pd     1.407183    2.357828   19.243299    ( 0.0000,  0.0000,  0.0000)
  40 Pd     4.277601    2.516383   19.248603    ( 0.0000,  0.0000,  0.0000)
  41 Ir     7.187496    2.630073   19.297258    ( 0.0000,  0.0000,  0.0000)
  42 Ag     2.794696    4.882699   19.381128    ( 0.0000,  0.0000,  0.0000)
  43 Ir     5.691536    4.930775   19.029359    ( 0.0000,  0.0000,  0.0000)
  44 Ir     8.301184    4.896487   18.983941    ( 0.0000,  0.0000,  0.0000)
  45 O      7.220319    2.485387   21.194998    ( 0.0000,  0.0000,  0.0000)
  46 H      7.733306    3.075886   21.572353    ( 0.0000,  0.0000,  0.0000)

Unit cell:
           periodic     x           y           z      points  spacing
  1. axis:    yes    8.465341    0.000000    0.000000    35     0.2095
  2. axis:    yes    4.232670    7.331200    0.000000    35     0.2095
  3. axis:    no     0.000000    0.000000   29.187217   135     0.2162

  Lengths:   8.465341   8.465341  29.187217
  Angles:   90.000000  90.000000  60.000000

Effective grid spacing dv^(1/3) = 0.2221

                     log10-error:    total        iterations:
           time      wfs    density  energy       fermi  poisson
iter:   1  16:41:01  -1.79   +inf  -265.378986    37            
iter:   2  16:42:06  +0.29  -1.46  -739.804243    39            
iter:   3  16:43:12  -0.67  -0.85  -263.764845    36            
iter:   4  16:44:19  -1.62  -1.60  -241.258733    36            
iter:   5  16:45:25  -2.47  -2.10  -240.230005    2             
iter:   6  16:46:32  -3.01  -2.14  -239.483400    3             
iter:   7  16:47:38  -3.38  -2.35  -239.263831    3             
iter:   8  16:48:44  -3.20  -2.41  -239.740751    3             
iter:   9  16:49:49  -3.81  -2.19  -238.987184    2             
iter:  10  16:50:54  -3.79  -2.64  -238.971572    3             
iter:  11  16:51:58  -4.12  -2.69  -238.899372    3             
iter:  12  16:53:01  -4.25  -2.86  -238.888819    3             
iter:  13  16:54:02  -4.14  -2.85  -238.873009    3             
iter:  14  16:55:08  -4.32  -2.95  -238.935914    3             
iter:  15  16:56:15  -4.30  -2.64  -238.905623    3             
iter:  16  16:57:22  -4.64  -2.75  -238.862511    2             
iter:  17  16:58:31  -4.95  -3.04  -238.852609    3             
iter:  18  16:59:38  -5.30  -3.22  -238.852382    2             
iter:  19  17:00:46  -5.33  -3.30  -238.850219    2             
iter:  20  17:01:53  -5.45  -3.42  -238.851034    2             
iter:  21  17:03:00  -5.30  -3.38  -238.861725    2             
iter:  22  17:04:07  -5.61  -3.07  -238.850573    2             
iter:  23  17:05:15  -5.67  -3.62  -238.849822    2             
iter:  24  17:06:23  -6.09  -3.55  -238.850714    2             
iter:  25  17:07:31  -6.33  -3.57  -238.850059    2             
iter:  26  17:08:36  -6.48  -3.62  -238.849978    2             
iter:  27  17:09:41  -6.16  -3.67  -238.850637    2             
iter:  28  17:10:46  -5.43  -3.55  -238.862008    2             
iter:  29  17:11:47  -5.67  -3.16  -238.849735    2             
iter:  30  17:12:47  -6.46  -3.93  -238.850071    2             
iter:  31  17:13:53  -7.20  -3.97  -238.849851    2             
iter:  32  17:14:55  -7.40  -4.06  -238.849890    2             
iter:  33  17:15:54  -7.33  -4.13  -238.849948    2             
iter:  34  17:16:56  -6.60  -4.16  -238.851151    2             
iter:  35  17:17:56  -6.81  -3.73  -238.849864    2             
iter:  36  17:18:57  -7.55  -4.15  -238.850040    2             

Converged after 36 iterations.

Dipole moment: (19.329313, 19.439354, 0.076062) |e|*Ang

Energy contributions relative to reference atoms: (reference = -12877860.274276)

Kinetic:       -215.451909
Potential:      +93.072747
External:        +0.000000
XC:            -108.369823
Entropy (-ST):   -2.242907
Local:           -6.979601
--------------------------
Free energy:   -239.971494
Extrapolated:  -238.850040

Fermi level: 1.09581

Showing only first 2 kpts
 Kpt  Band  Eigenvalues  Occupancy
  0   360      1.07920    0.13536
  0   361      1.10418    0.11977
  0   362      1.13623    0.10008
  0   363      1.16255    0.08477

  1   360      1.00800    0.17661
  1   361      1.01960    0.17045
  1   362      1.06140    0.14629
  1   363      1.07940    0.13523



Forces in eV/Ang:
  0 Pd   -0.12292    0.32157   -0.34818
  1 Ir    0.95193    0.69738    0.62724
  2 Ru   -1.07462    0.29135    0.69716
  3 Ru    0.43614    0.29282    1.59514
  4 Ir   -0.56099   -0.79526    1.15805
  5 Pt    0.15099    0.16903    0.05503
  6 Pd   -0.49743   -0.41448   -0.24327
  7 Pd    0.38567   -0.25219   -0.57765
  8 Ru    0.33550   -0.16927    0.57430
  9 Ag   -0.25629   -0.08779    0.07656
 10 Ag   -0.02451   -0.12024    0.09314
 11 Ag    0.09192   -0.16168   -0.10083
 12 Pt    0.03323    0.76108   -0.47607
 13 Pt    0.13950    0.55968   -0.69985
 14 Pt   -0.08996    0.18805   -0.10879
 15 Ru   -0.39637   -0.72038   -0.95811
 16 Pt   -0.40506    0.09880   -0.04600
 17 Ir    0.91808   -0.12593   -1.00086
 18 Pt   -0.06119    0.04037    0.04553
 19 Ag    0.06068    0.04446    0.03588
 20 Pd   -0.00912    0.02610    0.07323
 21 Ag    0.00447   -0.00758   -0.03464
 22 Ru    0.00660   -0.01475    0.02713
 23 Pd   -0.02441   -0.00252    0.02017
 24 Ir   -0.00553   -0.00865   -0.01344
 25 Ir    0.04772   -0.04287    0.05757
 26 Pt    0.02881   -0.00221   -0.02295
 27 Ir    0.20683   -0.14759    0.11707
 28 Pd    0.04908   -0.05148   -0.11150
 29 Ag   -0.25001   -0.18620   -0.02505
 30 Pd    0.00407    0.03102   -0.02514
 31 Pd   -0.00164    0.01649   -0.02597
 32 Pd   -0.03285    0.30784   -0.21578
 33 Ru    0.04834   -0.07230    0.04278
 34 Pd    0.05441   -0.07950    0.06137
 35 Ir   -0.01464   -0.03326   -0.02001
 36 Ir    0.06917   -0.22307    0.05728
 37 Pt    0.05276    0.02818   -0.08336
 38 Ag    0.09052    0.02873    0.01388
 39 Pd   -0.10143   -0.05922    0.04973
 40 Pd   -0.00786   -0.02908    0.05058
 41 Ir   -0.22797   -0.02104   -1.47502
 42 Ag   -0.03639   -0.03491    0.00276
 43 Ir    0.07577    0.05426    0.05215
 44 Ir    0.11141    0.25690   -0.00466
 45 O    -4.66997   -5.60165   -2.25120
 46 H     4.66350    5.31334    3.37319

System changes: positions 

Initializing position-dependent things.

Density initialized from wave functions
                                             
                                             
                                             
                                             
                                             
                                             
                             H               
                           O                 
                  Ag     Ir    Ir            
            Pd      Pd     Ir                
                   Ru     Pd     Ir          
        Ir    Pt    PAg    Pd                
                                             
        Ir     Pd    IAg    Ir     Pt        
                Ag                           
                        Ru    Pd             
           Pt     Ag    PPd    Ir            
                                             
             Pt    Pt    PPt    Ru           
        Ag    Ag     Ag                      
              Ru    Ir     Pt                
         Pd    Ir     Ru                     
                                             
                                             
                                             
                                             
                                             

Positions:
   0 Pd     0.000000    1.624086   10.000000    ( 0.0000,  0.0000,  0.0000)
   1 Ir     2.812999    1.624086   10.000000    ( 0.0000,  0.0000,  0.0000)
   2 Ru     5.625998    1.624086   10.000000    ( 0.0000,  0.0000,  0.0000)
   3 Ru     1.406500    4.060215   10.000000    ( 0.0000,  0.0000,  0.0000)
   4 Ir     4.219499    4.060215   10.000000    ( 0.0000,  0.0000,  0.0000)
   5 Pt     7.032498    4.060215   10.000000    ( 0.0000,  0.0000,  0.0000)
   6 Pd     2.812999    6.496343   10.000000    ( 0.0000,  0.0000,  0.0000)
   7 Pd     5.625998    6.496343   10.000000    ( 0.0000,  0.0000,  0.0000)
   8 Ru     8.438997    6.496343   10.000000    ( 0.0000,  0.0000,  0.0000)
   9 Ag     0.000000    0.000000   12.296804    ( 0.0000,  0.0000,  0.0000)
  10 Ag     2.812999    0.000000   12.296804    ( 0.0000,  0.0000,  0.0000)
  11 Ag     5.625998    0.000000   12.296804    ( 0.0000,  0.0000,  0.0000)
  12 Pt     1.406500    2.436129   12.296804    ( 0.0000,  0.0000,  0.0000)
  13 Pt     4.219499    2.436129   12.296804    ( 0.0000,  0.0000,  0.0000)
  14 Pt     7.032498    2.436129   12.296804    ( 0.0000,  0.0000,  0.0000)
  15 Ru     2.812999    4.872257   12.296804    ( 0.0000,  0.0000,  0.0000)
  16 Pt     5.625998    4.872257   12.296804    ( 0.0000,  0.0000,  0.0000)
  17 Ir     8.438997    4.872257   12.296804    ( 0.0000,  0.0000,  0.0000)
  18 Pt     1.335412    0.734388   14.655565    ( 0.0000,  0.0000,  0.0000)
  19 Ag     4.182930    0.787296   14.649844    ( 0.0000,  0.0000,  0.0000)
  20 Pd     7.002636    0.855865   14.628773    ( 0.0000,  0.0000,  0.0000)
  21 Ag     2.799785    3.195601   14.642914    ( 0.0000,  0.0000,  0.0000)
  22 Ru     5.665057    3.371929   14.473496    ( 0.0000,  0.0000,  0.0000)
  23 Pd     8.446842    3.205238   14.578152    ( 0.0000,  0.0000,  0.0000)
  24 Ir     4.206141    5.608814   14.568167    ( 0.0000,  0.0000,  0.0000)
  25 Ir     7.026644    5.574809   14.567934    ( 0.0000,  0.0000,  0.0000)
  26 Pt     9.855750    5.661564   14.597274    ( 0.0000,  0.0000,  0.0000)
  27 Ir    -0.106004    1.519192   16.985902    ( 0.0000,  0.0000,  0.0000)
  28 Pd     2.744921    1.588977   16.979534    ( 0.0000,  0.0000,  0.0000)
  29 Ag     5.544929    1.599301   16.943061    ( 0.0000,  0.0000,  0.0000)
  30 Pd     1.400395    4.021473   16.968152    ( 0.0000,  0.0000,  0.0000)
  31 Pd     4.188352    4.098824   16.890445    ( 0.0000,  0.0000,  0.0000)
  32 Pd     7.015282    3.918710   16.784289    ( 0.0000,  0.0000,  0.0000)
  33 Ru     2.842976    6.540857   16.754553    ( 0.0000,  0.0000,  0.0000)
  34 Pd     5.665593    6.451418   16.786984    ( 0.0000,  0.0000,  0.0000)
  35 Ir     8.552252    6.377413   16.916342    ( 0.0000,  0.0000,  0.0000)
  36 Ir     0.082404   -0.075652   18.969089    ( 0.0000,  0.0000,  0.0000)
  37 Pt     2.820482   -0.089454   19.134445    ( 0.0000,  0.0000,  0.0000)
  38 Ag     5.662103    0.002668   19.399789    ( 0.0000,  0.0000,  0.0000)
  39 Pd     1.381773    2.368520   19.261769    ( 0.0000,  0.0000,  0.0000)
  40 Pd     4.293592    2.518928   19.251010    ( 0.0000,  0.0000,  0.0000)
  41 Ir     7.187757    2.574342   19.269117    ( 0.0000,  0.0000,  0.0000)
  42 Ag     2.802126    4.887765   19.378901    ( 0.0000,  0.0000,  0.0000)
  43 Ir     5.693205    4.925372   19.030590    ( 0.0000,  0.0000,  0.0000)
  44 Ir     8.291490    4.880405   18.986143    ( 0.0000,  0.0000,  0.0000)
  45 O      7.195758    2.495127   21.216962    ( 0.0000,  0.0000,  0.0000)
  46 H      7.778558    3.122586   21.686527    ( 0.0000,  0.0000,  0.0000)

Unit cell:
           periodic     x           y           z      points  spacing
  1. axis:    yes    8.465341    0.000000    0.000000    35     0.2095
  2. axis:    yes    4.232670    7.331200    0.000000    35     0.2095
  3. axis:    no     0.000000    0.000000   29.187217   135     0.2162

  Lengths:   8.465341   8.465341  29.187217
  Angles:   90.000000  90.000000  60.000000

Effective grid spacing dv^(1/3) = 0.2221

                     log10-error:    total        iterations:
           time      wfs    density  energy       fermi  poisson
iter:   1  17:20:15  -1.81   +inf  -253.861591    35            
iter:   2  17:21:02  -0.70  -1.64  -504.169928    36            
iter:   3  17:21:49  -1.29  -1.05  -249.284738    36            
iter:   4  17:22:36  -2.17  -1.70  -239.876497    4             
iter:   5  17:23:23  -3.04  -2.43  -239.641789    3             
iter:   6  17:24:10  -3.46  -2.45  -239.368972    3             
iter:   7  17:24:57  -3.60  -2.73  -239.319408    3             
iter:   8  17:25:44  -4.02  -2.73  -239.316634    3             
iter:   9  17:26:30  -4.17  -2.71  -239.360464    3             
iter:  10  17:27:17  -4.47  -2.61  -239.275284    3             
iter:  11  17:28:04  -4.47  -2.89  -239.266910    2             
iter:  12  17:28:55  -4.47  -2.98  -239.333878    3             
iter:  13  17:29:49  -4.70  -2.64  -239.267534    2             
iter:  14  17:30:43  -4.91  -2.92  -239.254973    3             
iter:  15  17:31:37  -5.22  -3.09  -239.248243    2             
iter:  16  17:32:30  -5.83  -3.41  -239.248071    2             
iter:  17  17:33:32  -6.08  -3.48  -239.246945    2             
iter:  18  17:34:33  -5.81  -3.53  -239.248298    2             
iter:  19  17:35:34  -5.71  -3.47  -239.248723    2             
iter:  20  17:36:37  -6.02  -3.52  -239.246737    2             
iter:  21  17:37:38  -6.21  -3.85  -239.248163    2             
iter:  22  17:38:40  -6.55  -3.64  -239.247291    2             
iter:  23  17:39:46  -6.36  -3.89  -239.246795    2             
iter:  24  17:40:51  -6.69  -3.86  -239.247266    2             
iter:  25  17:41:57  -7.17  -3.97  -239.247142    2             
iter:  26  17:43:03  -6.99  -3.93  -239.246822    2             
iter:  27  17:44:09  -7.01  -4.02  -239.247057    2             
iter:  28  17:45:14  -7.17  -4.04  -239.246826    2             
iter:  29  17:46:20  -7.03  -4.28  -239.246708    2             
iter:  30  17:47:25  -7.46  -4.36  -239.246975    2             

Converged after 30 iterations.

Dipole moment: (21.596624, 18.303782, 0.071016) |e|*Ang

Energy contributions relative to reference atoms: (reference = -12877860.274276)

Kinetic:       -226.283621
Potential:     +101.243025
External:        +0.000000
XC:            -106.193411
Entropy (-ST):   -2.255657
Local:           -6.885140
--------------------------
Free energy:   -240.374804
Extrapolated:  -239.246975

Fermi level: 1.09342

Showing only first 2 kpts
 Kpt  Band  Eigenvalues  Occupancy
  0   360      1.07714    0.13516
  0   361      1.09907    0.12147
  0   362      1.13151    0.10148
  0   363      1.15825    0.08585

  1   360      1.00526    0.17679
  1   361      1.01654    0.17081
  1   362      1.05924    0.14616
  1   363      1.07948    0.13370



Forces in eV/Ang:
  0 Pd   -0.12219    0.32274   -0.34774
  1 Ir    0.95134    0.69874    0.62423
  2 Ru   -1.07892    0.29222    0.69992
  3 Ru    0.43407    0.29450    1.60992
  4 Ir   -0.56189   -0.79620    1.17083
  5 Pt    0.15166    0.16468    0.05733
  6 Pd   -0.49411   -0.41607   -0.24204
  7 Pd    0.38495   -0.25513   -0.57493
  8 Ru    0.33606   -0.16282    0.56971
  9 Ag   -0.25388   -0.09126    0.06481
 10 Ag   -0.02190   -0.11301    0.06375
 11 Ag    0.08624   -0.16486   -0.11535
 12 Pt    0.05164    0.76518   -0.49945
 13 Pt    0.13313    0.56275   -0.71104
 14 Pt   -0.09942    0.19596   -0.14303
 15 Ru   -0.39714   -0.72358   -0.96736
 16 Pt   -0.41236    0.13078   -0.08289
 17 Ir    0.92199   -0.11421   -1.01394
 18 Pt   -0.05626    0.01947    0.05388
 19 Ag    0.03928    0.01196    0.02431
 20 Pd    0.02258    0.00085    0.06085
 21 Ag    0.00030   -0.01086   -0.01821
 22 Ru    0.01912   -0.02472    0.04942
 23 Pd   -0.03069   -0.01740    0.04114
 24 Ir    0.00829   -0.01054   -0.00243
 25 Ir    0.01007   -0.05379    0.04858
 26 Pt    0.00203   -0.02543   -0.01233
 27 Ir   -0.02313    0.01973    0.27317
 28 Pd    0.00287   -0.03506   -0.11459
 29 Ag   -0.00145   -0.04777    0.13484
 30 Pd   -0.00553   -0.01784   -0.04145
 31 Pd    0.00217    0.00185   -0.04584
 32 Pd    0.02115   -0.05127    0.07891
 33 Ru    0.02362   -0.00605   -0.00230
 34 Pd    0.04613   -0.04877   -0.05577
 35 Ir   -0.01089    0.00019   -0.09762
 36 Ir    0.07598   -0.20077    0.07043
 37 Pt    0.06689    0.06151   -0.02540
 38 Ag    0.05828   -0.00611   -0.00415
 39 Pd    0.09197   -0.07661   -0.09847
 40 Pd   -0.07108   -0.01840    0.03065
 41 Ir   -0.12116    0.21317   -0.70849
 42 Ag   -0.04794   -0.03790    0.01284
 43 Ir    0.02473    0.03493    0.02758
 44 Ir    0.08350    0.15267   -0.01863
 45 O    -0.47315   -0.73130    0.11282
 46 H     0.38813    0.40185   -0.08425

System changes: positions 

Initializing position-dependent things.

Density initialized from wave functions
                                             
                                             
                                             
                                             
                                             
                                             
                             H               
                           O                 
                  Ag     Ir    Ir            
             Pd     Pd     Ir                
                   Ru     Pd     Ir          
        Ir    Pt    PAg    Pd                
                                             
        Ir     Pd    IAg    Ir     Pt        
                Ag      Ru    Pd             
                                             
           Pt     Ag    PPd    Ir            
                                             
             Pt    Pt     Pt    Ru           
        Ag    Ag     Ag                      
              Ru    Ir     Pt                
         Pd    Ir     Ru                     
                                             
                                             
                                             
                                             
                                             

Positions:
   0 Pd     0.000000    1.624086   10.000000    ( 0.0000,  0.0000,  0.0000)
   1 Ir     2.812999    1.624086   10.000000    ( 0.0000,  0.0000,  0.0000)
   2 Ru     5.625998    1.624086   10.000000    ( 0.0000,  0.0000,  0.0000)
   3 Ru     1.406500    4.060215   10.000000    ( 0.0000,  0.0000,  0.0000)
   4 Ir     4.219499    4.060215   10.000000    ( 0.0000,  0.0000,  0.0000)
   5 Pt     7.032498    4.060215   10.000000    ( 0.0000,  0.0000,  0.0000)
   6 Pd     2.812999    6.496343   10.000000    ( 0.0000,  0.0000,  0.0000)
   7 Pd     5.625998    6.496343   10.000000    ( 0.0000,  0.0000,  0.0000)
   8 Ru     8.438997    6.496343   10.000000    ( 0.0000,  0.0000,  0.0000)
   9 Ag     0.000000    0.000000   12.296804    ( 0.0000,  0.0000,  0.0000)
  10 Ag     2.812999    0.000000   12.296804    ( 0.0000,  0.0000,  0.0000)
  11 Ag     5.625998    0.000000   12.296804    ( 0.0000,  0.0000,  0.0000)
  12 Pt     1.406500    2.436129   12.296804    ( 0.0000,  0.0000,  0.0000)
  13 Pt     4.219499    2.436129   12.296804    ( 0.0000,  0.0000,  0.0000)
  14 Pt     7.032498    2.436129   12.296804    ( 0.0000,  0.0000,  0.0000)
  15 Ru     2.812999    4.872257   12.296804    ( 0.0000,  0.0000,  0.0000)
  16 Pt     5.625998    4.872257   12.296804    ( 0.0000,  0.0000,  0.0000)
  17 Ir     8.438997    4.872257   12.296804    ( 0.0000,  0.0000,  0.0000)
  18 Pt     1.327781    0.735597   14.664175    ( 0.0000,  0.0000,  0.0000)
  19 Ag     4.189138    0.786596   14.654835    ( 0.0000,  0.0000,  0.0000)
  20 Pd     7.007212    0.853317   14.640749    ( 0.0000,  0.0000,  0.0000)
  21 Ag     2.799256    3.192809   14.639374    ( 0.0000,  0.0000,  0.0000)
  22 Ru     5.669358    3.367035   14.483972    ( 0.0000,  0.0000,  0.0000)
  23 Pd     8.439776    3.200929   14.587847    ( 0.0000,  0.0000,  0.0000)
  24 Ir     4.208198    5.606043   14.567856    ( 0.0000,  0.0000,  0.0000)
  25 Ir     7.026279    5.565566   14.577445    ( 0.0000,  0.0000,  0.0000)
  26 Pt     9.855350    5.655983   14.595642    ( 0.0000,  0.0000,  0.0000)
  27 Ir    -0.121849    1.528516   17.047258    ( 0.0000,  0.0000,  0.0000)
  28 Pd     2.743789    1.582117   16.957211    ( 0.0000,  0.0000,  0.0000)
  29 Ag     5.552321    1.595032   16.975293    ( 0.0000,  0.0000,  0.0000)
  30 Pd     1.398451    4.014835   16.959506    ( 0.0000,  0.0000,  0.0000)
  31 Pd     4.189611    4.096214   16.882201    ( 0.0000,  0.0000,  0.0000)
  32 Pd     7.022054    3.889847   16.816738    ( 0.0000,  0.0000,  0.0000)
  33 Ru     2.845802    6.540780   16.753623    ( 0.0000,  0.0000,  0.0000)
  34 Pd     5.673810    6.445014   16.774152    ( 0.0000,  0.0000,  0.0000)
  35 Ir     8.550296    6.376853   16.898849    ( 0.0000,  0.0000,  0.0000)
  36 Ir     0.101612   -0.122519   18.975926    ( 0.0000,  0.0000,  0.0000)
  37 Pt     2.837060   -0.077438   19.130765    ( 0.0000,  0.0000,  0.0000)
  38 Ag     5.670232   -0.003465   19.396070    ( 0.0000,  0.0000,  0.0000)
  39 Pd     1.409090    2.353885   19.240214    ( 0.0000,  0.0000,  0.0000)
  40 Pd     4.273321    2.516294   19.253313    ( 0.0000,  0.0000,  0.0000)
  41 Ir     7.175240    2.631549   19.236814    ( 0.0000,  0.0000,  0.0000)
  42 Ag     2.792060    4.880100   19.382417    ( 0.0000,  0.0000,  0.0000)
  43 Ir     5.694613    4.935246   19.032470    ( 0.0000,  0.0000,  0.0000)
  44 Ir     8.307983    4.913690   18.979626    ( 0.0000,  0.0000,  0.0000)
  45 O      7.173148    2.423369   21.210202    ( 0.0000,  0.0000,  0.0000)
  46 H      7.779042    3.123501   21.595052    ( 0.0000,  0.0000,  0.0000)

Unit cell:
           periodic     x           y           z      points  spacing
  1. axis:    yes    8.465341    0.000000    0.000000    35     0.2095
  2. axis:    yes    4.232670    7.331200    0.000000    35     0.2095
  3. axis:    no     0.000000    0.000000   29.187217   135     0.2162

  Lengths:   8.465341   8.465341  29.187217
  Angles:   90.000000  90.000000  60.000000

Effective grid spacing dv^(1/3) = 0.2221

                     log10-error:    total        iterations:
           time      wfs    density  energy       fermi  poisson
iter:   1  17:49:01  -2.03   +inf  -240.536843    3             
iter:   2  17:50:06  -1.92  -2.11  -273.142569    36            
iter:   3  17:51:11  -2.42  -1.45  -240.557868    37            
iter:   4  17:52:16  -2.94  -2.19  -239.506241    3             
iter:   5  17:53:21  -3.88  -2.53  -239.386130    3             
iter:   6  17:54:26  -4.10  -2.84  -239.371146    3             
iter:   7  17:55:31  -4.29  -2.83  -239.359517    3             
iter:   8  17:56:36  -4.83  -2.98  -239.345780    3             
iter:   9  17:57:40  -4.95  -3.11  -239.345073    2             
iter:  10  17:58:45  -4.68  -3.12  -239.344194    2             
iter:  11  17:59:50  -4.83  -3.20  -239.349642    3             
iter:  12  18:00:53  -5.10  -3.01  -239.339235    3             
iter:  13  18:01:55  -5.60  -3.36  -239.339453    2             
iter:  14  18:03:03  -5.99  -3.36  -239.337461    2             
iter:  15  18:04:11  -5.93  -3.52  -239.338049    2             
iter:  16  18:05:18  -5.74  -3.60  -239.338406    2             
iter:  17  18:06:27  -6.09  -3.56  -239.336678    2             
iter:  18  18:07:36  -5.96  -3.65  -239.338034    2             
iter:  19  18:08:45  -6.18  -3.70  -239.337765    2             
iter:  20  18:09:54  -6.33  -3.70  -239.337042    2             
iter:  21  18:10:58  -6.73  -3.84  -239.337090    2             
iter:  22  18:11:59  -7.14  -4.08  -239.336864    2             
iter:  23  18:13:01  -6.77  -4.20  -239.336650    2             
iter:  24  18:14:03  -7.26  -4.06  -239.336930    2             
iter:  25  18:15:04  -7.15  -4.35  -239.336700    2             
iter:  26  18:16:01  -7.68  -4.55  -239.336759    2             

Converged after 26 iterations.

Dipole moment: (19.125936, 19.970480, 0.019238) |e|*Ang

Energy contributions relative to reference atoms: (reference = -12877860.274276)

Kinetic:       -224.441121
Potential:      +99.345162
External:        +0.000000
XC:            -106.236305
Entropy (-ST):   -2.234913
Local:           -6.887038
--------------------------
Free energy:   -240.454215
Extrapolated:  -239.336759

Fermi level: 1.07063

Showing only first 2 kpts
 Kpt  Band  Eigenvalues  Occupancy
  0   360      1.05488    0.13483
  0   361      1.07855    0.12006
  0   362      1.11102    0.10010
  0   363      1.13561    0.08576

  1   360      0.98263    0.17671
  1   361      0.99505    0.17011
  1   362      1.03409    0.14759
  1   363      1.05399    0.13538



Forces in eV/Ang:
  0 Pd   -0.12208    0.32313   -0.34820
  1 Ir    0.95280    0.69929    0.62864
  2 Ru   -1.07500    0.29193    0.69847
  3 Ru    0.43902    0.29417    1.59051
  4 Ir   -0.56393   -0.79766    1.15593
  5 Pt    0.15220    0.17019    0.05503
  6 Pd   -0.49744   -0.41574   -0.24331
  7 Pd    0.38672   -0.25313   -0.57872
  8 Ru    0.33446   -0.17118    0.57358
  9 Ag   -0.25306   -0.08471    0.08723
 10 Ag   -0.02735   -0.11946    0.10999
 11 Ag    0.09485   -0.15817   -0.09493
 12 Pt    0.02814    0.75783   -0.47281
 13 Pt    0.14132    0.55854   -0.70178
 14 Pt   -0.08858    0.18620   -0.10483
 15 Ru   -0.39531   -0.72049   -0.96264
 16 Pt   -0.39817    0.09586   -0.03801
 17 Ir    0.91520   -0.13181   -0.99863
 18 Pt   -0.03555    0.02409   -0.00779
 19 Ag    0.04006    0.02056   -0.01092
 20 Pd   -0.02619    0.01685    0.05051
 21 Ag   -0.00006   -0.00532   -0.04659
 22 Ru   -0.00565   -0.00651   -0.00291
 23 Pd   -0.00201    0.00565   -0.01229
 24 Ir   -0.00241   -0.00364   -0.02288
 25 Ir    0.04588   -0.00688    0.01542
 26 Pt    0.02263    0.00708   -0.02616
 27 Ir    0.13254   -0.12212    0.08217
 28 Pd    0.03152   -0.02337   -0.05103
 29 Ag   -0.17752   -0.12046   -0.04533
 30 Pd    0.00517    0.01028   -0.01331
 31 Pd    0.01540   -0.00876    0.00811
 32 Pd   -0.05129    0.25438   -0.19623
 33 Ru    0.05569   -0.07064    0.04777
 34 Pd    0.02533   -0.07303    0.08026
 35 Ir    0.01460    0.00746   -0.07782
 36 Ir    0.03886   -0.13001    0.01895
 37 Pt    0.03361    0.10904   -0.04309
 38 Ag    0.09552    0.05546    0.01738
 39 Pd   -0.15931   -0.05510    0.04812
 40 Pd    0.01450   -0.02789    0.02498
 41 Ir   -0.13412   -0.23050    0.02608
 42 Ag   -0.03553   -0.04557   -0.00098
 43 Ir    0.10566   -0.00054    0.01264
 44 Ir    0.03670    0.02456    0.05024
 45 O     0.23131    0.26609   -0.13019
 46 H    -0.35061   -0.46034   -0.21719

System changes: positions 

Initializing position-dependent things.

Density initialized from wave functions
                                             
                                             
                                             
                                             
                                             
                                             
                            H                
                           O                 
                  Ag     Ir    Ir            
            Pd      Pd     Ir                
                   Ru     Pd     Ir          
        Ir    Pt    PAg    Pd                
                                             
        Ir     Pd    IAg    Ir     Pt        
                Ag      Ru    Pd             
                                             
           Pt     Ag    PPd    Ir            
                                             
             Pt    Pt    PPt    Ru           
        Ag    Ag    IAg    Pt                
                                             
         Pd    Ir     Ru                     
[...]
  30 Pd     1.396040    4.000215   16.953574    ( 0.0000,  0.0000,  0.0000)
  31 Pd     4.195298    4.081291   16.888617    ( 0.0000,  0.0000,  0.0000)
  32 Pd     7.021274    3.907975   16.777709    ( 0.0000,  0.0000,  0.0000)
  33 Ru     2.858342    6.513000   16.766537    ( 0.0000,  0.0000,  0.0000)
  34 Pd     5.693854    6.427813   16.774535    ( 0.0000,  0.0000,  0.0000)
  35 Ir     8.560685    6.363602   16.880921    ( 0.0000,  0.0000,  0.0000)
  36 Ir     0.118811   -0.201541   18.983204    ( 0.0000,  0.0000,  0.0000)
  37 Pt     2.875481   -0.057646   19.109037    ( 0.0000,  0.0000,  0.0000)
  38 Ag     5.721426    0.001922   19.399582    ( 0.0000,  0.0000,  0.0000)
  39 Pd     1.351217    2.324462   19.254239    ( 0.0000,  0.0000,  0.0000)
  40 Pd     4.265837    2.496318   19.254814    ( 0.0000,  0.0000,  0.0000)
  41 Ir     7.118207    2.600063   19.184164    ( 0.0000,  0.0000,  0.0000)
  42 Ag     2.768258    4.835835   19.381943    ( 0.0000,  0.0000,  0.0000)
  43 Ir     5.738293    4.921545   19.030318    ( 0.0000,  0.0000,  0.0000)
  44 Ir     8.322372    4.899721   18.972951    ( 0.0000,  0.0000,  0.0000)
  45 O      7.106673    2.329788   21.143600    ( 0.0000,  0.0000,  0.0000)
  46 H      7.714881    3.005763   21.525887    ( 0.0000,  0.0000,  0.0000)

Unit cell:
           periodic     x           y           z      points  spacing
  1. axis:    yes    8.465341    0.000000    0.000000    35     0.2095
  2. axis:    yes    4.232670    7.331200    0.000000    35     0.2095
  3. axis:    no     0.000000    0.000000   29.187217   135     0.2162

  Lengths:   8.465341   8.465341  29.187217
  Angles:   90.000000  90.000000  60.000000

Effective grid spacing dv^(1/3) = 0.2221

                     log10-error:    total        iterations:
           time      wfs    density  energy       fermi  poisson
iter:   1  19:27:35  -3.07   +inf  -240.953662    2             
iter:   2  19:28:32  -1.71  -2.06  -301.864120    36            
iter:   3  19:29:28  -2.07  -1.35  -240.812476    37            
iter:   4  19:30:25  -3.04  -2.14  -239.488062    3             
iter:   5  19:31:22  -4.10  -2.82  -239.448520    2             
iter:   6  19:32:21  -4.64  -2.96  -239.426065    2             
iter:   7  19:33:20  -5.04  -3.33  -239.421770    2             
iter:   8  19:34:19  -5.55  -3.51  -239.424015    2             
iter:   9  19:35:19  -5.63  -3.27  -239.421689    2             
iter:  10  19:36:20  -5.64  -3.55  -239.420507    2             
iter:  11  19:37:20  -5.76  -3.57  -239.419919    2             
iter:  12  19:38:19  -6.03  -3.82  -239.419391    2             
iter:  13  19:39:19  -6.55  -3.92  -239.419337    2             
iter:  14  19:40:19  -6.45  -4.04  -239.419526    2             
iter:  15  19:41:19  -6.57  -4.12  -239.419328    2             
iter:  16  19:42:18  -7.02  -3.94  -239.419465    2             
iter:  17  19:43:16  -7.07  -4.35  -239.419491    2             
iter:  18  19:44:15  -7.24  -4.35  -239.419299    2             
iter:  19  19:45:14  -7.60  -4.36  -239.419394    2             

Converged after 19 iterations.

Dipole moment: (20.143758, 20.880304, 0.036599) |e|*Ang

Energy contributions relative to reference atoms: (reference = -12877860.274276)

Kinetic:       -221.541294
Potential:      +97.012189
External:        +0.000000
XC:            -106.882070
Entropy (-ST):   -2.222943
Local:           -6.896747
--------------------------
Free energy:   -240.530866
Extrapolated:  -239.419394

Fermi level: 1.07798

Showing only first 2 kpts
 Kpt  Band  Eigenvalues  Occupancy
  0   360      1.06989    0.13005
  0   361      1.08825    0.11859
  0   362      1.11798    0.10033
  0   363      1.13885    0.08809

  1   360      0.99359    0.17482
  1   361      1.00326    0.16964
  1   362      1.03676    0.15040
  1   363      1.05936    0.13660



Forces in eV/Ang:
  0 Pd   -0.12397    0.32185   -0.35607
  1 Ir    0.94643    0.69682    0.61039
  2 Ru   -1.07199    0.29084    0.68370
  3 Ru    0.45037    0.29380    1.57299
  4 Ir   -0.56316   -0.79977    1.13176
  5 Pt    0.15496    0.16989    0.04844
  6 Pd   -0.49621   -0.41474   -0.25316
  7 Pd    0.38507   -0.25255   -0.58872
  8 Ru    0.33568   -0.17954    0.55249
  9 Ag   -0.27081   -0.07689    0.11092
 10 Ag   -0.04608   -0.10171    0.06842
 11 Ag    0.13238   -0.14281   -0.10272
 12 Pt    0.02314    0.73708   -0.51123
 13 Pt    0.15080    0.56572   -0.75368
 14 Pt   -0.09321    0.15132   -0.09919
 15 Ru   -0.37849   -0.71799   -1.00289
 16 Pt   -0.39460    0.12236   -0.08675
 17 Ir    0.93148   -0.12601   -1.03104
 18 Pt    0.01163    0.02434   -0.00639
 19 Ag   -0.01130   -0.00969    0.03638
 20 Pd    0.00745   -0.01687   -0.05439
 21 Ag    0.01004   -0.01038    0.01845
 22 Ru    0.01590   -0.02123    0.01934
 23 Pd    0.00519   -0.00611   -0.00510
 24 Ir    0.00033   -0.00463   -0.00459
 25 Ir    0.00131   -0.03978    0.02390
 26 Pt   -0.02172   -0.00586    0.00399
 27 Ir   -0.01546   -0.00465    0.02161
 28 Pd   -0.00029   -0.02050    0.03164
 29 Ag    0.00024    0.00839   -0.00852
 30 Pd   -0.00031   -0.02235   -0.02319
 31 Pd    0.00181    0.01567   -0.02284
 32 Pd    0.01552   -0.07314    0.03599
 33 Ru   -0.00936    0.02333   -0.03055
 34 Pd    0.00192   -0.00906   -0.00109
 35 Ir    0.00982   -0.01471    0.01606
 36 Ir    0.03137    0.01509   -0.04924
 37 Pt   -0.02533   -0.08110   -0.00056
 38 Ag   -0.03869   -0.06351   -0.03064
 39 Pd    0.02794   -0.03807   -0.02402
 40 Pd   -0.01577   -0.05536   -0.02020
 41 Ir    0.03204    0.02766    0.03381
 42 Ag    0.01293   -0.01966    0.01195
 43 Ir   -0.05750    0.00072   -0.03075
 44 Ir   -0.00627   -0.05057    0.00371
 45 O    -0.00747   -0.10159   -0.01932
 46 H     0.05628    0.00506    0.13416

System changes: positions 

Initializing position-dependent things.

Density initialized from wave functions
                                             
                                             
                                             
                                             
                                             
                                             
                            H                
                          O                  
                 Ag      Ir    Ir            
            Pd      Pd     Ir                
                   Ru     Pd     Ir          
        Ir    PPt   PAg    Pd                
                                             
        Ir     Pd    IAg    Ir     Pt        
                Ag      Ru    Pd             
                                             
           Pt     Ag    PPd    Ir            
                                             
             Pt    Pt     Pt    Ru           
        Ag    Ag    IAg    Pt                
                                             
         Pd    Ir     Ru                     
                                             
                                             
                                             
                                             
                                             

Positions:
   0 Pd     0.000000    1.624086   10.000000    ( 0.0000,  0.0000,  0.0000)
   1 Ir     2.812999    1.624086   10.000000    ( 0.0000,  0.0000,  0.0000)
   2 Ru     5.625998    1.624086   10.000000    ( 0.0000,  0.0000,  0.0000)
   3 Ru     1.406500    4.060215   10.000000    ( 0.0000,  0.0000,  0.0000)
   4 Ir     4.219499    4.060215   10.000000    ( 0.0000,  0.0000,  0.0000)
   5 Pt     7.032498    4.060215   10.000000    ( 0.0000,  0.0000,  0.0000)
   6 Pd     2.812999    6.496343   10.000000    ( 0.0000,  0.0000,  0.0000)
   7 Pd     5.625998    6.496343   10.000000    ( 0.0000,  0.0000,  0.0000)
   8 Ru     8.438997    6.496343   10.000000    ( 0.0000,  0.0000,  0.0000)
   9 Ag     0.000000    0.000000   12.296804    ( 0.0000,  0.0000,  0.0000)
  10 Ag     2.812999    0.000000   12.296804    ( 0.0000,  0.0000,  0.0000)
  11 Ag     5.625998    0.000000   12.296804    ( 0.0000,  0.0000,  0.0000)
  12 Pt     1.406500    2.436129   12.296804    ( 0.0000,  0.0000,  0.0000)
  13 Pt     4.219499    2.436129   12.296804    ( 0.0000,  0.0000,  0.0000)
  14 Pt     7.032498    2.436129   12.296804    ( 0.0000,  0.0000,  0.0000)
  15 Ru     2.812999    4.872257   12.296804    ( 0.0000,  0.0000,  0.0000)
  16 Pt     5.625998    4.872257   12.296804    ( 0.0000,  0.0000,  0.0000)
  17 Ir     8.438997    4.872257   12.296804    ( 0.0000,  0.0000,  0.0000)
  18 Pt     1.324832    0.734628   14.664567    ( 0.0000,  0.0000,  0.0000)
  19 Ag     4.189297    0.787481   14.646303    ( 0.0000,  0.0000,  0.0000)
  20 Pd     7.010176    0.853005   14.648462    ( 0.0000,  0.0000,  0.0000)
  21 Ag     2.803163    3.190958   14.634906    ( 0.0000,  0.0000,  0.0000)
  22 Ru     5.671400    3.366229   14.477508    ( 0.0000,  0.0000,  0.0000)
  23 Pd     8.446404    3.199905   14.574179    ( 0.0000,  0.0000,  0.0000)
  24 Ir     4.214521    5.603241   14.568949    ( 0.0000,  0.0000,  0.0000)
  25 Ir     7.040423    5.569110   14.566113    ( 0.0000,  0.0000,  0.0000)
  26 Pt     9.870286    5.656288   14.590112    ( 0.0000,  0.0000,  0.0000)
  27 Ir    -0.121122    1.490011   17.057590    ( 0.0000,  0.0000,  0.0000)
  28 Pd     2.728557    1.584069   16.956505    ( 0.0000,  0.0000,  0.0000)
  29 Ag     5.528511    1.579125   16.948035    ( 0.0000,  0.0000,  0.0000)
  30 Pd     1.396086    3.996202   16.950318    ( 0.0000,  0.0000,  0.0000)
  31 Pd     4.195136    4.084962   16.885460    ( 0.0000,  0.0000,  0.0000)
  32 Pd     7.024869    3.893353   16.781833    ( 0.0000,  0.0000,  0.0000)
  33 Ru     2.853968    6.518098   16.759201    ( 0.0000,  0.0000,  0.0000)
  34 Pd     5.693662    6.428590   16.772818    ( 0.0000,  0.0000,  0.0000)
  35 Ir     8.563544    6.360734   16.889078    ( 0.0000,  0.0000,  0.0000)
  36 Ir     0.119909   -0.187661   18.972733    ( 0.0000,  0.0000,  0.0000)
  37 Pt     2.867601   -0.079981   19.110501    ( 0.0000,  0.0000,  0.0000)
  38 Ag     5.711078   -0.012161   19.393392    ( 0.0000,  0.0000,  0.0000)
  39 Pd     1.353949    2.320035   19.253550    ( 0.0000,  0.0000,  0.0000)
  40 Pd     4.265666    2.485216   19.249049    ( 0.0000,  0.0000,  0.0000)
  41 Ir     7.127767    2.598028   19.192563    ( 0.0000,  0.0000,  0.0000)
  42 Ag     2.772897    4.833177   19.384257    ( 0.0000,  0.0000,  0.0000)
  43 Ir     5.725192    4.919121   19.022685    ( 0.0000,  0.0000,  0.0000)
  44 Ir     8.316946    4.880725   18.973636    ( 0.0000,  0.0000,  0.0000)
  45 O      7.116570    2.330787   21.154490    ( 0.0000,  0.0000,  0.0000)
  46 H      7.718949    2.998464   21.566911    ( 0.0000,  0.0000,  0.0000)

Unit cell:
           periodic     x           y           z      points  spacing
  1. axis:    yes    8.465341    0.000000    0.000000    35     0.2095
  2. axis:    yes    4.232670    7.331200    0.000000    35     0.2095
  3. axis:    no     0.000000    0.000000   29.187217   135     0.2162

  Lengths:   8.465341   8.465341  29.187217
  Angles:   90.000000  90.000000  60.000000

Effective grid spacing dv^(1/3) = 0.2221

                     log10-error:    total        iterations:
           time      wfs    density  energy       fermi  poisson
iter:   1  19:46:40  -2.86   +inf  -239.492024    3             
iter:   2  19:47:39  -3.45  -2.80  -240.585082    3             
iter:   3  19:48:37  -3.72  -2.11  -239.455360    3             
iter:   4  19:49:35  -4.49  -2.88  -239.443356    3             
iter:   5  19:50:33  -5.03  -3.05  -239.429914    3             
iter:   6  19:51:31  -5.28  -3.31  -239.427829    2             
iter:   7  19:52:30  -5.19  -3.42  -239.427099    2             
iter:   8  19:53:29  -5.34  -3.53  -239.426625    2             
iter:   9  19:54:28  -5.39  -3.66  -239.437019    2             
iter:  10  19:55:33  -5.71  -3.15  -239.427161    2             
iter:  11  19:56:41  -6.13  -3.63  -239.426304    2             
iter:  12  19:57:49  -6.30  -3.74  -239.427041    2             
iter:  13  19:58:57  -6.47  -3.84  -239.426623    2             
iter:  14  19:59:57  -6.69  -3.96  -239.426671    2             
iter:  15  20:00:55  -6.60  -4.00  -239.426935    2             
iter:  16  20:01:54  -6.57  -3.89  -239.427227    2             
iter:  17  20:02:53  -6.54  -3.68  -239.426297    2             
iter:  18  20:03:52  -6.91  -4.07  -239.426745    2             
iter:  19  20:04:51  -7.27  -4.24  -239.426561    2             
iter:  20  20:05:49  -7.60  -4.43  -239.426551    2             

Converged after 20 iterations.

Dipole moment: (20.502831, 21.967390, 0.045254) |e|*Ang

Energy contributions relative to reference atoms: (reference = -12877860.274276)

Kinetic:       -220.689180
Potential:      +96.245314
External:        +0.000000
XC:            -106.976063
Entropy (-ST):   -2.222739
Local:           -6.895253
--------------------------
Free energy:   -240.537921
Extrapolated:  -239.426551

Fermi level: 1.08270

Showing only first 2 kpts
 Kpt  Band  Eigenvalues  Occupancy
  0   360      1.07133    0.13210
  0   361      1.09165    0.11941
  0   362      1.12276    0.10029
  0   363      1.14456    0.08752

  1   360      0.99761    0.17519
  1   361      1.00816    0.16954
  1   362      1.04180    0.15021
  1   363      1.06527    0.13587



Forces in eV/Ang:
  0 Pd   -0.12410    0.32210   -0.34712
  1 Ir    0.94499    0.69936    0.62387
  2 Ru   -1.07202    0.29246    0.69450
  3 Ru    0.44797    0.29306    1.58202
  4 Ir   -0.56246   -0.79815    1.14874
  5 Pt    0.15322    0.16865    0.05529
  6 Pd   -0.49600   -0.41517   -0.24171
  7 Pd    0.38462   -0.25284   -0.57977
  8 Ru    0.33623   -0.17870    0.56666
  9 Ag   -0.25879   -0.08846    0.09303
 10 Ag   -0.03643   -0.10998    0.07965
 11 Ag    0.11137   -0.14958   -0.10683
 12 Pt    0.04505    0.74522   -0.51613
 13 Pt    0.14567    0.56156   -0.73576
 14 Pt   -0.09684    0.16157   -0.12642
 15 Ru   -0.37865   -0.72362   -0.99220
 16 Pt   -0.39506    0.11140   -0.07169
 17 Ir    0.93575   -0.11956   -1.03547
 18 Pt   -0.01228   -0.00998    0.02007
 19 Ag    0.00587   -0.01989   -0.00283
 20 Pd   -0.00987   -0.01219   -0.00885
 21 Ag    0.00829   -0.00154   -0.02372
 22 Ru   -0.00303   -0.00245   -0.00830
 23 Pd   -0.00084   -0.01082    0.00809
 24 Ir    0.00162   -0.00435   -0.02361
 25 Ir   -0.00455   -0.01803    0.01574
 26 Pt   -0.01246   -0.01659   -0.02343
 27 Ir    0.01367    0.01961    0.02910
 28 Pd    0.02405   -0.03813   -0.01205
 29 Ag   -0.01106   -0.03137    0.03622
 30 Pd    0.01235   -0.01498   -0.00014
 31 Pd   -0.00977    0.00395   -0.01075
 32 Pd   -0.01079    0.01731   -0.01437
 33 Ru    0.00817   -0.01266   -0.01170
 34 Pd    0.01328   -0.03343   -0.05426
 35 Ir   -0.01065   -0.03180   -0.00794
 36 Ir   -0.03245   -0.06695    0.04640
 37 Pt    0.01069   -0.00531    0.00131
 38 Ag   -0.00774   -0.02887   -0.03577
 39 Pd    0.03119   -0.03234   -0.01315
 40 Pd   -0.00374   -0.04691   -0.00838
 41 Ir   -0.03183   -0.05519    0.06455
 42 Ag    0.01816   -0.00955   -0.00994
 43 Ir   -0.01628   -0.05068    0.01213
 44 Ir    0.03337    0.05728   -0.00529
 45 O    -0.01172   -0.01935   -0.07414
 46 H    -0.01308   -0.05503   -0.03078

Timing:                                      incl.     excl.
-------------------------------------------------------------------
Density initialized from wave functions:    34.849    34.848   0.2% |
 Symmetrize density:                         0.001     0.001   0.0% |
Forces:                                    189.066   189.066   0.9% |
Hamiltonian:                                30.542     0.135   0.0% |
 Atomic:                                     5.704     2.622   0.0% |
  XC Correction:                             3.082     3.082   0.0% |
 Calculate atomic Hamiltonians:             12.663    12.663   0.1% |
 Communicate:                                2.098     2.098   0.0% |
 Initialize Hamiltonian:                     0.001     0.001   0.0% |
 Poisson:                                    0.067     0.067   0.0% |
 XC 3D grid:                                 9.874     9.874   0.0% |
LCAO initialization:                        58.630     2.642   0.0% |
 LCAO eigensolver:                           7.864     0.003   0.0% |
  Calculate projections:                     0.058     0.058   0.0% |
  DenseAtomicCorrection:                     0.036     0.036   0.0% |
  Distribute overlap matrix:                 4.081     4.081   0.0% |
  Orbital Layouts:                           1.109     1.109   0.0% |
  Potential matrix:                          2.525     2.525   0.0% |
  Sum over cells:                            0.052     0.052   0.0% |
 LCAO to grid:                              45.017    45.017   0.2% |
 Set positions (LCAO WFS):                   3.107     2.525   0.0% |
  Basic WFS set positions:                   0.001     0.001   0.0% |
  Basis functions set positions:             0.000     0.000   0.0% |
  P tci:                                     0.289     0.289   0.0% |
  ST tci:                                    0.221     0.221   0.0% |
  mktci:                                     0.071     0.071   0.0% |
PWDescriptor:                                0.190     0.190   0.0% |
Redistribute:                                0.190     0.190   0.0% |
SCF-cycle:                               20843.410  1728.209   8.1% |--|
 Davidson:                               17246.591  4078.418  19.2% |-------|
  Apply H:                                2840.764  2745.678  12.9% |----|
   HMM T:                                   95.086    95.086   0.4% |
  Subspace diag:                          2487.847     0.111   0.0% |
   calc_h_matrix:                         1411.642   454.752   2.1% ||
    Apply H:                               956.889   924.416   4.4% |-|
     HMM T:                                 32.473    32.473   0.2% |
   diagonalize:                             67.325    67.325   0.3% |
   rotate_psi:                            1008.770  1008.770   4.7% |-|
  calc. matrices:                         4967.747  3089.002  14.5% |-----|
   Apply H:                               1878.746  1815.111   8.5% |--|
    HMM T:                                  63.635    63.635   0.3% |
  diagonalize:                             864.916   864.916   4.1% |-|
  rotate_psi:                             2006.900  2006.900   9.4% |---|
 Density:                                  994.455     0.022   0.0% |
  Atomic density matrices:                   5.898     5.898   0.0% |
  Mix:                                     416.317   416.317   2.0% ||
  Multipole moments:                         0.328     0.328   0.0% |
  Pseudo density:                          571.890   571.865   2.7% ||
   Symmetrize density:                       0.025     0.025   0.0% |
 Hamiltonian:                              812.675     3.500   0.0% |
  Atomic:                                  161.869    78.721   0.4% |
   XC Correction:                           83.148    83.148   0.4% |
  Calculate atomic Hamiltonians:           337.641   337.641   1.6% ||
  Communicate:                              55.551    55.551   0.3% |
  Poisson:                                   1.765     1.765   0.0% |
  XC 3D grid:                              252.349   252.349   1.2% |
 Orthonormalize:                            61.480     0.006   0.0% |
  calc_s_matrix:                             8.348     8.348   0.0% |
  inverse-cholesky:                          1.580     1.580   0.0% |
  projections:                              33.182    33.182   0.2% |
  rotate_psi_s:                             18.364    18.364   0.1% |
Set symmetry:                                0.001     0.001   0.0% |
Other:                                      91.134    91.134   0.4% |
-------------------------------------------------------------------
Total:                                             21248.011 100.0%

Date: Thu Mar  3 20:06:04 2022
