
  ___ ___ ___ _ _ _  
 |   |   |_  | | | | 
 | | | | | . | | | | 
 |__ |  _|___|_____|  1.5.1
 |___|_|             

User:   clausen@node506.cluster
Date:   Fri Mar  4 01:09:50 2022
Arch:   x86_64
Pid:    42099
Python: 3.6.12
gpaw:   /software/kemi/gpaw/1.5.1/gpaw
_gpaw:  /software/kemi/gpaw/1.5.1/bin/gpaw-python
ase:    /software/kemi/ase/3.17.0/ase (version 3.17.0)
numpy:  /opt/rh/rh-python36/root/usr/lib64/python3.6/site-packages/numpy (version 1.13.1)
scipy:  /opt/rh/rh-python36/root/usr/lib64/python3.6/site-packages/scipy (version 0.19.1)
units:  Angstrom and eV
cores:  16

Input parameters:
  kpts: [4 4 1]
  mode: {ecut: 400.0,
         gammacentered: False,
         name: pw}
  xc: RPBE

System changes: positions, numbers, cell, pbc, initial_charges, initial_magmoms 

Initialize ...

Pd-setup:
  name: Palladium
  id: 6da19bfba079f22767af9506641940b9
  Z: 46
  valence: 16
  core: 30
  charge: 0.0
  file: /software/kemi/gpaw-setups/0.9.20000/Pd.RPBE.gz
  cutoffs: 1.19(comp), 2.38(filt), 2.28(core), lmax=2
  valence states:
                energy  radius
    5s(0.00)    -3.225   1.228
    4p(6.00)   -51.131   1.360
    5p(0.00)    -0.373   1.360
    4d(10.00)    -3.964   1.228
    *s          23.987   1.228
    *d          23.247   1.228

  Using partial waves for Pd as LCAO basis

Ag-setup:
  name: Silver
  id: c05e55bab2c3858b3f9398f6d75cb77c
  Z: 47
  valence: 17
  core: 30
  charge: 0.0
  file: /software/kemi/gpaw-setups/0.9.20000/Ag.RPBE.gz
  cutoffs: 1.25(comp), 2.35(filt), 2.19(core), lmax=2
  valence states:
                energy  radius
    5s(1.00)    -4.277   1.286
    4p(6.00)   -58.523   1.328
    5p(0.00)    -0.755   1.328
    4d(10.00)    -7.386   1.180
    *s          22.934   1.286
    *d          19.826   1.180

  Using partial waves for Ag as LCAO basis

Pt-setup:
  name: Platinum
  id: f04f522592575c47ad794f6b4a415b4b
  Z: 78
  valence: 16
  core: 62
  charge: 0.0
  file: /software/kemi/gpaw-setups/0.9.20000/Pt.RPBE.gz
  cutoffs: 1.29(comp), 2.26(filt), 2.26(core), lmax=2
  valence states:
                energy  radius
    6s(1.00)    -5.516   1.307
    5p(6.00)   -55.971   1.371
    6p(0.00)    -0.856   1.371
    5d(9.00)    -6.087   1.307
    *s          21.695   1.307
    *d          21.125   1.307

  Using partial waves for Pt as LCAO basis

Ru-setup:
  name: Ruthenium
  id: 76477906e28f51dc1b29884d53556fe9
  Z: 44
  valence: 16
  core: 28
  charge: 0.0
  file: /software/kemi/gpaw-setups/0.9.20000/Ru.RPBE.gz
  cutoffs: 1.23(comp), 2.16(filt), 1.30(core), lmax=2
  valence states:
                energy  radius
    4s(2.00)   -76.255   1.281
    5s(1.00)    -4.126   1.281
    4p(6.00)   -46.371   1.286
    5p(0.00)    -0.913   1.286
    4d(7.00)    -5.146   1.254
    *d          22.066   1.254

  Using partial waves for Ru as LCAO basis

O-setup:
  name: Oxygen
  id: 08071ca1eed670e7821b24b7eb4d558c
  Z: 8
  valence: 6
  core: 2
  charge: 0.0
  file: /software/kemi/gpaw-setups/0.9.20000/O.RPBE.gz
  cutoffs: 0.67(comp), 1.17(filt), 0.83(core), lmax=2
  valence states:
                energy  radius
    2s(2.00)   -24.041   0.688
    2p(4.00)    -8.984   0.598
    *s           3.170   0.688
    *p          18.228   0.598
    *d           0.000   0.619

  Using partial waves for O as LCAO basis

Reference energy: -9073453.423555

Spin-paired calculation

Occupation numbers:
  Fermi-Dirac: width=0.1000 eV

Convergence criteria:
  Maximum total energy change: 0.0005 eV / electron
  Maximum integral of absolute density change: 0.0001 electrons
  Maximum integral of absolute eigenstate change: 4e-08 eV^2
  Maximum number of iterations: 333

Symmetries present (total): 1

  ( 1  0  0)
  ( 0  1  0)
  ( 0  0  1)

16 k-points: 4 x 4 x 1 Monkhorst-Pack grid
8 k-points in the irreducible part of the Brillouin zone
       k-points in crystal coordinates                weights
   0:     0.12500000   -0.37500000    0.00000000          2/16
   1:     0.12500000   -0.12500000    0.00000000          2/16
   2:     0.12500000    0.12500000    0.00000000          2/16
   3:     0.12500000    0.37500000    0.00000000          2/16
   4:     0.37500000   -0.37500000    0.00000000          2/16
   5:     0.37500000   -0.12500000    0.00000000          2/16
   6:     0.37500000    0.12500000    0.00000000          2/16
   7:     0.37500000    0.37500000    0.00000000          2/16

Wave functions: Plane wave expansion
  Cutoff energy: 400.000 eV
  Number of coefficients (min, max): 32266, 32339
  Pulay-stress correction: 0.000000 eV/Ang^3 (de/decut=0.000000)
  Using FFTW library
  ScaLapack parameters: grid=1x1, blocksize=None
  Wavefunction extrapolation:
    Improved wavefunction reuse through dual PAW basis 

Eigensolver
   Davidson(niter=2, smin=None, normalize=True) 

Densities:
  Coarse grid: 35*35*135 grid
  Fine grid: 70*70*270 grid
  Total Charge: 0.000000 

Density mixing:
  Method: separate
  Backend: pulay
  Linear mixing parameter: 0.05
  Mixing with 5 old densities
  Damping of long wave oscillations: 50 

Hamiltonian:
  XC and Coulomb potentials evaluated on a 70*70*270 grid
  Using the RPBE Exchange-Correlation functional
 

XC parameters: RPBE with 2 nearest neighbor stencil

Memory estimate:
  Process memory now: 152.50 MiB
  Calculator: 548.11 MiB
    Density: 48.38 MiB
      Arrays: 16.41 MiB
      Localized functions: 25.61 MiB
      Mixer: 6.36 MiB
    Hamiltonian: 11.51 MiB
      Arrays: 10.73 MiB
      XC: 0.00 MiB
      Poisson: 0.00 MiB
      vbar: 0.78 MiB
    Wavefunctions: 488.23 MiB
      Arrays psit_nG: 220.57 MiB
      Eigensolver: 253.54 MiB
      Projections: 2.81 MiB
      Projectors: 4.69 MiB
      PW-descriptor: 6.62 MiB

Total number of cores used: 16
Parallelization over k-points: 8
Domain decomposition: 1 x 1 x 2

Number of atoms: 46
Number of atomic orbitals: 551
Number of bands in calculation: 447
Bands to converge: occupied states only
Number of valence electrons: 738

... initialized

Initializing position-dependent things.

Density initialized from atomic densities
Creating initial wave functions:
  447 bands from LCAO basis set

                                             
                                             
                                             
                                             
                                             
                                             
                       O Pd                  
                 Pt            Ru            
            Pt    APd    PPd    Ru           
                                             
        Pd    Ru     Pd    Pt                
                                             
        Pt     Pd    PPd    Pd     Ag        
                Ag     Ag     Ag             
                                             
           Ag    PAg    APt    Pd            
                                             
            Pd     Ru     Ag     Pd          
       Ag     Ru     Ru                      
             Pd     Pd     Pt                
        Pd     Ag     Pt                     
                                             
                                             
                                             
                                             
                                             

Positions:
   0 Pd     0.000000    1.633958   10.000000    ( 0.0000,  0.0000,  0.0000)
   1 Ag     2.830098    1.633958   10.000000    ( 0.0000,  0.0000,  0.0000)
   2 Pt     5.660196    1.633958   10.000000    ( 0.0000,  0.0000,  0.0000)
   3 Pd     1.415049    4.084895   10.000000    ( 0.0000,  0.0000,  0.0000)
   4 Pd     4.245147    4.084895   10.000000    ( 0.0000,  0.0000,  0.0000)
   5 Pt     7.075245    4.084895   10.000000    ( 0.0000,  0.0000,  0.0000)
   6 Pd     2.830098    6.535832   10.000000    ( 0.0000,  0.0000,  0.0000)
   7 Ag     5.660196    6.535832   10.000000    ( 0.0000,  0.0000,  0.0000)
   8 Pd     8.490294    6.535832   10.000000    ( 0.0000,  0.0000,  0.0000)
   9 Ag     0.000000    0.000000   12.310765    ( 0.0000,  0.0000,  0.0000)
  10 Ru     2.830098    0.000000   12.310765    ( 0.0000,  0.0000,  0.0000)
  11 Ru     5.660196    0.000000   12.310765    ( 0.0000,  0.0000,  0.0000)
  12 Pd     1.415049    2.450937   12.310765    ( 0.0000,  0.0000,  0.0000)
  13 Ru     4.245147    2.450937   12.310765    ( 0.0000,  0.0000,  0.0000)
  14 Ag     7.075245    2.450937   12.310765    ( 0.0000,  0.0000,  0.0000)
  15 Pd     2.830098    4.901874   12.310765    ( 0.0000,  0.0000,  0.0000)
  16 Ag     5.660196    4.901874   12.310765    ( 0.0000,  0.0000,  0.0000)
  17 Pd     8.490294    4.901874   12.310765    ( 0.0000,  0.0000,  0.0000)
  18 Ag     1.422839    0.836358   14.687202    ( 0.0000,  0.0000,  0.0000)
  19 Ag     4.228290    0.834029   14.668537    ( 0.0000,  0.0000,  0.0000)
  20 Pt     7.000876    0.833422   14.677349    ( 0.0000,  0.0000,  0.0000)
  21 Ag     2.849410    3.275055   14.697646    ( 0.0000,  0.0000,  0.0000)
  22 Ag     5.607020    3.276035   14.715763    ( 0.0000,  0.0000,  0.0000)
  23 Ag     8.407636    3.278571   14.701685    ( 0.0000,  0.0000,  0.0000)
  24 Pd     4.226650    5.664441   14.783889    ( 0.0000,  0.0000,  0.0000)
  25 Pd     7.021524    5.717496   14.695770    ( 0.0000,  0.0000,  0.0000)
  26 Ag     9.810161    5.688371   14.690489    ( 0.0000,  0.0000,  0.0000)
  27 Pt     0.030364    1.654579   17.054310    ( 0.0000,  0.0000,  0.0000)
  28 Pd     2.863636    1.668211   17.080253    ( 0.0000,  0.0000,  0.0000)
  29 Pd     5.584811    1.668389   17.077768    ( 0.0000,  0.0000,  0.0000)
  30 Pd     1.451673    4.084780   17.054426    ( 0.0000,  0.0000,  0.0000)
  31 Ru     4.287216    4.070209   17.299465    ( 0.0000,  0.0000,  0.0000)
  32 Pt     6.976254    4.091014   17.095978    ( 0.0000,  0.0000,  0.0000)
  33 Ag     2.791829    6.501265   17.070936    ( 0.0000,  0.0000,  0.0000)
  34 Pt     5.617052    6.449501   17.092744    ( 0.0000,  0.0000,  0.0000)
  35 Ru     8.289070    6.444709   17.186717    ( 0.0000,  0.0000,  0.0000)
  36 Pd     0.109969    0.038419   19.432145    ( 0.0000,  0.0000,  0.0000)
  37 Ru     2.913932   -0.060119   19.211827    ( 0.0000,  0.0000,  0.0000)
  38 Pd     5.607656    0.003198   19.432032    ( 0.0000,  0.0000,  0.0000)
  39 Pt     1.441354    2.458850   19.369405    ( 0.0000,  0.0000,  0.0000)
  40 Pd     4.211433    2.427374   19.463642    ( 0.0000,  0.0000,  0.0000)
  41 Pd     7.082631    2.483306   19.414916    ( 0.0000,  0.0000,  0.0000)
  42 Pt     2.814800    4.836018   19.384744    ( 0.0000,  0.0000,  0.0000)
  43 Pd     5.686541    4.887569   19.522731    ( 0.0000,  0.0000,  0.0000)
  44 Ru     8.428363    4.985817   19.203811    ( 0.0000,  0.0000,  0.0000)
  45 O      5.660201    3.266083   20.822731    ( 0.0000,  0.0000,  0.0000)

Unit cell:
           periodic     x           y           z      points  spacing
  1. axis:    yes    8.379498    0.000000    0.000000    35     0.2073
  2. axis:    yes    4.189749    7.256858    0.000000    35     0.2073
  3. axis:    no     0.000000    0.000000   29.243062   135     0.2166

  Lengths:   8.379498   8.379498  29.243062
  Angles:   90.000000  90.000000  60.000000

Effective grid spacing dv^(1/3) = 0.2207

                     log10-error:    total        iterations:
           time      wfs    density  energy       fermi  poisson
iter:   1  01:12:20  +0.49   +inf  -239.980465    3             
iter:   2  01:13:35  -1.05  -1.20  -211.480911    3             
iter:   3  01:14:49  -1.34  -1.31  -243.630659    3             
iter:   4  01:16:04  -1.28  -1.24  -248.476199    3             
iter:   5  01:17:19  -1.47  -1.23  -195.043128    33            
iter:   6  01:18:34  -1.88  -1.48  -188.569008    36            
iter:   7  01:19:49  -2.39  -1.60  -186.583926    4             
iter:   8  01:21:04  -2.62  -1.66  -184.416500    3             
iter:   9  01:22:20  -1.89  -1.75  -183.080847    3             
iter:  10  01:23:34  -2.77  -1.95  -182.878328    4             
iter:  11  01:24:48  -3.02  -1.99  -182.856851    3             
iter:  12  01:26:03  -3.23  -2.01  -182.389376    3             
iter:  13  01:27:18  -3.23  -2.12  -181.962298    2             
iter:  14  01:28:32  -3.39  -2.23  -181.812409    3             
iter:  15  01:29:47  -3.77  -2.36  -181.710085    3             
iter:  16  01:31:02  -3.43  -2.43  -181.622543    2             
iter:  17  01:32:17  -3.52  -2.55  -181.531220    3             
iter:  18  01:33:31  -3.84  -2.75  -181.522318    3             
iter:  19  01:34:46  -4.34  -2.83  -181.503576    3             
iter:  20  01:36:01  -4.39  -2.92  -181.529886    2             
iter:  21  01:37:15  -4.85  -2.87  -181.488298    2             
iter:  22  01:38:30  -5.01  -3.14  -181.488258    2             
iter:  23  01:39:45  -5.35  -3.16  -181.490316    2             
iter:  24  01:40:59  -5.30  -3.24  -181.487371    2             
iter:  25  01:42:14  -5.26  -3.23  -181.489127    2             
iter:  26  01:43:28  -5.49  -3.49  -181.487794    2             
iter:  27  01:44:43  -5.75  -3.47  -181.486799    2             
iter:  28  01:45:58  -6.26  -3.51  -181.486639    2             
iter:  29  01:47:12  -6.60  -3.56  -181.486881    2             
iter:  30  01:48:27  -6.44  -3.71  -181.486407    2             
iter:  31  01:49:42  -6.10  -3.67  -181.488152    2             
iter:  32  01:50:56  -6.15  -3.75  -181.486356    2             
iter:  33  01:52:08  -6.59  -3.91  -181.487186    2             
iter:  34  01:53:09  -6.43  -3.96  -181.486667    2             
iter:  35  01:54:09  -6.91  -4.07  -181.486564    2             
iter:  36  01:55:09  -7.26  -4.13  -181.486292    2             
iter:  37  01:56:09  -7.67  -4.23  -181.486594    2             

Converged after 37 iterations.

Dipole moment: (24.894859, 21.678770, -0.324237) |e|*Ang

Energy contributions relative to reference atoms: (reference = -9073453.423555)

Kinetic:       -173.869209
Potential:      +28.050364
External:        +0.000000
XC:             -30.241987
Entropy (-ST):   -2.047037
Local:           -4.402244
--------------------------
Free energy:   -182.510112
Extrapolated:  -181.486594

Fermi level: 0.78211

Showing only first 2 kpts
 Kpt  Band  Eigenvalues  Occupancy
  0   367      0.77686    0.12828
  0   368      0.79790    0.11516
  0   369      0.82588    0.09808
  0   370      0.87061    0.07304

  1   367      0.66897    0.18902
  1   368      0.70738    0.16965
  1   369      0.72812    0.15795
  1   370      0.76027    0.13860



Forces in eV/Ang:
  0 Pd    0.09634    0.50237   -0.42543
  1 Ag    0.11032    0.48496   -0.51102
  2 Pt   -0.23543    0.51329    0.83860
  3 Pd    0.08924    0.03440   -0.07384
  4 Pd    0.11986   -0.37785    0.20376
  5 Pt   -0.13169   -0.29283   -0.08655
  6 Pd   -0.17231   -0.37952   -0.05105
  7 Ag   -0.12607   -0.45373   -0.71217
  8 Pd   -0.26148   -0.29829    0.28924
  9 Ag    0.51133    0.21383    0.44814
 10 Ru    2.22565    1.27646    0.39604
 11 Ru   -1.84129    0.87197   -0.35418
 12 Pd    1.12002   -0.24857    0.01780
 13 Ru   -0.52870   -1.48732   -0.88139
 14 Ag   -0.44835    0.13121    0.28717
 15 Pd    0.18551   -0.57775    0.08834
 16 Ag   -0.18293   -0.38352    0.33278
 17 Pd   -0.36400    0.53941   -0.02127
 18 Ag   -0.00642   -0.00692   -0.03303
 19 Ag   -0.02169   -0.00089    0.02617
 20 Pt    0.00927   -0.02532   -0.02116
 21 Ag    0.01163    0.00032    0.02462
 22 Ag    0.02743   -0.00918    0.02676
 23 Ag   -0.01330    0.00150    0.02302
 24 Pd    0.01618    0.00897    0.05685
 25 Pd    0.01875    0.04317    0.03230
 26 Ag   -0.00780   -0.00814    0.02939
 27 Pt   -0.05471    0.04565    0.30996
 28 Pd    0.01444   -0.02550    0.22579
 29 Pd   -0.00154   -0.08880   -0.20629
 30 Pd   -0.00192   -0.00735    0.02327
 31 Ru   -0.09958    0.11497   -0.55569
 32 Pt    0.03676    0.00153   -0.28195
 33 Ag   -0.01183    0.05337    0.00875
 34 Pt   -0.02869   -0.07364    0.16392
 35 Ru    0.03708    0.01310    0.06172
 36 Pd    0.08996    0.02384   -0.01378
 37 Ru   -0.09103    0.07912    0.02398
 38 Pd   -0.04910   -0.18883   -0.02297
 39 Pt   -0.02195   -0.07656   -0.06281
 40 Pd   -0.03457   -0.05611    0.58973
 41 Pd   -0.02939   -0.06973    0.48932
 42 Pt   -0.32309    0.09684   -0.14202
 43 Pd   -0.14818    0.22460    0.35045
 44 Ru    0.29340    0.14539   -0.01140
 45 O     0.27133   -0.23850   -1.01272

System changes: positions 

Initializing position-dependent things.

Density initialized from wave functions
                                             
                                             
                                             
                                             
                                             
                                             
                       OPd                   
                 Pt            Ru            
            Pt    APd    PPd    Ru           
                                             
        Pd    Ru     Pd    Pt                
        Pt     Pd     Pd                     
                     Pd     Pd     Ag        
                Ag     Ag     Ag             
                                             
           Ag    PAg    APt    Pd            
                                             
            Pd     Ru     Ag     Pd          
       Ag    PRu    PRu    Pt                
                                             
        Pd     Ag     Pt                     
                                             
                                             
                                             
                                             
                                             

Positions:
   0 Pd     0.000000    1.633958   10.000000    ( 0.0000,  0.0000,  0.0000)
   1 Ag     2.830098    1.633958   10.000000    ( 0.0000,  0.0000,  0.0000)
   2 Pt     5.660196    1.633958   10.000000    ( 0.0000,  0.0000,  0.0000)
   3 Pd     1.415049    4.084895   10.000000    ( 0.0000,  0.0000,  0.0000)
   4 Pd     4.245147    4.084895   10.000000    ( 0.0000,  0.0000,  0.0000)
   5 Pt     7.075245    4.084895   10.000000    ( 0.0000,  0.0000,  0.0000)
   6 Pd     2.830098    6.535832   10.000000    ( 0.0000,  0.0000,  0.0000)
   7 Ag     5.660196    6.535832   10.000000    ( 0.0000,  0.0000,  0.0000)
   8 Pd     8.490294    6.535832   10.000000    ( 0.0000,  0.0000,  0.0000)
   9 Ag     0.000000    0.000000   12.310765    ( 0.0000,  0.0000,  0.0000)
  10 Ru     2.830098    0.000000   12.310765    ( 0.0000,  0.0000,  0.0000)
  11 Ru     5.660196    0.000000   12.310765    ( 0.0000,  0.0000,  0.0000)
  12 Pd     1.415049    2.450937   12.310765    ( 0.0000,  0.0000,  0.0000)
  13 Ru     4.245147    2.450937   12.310765    ( 0.0000,  0.0000,  0.0000)
  14 Ag     7.075245    2.450937   12.310765    ( 0.0000,  0.0000,  0.0000)
  15 Pd     2.830098    4.901874   12.310765    ( 0.0000,  0.0000,  0.0000)
  16 Ag     5.660196    4.901874   12.310765    ( 0.0000,  0.0000,  0.0000)
  17 Pd     8.490294    4.901874   12.310765    ( 0.0000,  0.0000,  0.0000)
  18 Ag     1.422197    0.835666   14.683899    ( 0.0000,  0.0000,  0.0000)
  19 Ag     4.226121    0.833940   14.671154    ( 0.0000,  0.0000,  0.0000)
  20 Pt     7.001803    0.830889   14.675233    ( 0.0000,  0.0000,  0.0000)
  21 Ag     2.850573    3.275087   14.700108    ( 0.0000,  0.0000,  0.0000)
  22 Ag     5.609763    3.275116   14.718439    ( 0.0000,  0.0000,  0.0000)
  23 Ag     8.406306    3.278722   14.703987    ( 0.0000,  0.0000,  0.0000)
  24 Pd     4.228268    5.665337   14.789575    ( 0.0000,  0.0000,  0.0000)
  25 Pd     7.023400    5.721813   14.699000    ( 0.0000,  0.0000,  0.0000)
  26 Ag     9.809382    5.687557   14.693428    ( 0.0000,  0.0000,  0.0000)
  27 Pt     0.024893    1.659144   17.085305    ( 0.0000,  0.0000,  0.0000)
  28 Pd     2.865080    1.665660   17.102832    ( 0.0000,  0.0000,  0.0000)
  29 Pd     5.584657    1.659509   17.057139    ( 0.0000,  0.0000,  0.0000)
  30 Pd     1.451481    4.084045   17.056754    ( 0.0000,  0.0000,  0.0000)
  31 Ru     4.277258    4.081706   17.243895    ( 0.0000,  0.0000,  0.0000)
  32 Pt     6.979930    4.091167   17.067783    ( 0.0000,  0.0000,  0.0000)
  33 Ag     2.790646    6.506602   17.071811    ( 0.0000,  0.0000,  0.0000)
  34 Pt     5.614184    6.442137   17.109135    ( 0.0000,  0.0000,  0.0000)
  35 Ru     8.292779    6.446019   17.192889    ( 0.0000,  0.0000,  0.0000)
  36 Pd     0.118965    0.040803   19.430767    ( 0.0000,  0.0000,  0.0000)
  37 Ru     2.904829   -0.052207   19.214225    ( 0.0000,  0.0000,  0.0000)
  38 Pd     5.602746   -0.015685   19.429735    ( 0.0000,  0.0000,  0.0000)
  39 Pt     1.439159    2.451193   19.363124    ( 0.0000,  0.0000,  0.0000)
  40 Pd     4.207975    2.421763   19.522614    ( 0.0000,  0.0000,  0.0000)
  41 Pd     7.079692    2.476333   19.463848    ( 0.0000,  0.0000,  0.0000)
  42 Pt     2.782490    4.845703   19.370541    ( 0.0000,  0.0000,  0.0000)
  43 Pd     5.671723    4.910029   19.557776    ( 0.0000,  0.0000,  0.0000)
  44 Ru     8.457703    5.000355   19.202671    ( 0.0000,  0.0000,  0.0000)
  45 O      5.687335    3.242232   20.721460    ( 0.0000,  0.0000,  0.0000)

Unit cell:
           periodic     x           y           z      points  spacing
  1. axis:    yes    8.379498    0.000000    0.000000    35     0.2073
  2. axis:    yes    4.189749    7.256858    0.000000    35     0.2073
  3. axis:    no     0.000000    0.000000   29.243062   135     0.2166

  Lengths:   8.379498   8.379498  29.243062
  Angles:   90.000000  90.000000  60.000000

Effective grid spacing dv^(1/3) = 0.2207

                     log10-error:    total        iterations:
           time      wfs    density  energy       fermi  poisson
iter:   1  01:57:36  -2.05   +inf  -182.445932    3             
iter:   2  01:58:36  -2.70  -2.37  -182.709110    4             
iter:   3  01:59:36  -2.75  -2.22  -187.984534    3             
iter:   4  02:00:34  -2.79  -1.80  -183.365409    3             
iter:   5  02:01:33  -3.75  -2.09  -182.022166    3             
iter:   6  02:02:32  -4.10  -2.46  -181.705544    3             
iter:   7  02:03:31  -4.18  -2.81  -181.667838    3             
iter:   8  02:04:29  -4.74  -2.82  -181.651742    2             
iter:   9  02:05:29  -4.40  -2.92  -181.644509    2             
iter:  10  02:06:27  -5.14  -2.87  -181.623437    2             
iter:  11  02:07:25  -4.70  -3.14  -181.618806    2             
iter:  12  02:08:24  -4.84  -3.23  -181.613770    2             
iter:  13  02:09:23  -5.37  -3.46  -181.614780    2             
iter:  14  02:10:29  -5.61  -3.61  -181.614249    2             
iter:  15  02:11:59  -6.21  -3.71  -181.614866    2             
iter:  16  02:13:29  -5.65  -3.72  -181.613988    2             
iter:  17  02:14:59  -6.22  -3.91  -181.614329    2             
iter:  18  02:16:29  -6.33  -3.90  -181.613806    2             
iter:  19  02:17:59  -6.80  -3.71  -181.614447    2             
iter:  20  02:19:29  -6.89  -3.99  -181.613651    2             
iter:  21  02:20:59  -6.54  -3.93  -181.614404    2             
iter:  22  02:22:29  -7.08  -4.25  -181.613687    2             
iter:  23  02:23:59  -7.23  -4.13  -181.613701    2             
iter:  24  02:25:29  -7.53  -4.39  -181.613852    2             

Converged after 24 iterations.

Dipole moment: (26.105366, 21.963267, -0.257973) |e|*Ang

Energy contributions relative to reference atoms: (reference = -9073453.423555)

Kinetic:       -173.809884
Potential:      +28.300472
External:        +0.000000
XC:             -30.723121
Entropy (-ST):   -2.033824
Local:           -4.364408
--------------------------
Free energy:   -182.630764
Extrapolated:  -181.613852

Fermi level: 0.81694

Showing only first 2 kpts
 Kpt  Band  Eigenvalues  Occupancy
  0   367      0.81113    0.12863
  0   368      0.82719    0.11860
  0   369      0.86685    0.09444
  0   370      0.90133    0.07518

  1   367      0.70031    0.19062
  1   368      0.74347    0.16896
  1   369      0.76312    0.15785
  1   370      0.79450    0.13896



Forces in eV/Ang:
  0 Pd    0.10259    0.50486   -0.42692
  1 Ag    0.10354    0.49371   -0.51672
  2 Pt   -0.23525    0.51054    0.82993
  3 Pd    0.09712    0.03501   -0.07804
  4 Pd    0.10534   -0.37077    0.20170
  5 Pt   -0.12426   -0.29218   -0.08451
  6 Pd   -0.17175   -0.39201   -0.05731
  7 Ag   -0.13165   -0.45269   -0.71226
  8 Pd   -0.25151   -0.30521    0.28668
  9 Ag    0.51557    0.21025    0.44482
 10 Ru    2.21807    1.27891    0.41145
 11 Ru   -1.84023    0.86452   -0.36114
 12 Pd    1.11306   -0.23869    0.02768
 13 Ru   -0.53419   -1.47553   -0.86783
 14 Ag   -0.43768    0.13856    0.28647
 15 Pd    0.18922   -0.58087    0.08652
 16 Ag   -0.18327   -0.38293    0.35324
 17 Pd   -0.36497    0.53106   -0.01958
 18 Ag   -0.02031    0.02166    0.06522
 19 Ag   -0.02840    0.01195    0.01177
 20 Pt    0.01549   -0.01684   -0.02063
 21 Ag   -0.00421   -0.02367    0.01688
 22 Ag    0.00496   -0.01174   -0.10021
 23 Ag    0.03160   -0.04154   -0.00418
 24 Pd    0.00993    0.00399    0.02140
 25 Pd    0.00338    0.01992   -0.01095
 26 Ag    0.00070   -0.00837    0.01541
 27 Pt   -0.04820    0.04086    0.11846
 28 Pd    0.04885    0.03559    0.09174
 29 Pd   -0.02193    0.04434    0.03865
 30 Pd   -0.00015   -0.03845   -0.08266
 31 Ru   -0.01210   -0.03090   -0.12255
 32 Pt   -0.02628   -0.01953    0.07136
 33 Ag    0.00270    0.06056   -0.03088
 34 Pt    0.00022   -0.03665    0.06283
 35 Ru   -0.03825    0.02360   -0.03057
 36 Pd   -0.03432    0.01726    0.06290
 37 Ru   -0.05799    0.04769    0.03581
 38 Pd    0.01473    0.10536    0.02612
 39 Pt    0.00661   -0.00675    0.05660
 40 Pd   -0.32732   -0.09183   -0.02302
 41 Pd    0.37288   -0.20996   -0.18863
 42 Pt   -0.01361   -0.05798   -0.12394
 43 Pd   -0.06772    0.35060   -0.15429
 44 Ru   -0.02014   -0.07371    0.00223
 45 O     0.13050   -0.10059    0.59126

System changes: positions 

Initializing position-dependent things.

Density initialized from wave functions
                                            
                                            
                                            
                                            
                                            
                       O                    
                 Pt     Pd     Ru           
                   Pd     Pd                
            Pt    Ag     Pt    Ru           
       Pd    PRu    RPd    Pt               
                                            
        Pt     Pd    PPd    Pd    Ag        
                                            
                Ag     Ag     Ag            
           Ag     Ag     Pt                 
                 Pd     Ag     Pd           
            Pd     Ru     Ag                
                  Pd     Ag     Pd          
       Ag    PRu    PRu    Pt               
        Pd     Ag     Pt                    
                                            
                                            
                                            
                                            
                                            

Positions:
   0 Pd     0.000000    1.633958   10.000000    ( 0.0000,  0.0000,  0.0000)
   1 Ag     2.830098    1.633958   10.000000    ( 0.0000,  0.0000,  0.0000)
   2 Pt     5.660196    1.633958   10.000000    ( 0.0000,  0.0000,  0.0000)
   3 Pd     1.415049    4.084895   10.000000    ( 0.0000,  0.0000,  0.0000)
   4 Pd     4.245147    4.084895   10.000000    ( 0.0000,  0.0000,  0.0000)
   5 Pt     7.075245    4.084895   10.000000    ( 0.0000,  0.0000,  0.0000)
   6 Pd     2.830098    6.535832   10.000000    ( 0.0000,  0.0000,  0.0000)
   7 Ag     5.660196    6.535832   10.000000    ( 0.0000,  0.0000,  0.0000)
   8 Pd     8.490294    6.535832   10.000000    ( 0.0000,  0.0000,  0.0000)
   9 Ag     0.000000    0.000000   12.310765    ( 0.0000,  0.0000,  0.0000)
  10 Ru     2.830098    0.000000   12.310765    ( 0.0000,  0.0000,  0.0000)
  11 Ru     5.660196    0.000000   12.310765    ( 0.0000,  0.0000,  0.0000)
  12 Pd     1.415049    2.450937   12.310765    ( 0.0000,  0.0000,  0.0000)
  13 Ru     4.245147    2.450937   12.310765    ( 0.0000,  0.0000,  0.0000)
  14 Ag     7.075245    2.450937   12.310765    ( 0.0000,  0.0000,  0.0000)
  15 Pd     2.830098    4.901874   12.310765    ( 0.0000,  0.0000,  0.0000)
  16 Ag     5.660196    4.901874   12.310765    ( 0.0000,  0.0000,  0.0000)
  17 Pd     8.490294    4.901874   12.310765    ( 0.0000,  0.0000,  0.0000)
  18 Ag     1.420316    0.837355   14.688704    ( 0.0000,  0.0000,  0.0000)
  19 Ag     4.223197    0.834939   14.672761    ( 0.0000,  0.0000,  0.0000)
  20 Pt     7.003338    0.828868   14.672984    ( 0.0000,  0.0000,  0.0000)
  21 Ag     2.850482    3.273074   14.702117    ( 0.0000,  0.0000,  0.0000)
  22 Ag     5.610819    3.273903   14.710502    ( 0.0000,  0.0000,  0.0000)
  23 Ag     8.408697    3.275210   14.704161    ( 0.0000,  0.0000,  0.0000)
  24 Pd     4.229489    5.665885   14.792712    ( 0.0000,  0.0000,  0.0000)
  25 Pd     7.024120    5.724509   14.698810    ( 0.0000,  0.0000,  0.0000)
  26 Ag     9.809261    5.686654   14.695421    ( 0.0000,  0.0000,  0.0000)
  27 Pt     0.019517    1.663685   17.102564    ( 0.0000,  0.0000,  0.0000)
  28 Pd     2.869582    1.668111   17.115869    ( 0.0000,  0.0000,  0.0000)
  29 Pd     5.582750    1.661246   17.055682    ( 0.0000,  0.0000,  0.0000)
  30 Pd     1.451425    4.080594   17.050234    ( 0.0000,  0.0000,  0.0000)
  31 Ru     4.273928    4.081719   17.220621    ( 0.0000,  0.0000,  0.0000)
  32 Pt     6.978534    4.089536   17.067374    ( 0.0000,  0.0000,  0.0000)
  33 Ag     2.790603    6.513002   17.069376    ( 0.0000,  0.0000,  0.0000)
  34 Pt     5.613541    6.437310   17.118278    ( 0.0000,  0.0000,  0.0000)
  35 Ru     8.290368    6.448336   17.191703    ( 0.0000,  0.0000,  0.0000)
  36 Pd     0.118110    0.042827   19.435819    ( 0.0000,  0.0000,  0.0000)
  37 Ru     2.897780   -0.046312   19.217835    ( 0.0000,  0.0000,  0.0000)
  38 Pd     5.602871   -0.011045   19.431435    ( 0.0000,  0.0000,  0.0000)
  39 Pt     1.439216    2.448852   19.366507    ( 0.0000,  0.0000,  0.0000)
  40 Pd     4.179237    2.412630   19.534247    ( 0.0000,  0.0000,  0.0000)
  41 Pd     7.110844    2.456802   19.459028    ( 0.0000,  0.0000,  0.0000)
  42 Pt     2.773878    4.842986   19.356687    ( 0.0000,  0.0000,  0.0000)
  43 Pd     5.662526    4.945135   19.552685    ( 0.0000,  0.0000,  0.0000)
  44 Ru     8.462748    4.997415   19.202599    ( 0.0000,  0.0000,  0.0000)
  45 O      5.704731    3.228146   20.748581    ( 0.0000,  0.0000,  0.0000)

Unit cell:
           periodic     x           y           z      points  spacing
  1. axis:    yes    8.379498    0.000000    0.000000    35     0.2073
  2. axis:    yes    4.189749    7.256858    0.000000    35     0.2073
  3. axis:    no     0.000000    0.000000   29.243062   135     0.2166

  Lengths:   8.379498   8.379498  29.243062
  Angles:   90.000000  90.000000  60.000000

Effective grid spacing dv^(1/3) = 0.2207

                     log10-error:    total        iterations:
           time      wfs    density  energy       fermi  poisson
iter:   1  02:27:37  -2.51   +inf  -182.043578    3             
iter:   2  02:29:07  -2.86  -2.49  -186.253754    3             
iter:   3  02:30:24  -3.20  -1.86  -181.771361    2             
iter:   4  02:31:40  -3.94  -2.64  -181.682585    2             
iter:   5  02:32:54  -4.48  -2.85  -181.641446    2             
iter:   6  02:34:09  -5.05  -3.15  -181.637871    2             
iter:   7  02:35:23  -5.04  -3.31  -181.642076    2             
iter:   8  02:36:38  -5.20  -3.28  -181.640529    2             
iter:   9  02:37:53  -5.06  -3.13  -181.635107    2             
iter:  10  02:39:07  -5.32  -3.48  -181.638840    2             
iter:  11  02:40:22  -5.66  -3.38  -181.633331    2             
iter:  12  02:41:37  -5.97  -3.76  -181.633184    2             
iter:  13  02:42:52  -6.32  -3.82  -181.633915    2             
iter:  14  02:44:07  -6.30  -3.77  -181.633606    1             
iter:  15  02:45:21  -6.49  -3.89  -181.632302    2             
iter:  16  02:46:36  -6.56  -3.84  -181.634630    2             
iter:  17  02:47:50  -6.28  -3.73  -181.633012    2             
iter:  18  02:49:06  -6.66  -4.03  -181.633306    2             
iter:  19  02:50:20  -6.78  -4.31  -181.633062    2             
iter:  20  02:51:35  -6.87  -4.36  -181.633386    2             
iter:  21  02:52:49  -6.89  -4.41  -181.632658    2             
iter:  22  02:54:04  -7.23  -4.10  -181.633168    2             
iter:  23  02:55:19  -7.76  -4.47  -181.633202    2             

Converged after 23 iterations.

Dipole moment: (26.019991, 21.502849, -0.288298) |e|*Ang

Energy contributions relative to reference atoms: (reference = -9073453.423555)

Kinetic:       -176.742348
Potential:      +30.730915
External:        +0.000000
XC:             -30.229226
Entropy (-ST):   -2.041172
Local:           -4.371957
--------------------------
Free energy:   -182.653788
Extrapolated:  -181.633202

Fermi level: 0.80140

Showing only first 2 kpts
 Kpt  Band  Eigenvalues  Occupancy
  0   367      0.79597    0.12839
  0   368      0.81057    0.11927
  0   369      0.85431    0.09268
  0   370      0.88573    0.07521

  1   367      0.68647    0.18984
  1   368      0.72728    0.16931
  1   369      0.74757    0.15785
  1   370      0.78179    0.13721



Forces in eV/Ang:
  0 Pd    0.10214    0.50354   -0.42582
  1 Ag    0.10396    0.49302   -0.51636
  2 Pt   -0.23549    0.50989    0.83131
  3 Pd    0.09643    0.03454   -0.07732
  4 Pd    0.10628   -0.37128    0.20429
  5 Pt   -0.12507   -0.29144   -0.08464
  6 Pd   -0.17154   -0.39035   -0.05346
  7 Ag   -0.13138   -0.45262   -0.71133
  8 Pd   -0.25108   -0.30417    0.28960
  9 Ag    0.52056    0.20764    0.44458
 10 Ru    2.21589    1.28168    0.41810
 11 Ru   -1.83960    0.86282   -0.35503
 12 Pd    1.11757   -0.24042    0.03238
 13 Ru   -0.53749   -1.47750   -0.87046
 14 Ag   -0.43497    0.13826    0.27758
 15 Pd    0.19076   -0.58169    0.09847
 16 Ag   -0.18504   -0.37754    0.34921
 17 Pd   -0.36332    0.53064   -0.01288
 18 Ag   -0.00958    0.00477    0.09631
 19 Ag   -0.00131    0.00821    0.01188
 20 Pt   -0.01478   -0.00204   -0.00401
 21 Ag    0.00714   -0.01370   -0.00569
 22 Ag    0.01816   -0.01192   -0.07345
 23 Ag    0.00152   -0.02442    0.00350
 24 Pd    0.00744   -0.00934    0.00465
 25 Pd   -0.00629   -0.00958   -0.00047
 26 Ag   -0.00181    0.00133   -0.00313
 27 Pt    0.01558   -0.00925   -0.03712
 28 Pd    0.00132    0.02167   -0.00179
 29 Pd   -0.02257    0.06256    0.06273
 30 Pd   -0.01774    0.00111   -0.05982
 31 Ru    0.01126   -0.06071    0.02729
 32 Pt   -0.03237   -0.00428    0.09985
 33 Ag   -0.01343    0.03104   -0.01350
 34 Pt   -0.00945    0.02921   -0.00150
 35 Ru   -0.03373   -0.00510    0.04696
 36 Pd   -0.07862    0.00847    0.08053
 37 Ru    0.04987    0.00454    0.02286
 38 Pd   -0.02749    0.09816    0.01166
 39 Pt    0.04149    0.02461    0.09565
 40 Pd    0.12642    0.13519    0.13241
 41 Pd   -0.18196    0.14302    0.07697
 42 Pt    0.07897   -0.04503   -0.07992
 43 Pd    0.01586   -0.36556    0.10588
 44 Ru   -0.11359   -0.03695   -0.04659
 45 O     0.07814    0.05964   -0.18387

System changes: positions 

Initializing position-dependent things.

Density initialized from wave functions
                                            
                                            
                                            
                                            
                                            
                       O                    
                 Pt     Pd     Ru           
                   Pd     Pd                
            Pt    Ag     Pt    Ru           
       Pd    PRu    RPd    Pt               
                                            
        Pt     Pd    PPd    Pd    Ag        
                                            
                Ag     Ag     Ag            
           Ag     Ag     Pt                 
                 Pd     Ag     Pd           
            Pd     Ru     Ag                
                  Pd     Ag     Pd          
       Ag    PRu    PRu    Pt               
        Pd     Ag     Pt                    
                                            
                                            
                                            
                                            
                                            

Positions:
   0 Pd     0.000000    1.633958   10.000000    ( 0.0000,  0.0000,  0.0000)
   1 Ag     2.830098    1.633958   10.000000    ( 0.0000,  0.0000,  0.0000)
   2 Pt     5.660196    1.633958   10.000000    ( 0.0000,  0.0000,  0.0000)
   3 Pd     1.415049    4.084895   10.000000    ( 0.0000,  0.0000,  0.0000)
   4 Pd     4.245147    4.084895   10.000000    ( 0.0000,  0.0000,  0.0000)
   5 Pt     7.075245    4.084895   10.000000    ( 0.0000,  0.0000,  0.0000)
   6 Pd     2.830098    6.535832   10.000000    ( 0.0000,  0.0000,  0.0000)
   7 Ag     5.660196    6.535832   10.000000    ( 0.0000,  0.0000,  0.0000)
   8 Pd     8.490294    6.535832   10.000000    ( 0.0000,  0.0000,  0.0000)
   9 Ag     0.000000    0.000000   12.310765    ( 0.0000,  0.0000,  0.0000)
  10 Ru     2.830098    0.000000   12.310765    ( 0.0000,  0.0000,  0.0000)
  11 Ru     5.660196    0.000000   12.310765    ( 0.0000,  0.0000,  0.0000)
  12 Pd     1.415049    2.450937   12.310765    ( 0.0000,  0.0000,  0.0000)
  13 Ru     4.245147    2.450937   12.310765    ( 0.0000,  0.0000,  0.0000)
  14 Ag     7.075245    2.450937   12.310765    ( 0.0000,  0.0000,  0.0000)
  15 Pd     2.830098    4.901874   12.310765    ( 0.0000,  0.0000,  0.0000)
  16 Ag     5.660196    4.901874   12.310765    ( 0.0000,  0.0000,  0.0000)
  17 Pd     8.490294    4.901874   12.310765    ( 0.0000,  0.0000,  0.0000)
  18 Ag     1.419248    0.838128   14.696984    ( 0.0000,  0.0000,  0.0000)
  19 Ag     4.222604    0.835763   14.673792    ( 0.0000,  0.0000,  0.0000)
  20 Pt     7.002546    0.828450   14.672343    ( 0.0000,  0.0000,  0.0000)
  21 Ag     2.850894    3.271630   14.701977    ( 0.0000,  0.0000,  0.0000)
  22 Ag     5.612171    3.272835   14.703220    ( 0.0000,  0.0000,  0.0000)
  23 Ag     8.409437    3.272648   14.704287    ( 0.0000,  0.0000,  0.0000)
  24 Pd     4.230184    5.665267   14.793341    ( 0.0000,  0.0000,  0.0000)
  25 Pd     7.023691    5.724108   14.698501    ( 0.0000,  0.0000,  0.0000)
  26 Ag     9.809159    5.686607   14.695430    ( 0.0000,  0.0000,  0.0000)
  27 Pt     0.019835    1.663703   17.101509    ( 0.0000,  0.0000,  0.0000)
  28 Pd     2.870582    1.670410   17.117031    ( 0.0000,  0.0000,  0.0000)
  29 Pd     5.580702    1.666800   17.061379    ( 0.0000,  0.0000,  0.0000)
  30 Pd     1.450143    4.079955   17.044281    ( 0.0000,  0.0000,  0.0000)
  31 Ru     4.274714    4.076503   17.221388    ( 0.0000,  0.0000,  0.0000)
  32 Pt     6.975615    4.088850   17.076535    ( 0.0000,  0.0000,  0.0000)
  33 Ag     2.789708    6.516296   17.067792    ( 0.0000,  0.0000,  0.0000)
  34 Pt     5.612920    6.438873   17.119036    ( 0.0000,  0.0000,  0.0000)
  35 Ru     8.287122    6.448391   17.194390    ( 0.0000,  0.0000,  0.0000)
  36 Pd     0.111584    0.043720   19.442874    ( 0.0000,  0.0000,  0.0000)
  37 Ru     2.900465   -0.045234   19.220124    ( 0.0000,  0.0000,  0.0000)
  38 Pd     5.601264   -0.001547   19.432824    ( 0.0000,  0.0000,  0.0000)
  39 Pt     1.442389    2.450659   19.374635    ( 0.0000,  0.0000,  0.0000)
  40 Pd     4.182199    2.420770   19.542182    ( 0.0000,  0.0000,  0.0000)
  41 Pd     7.104866    2.463279   19.459994    ( 0.0000,  0.0000,  0.0000)
  42 Pt     2.779989    4.838423   19.348828    ( 0.0000,  0.0000,  0.0000)
  43 Pd     5.662682    4.924933   19.556682    ( 0.0000,  0.0000,  0.0000)
  44 Ru     8.453549    4.993038   19.199295    ( 0.0000,  0.0000,  0.0000)
  45 O      5.712322    3.231025   20.748641    ( 0.0000,  0.0000,  0.0000)

Unit cell:
           periodic     x           y           z      points  spacing
  1. axis:    yes    8.379498    0.000000    0.000000    35     0.2073
  2. axis:    yes    4.189749    7.256858    0.000000    35     0.2073
  3. axis:    no     0.000000    0.000000   29.243062   135     0.2166

  Lengths:   8.379498   8.379498  29.243062
  Angles:   90.000000  90.000000  60.000000

Effective grid spacing dv^(1/3) = 0.2207

                     log10-error:    total        iterations:
           time      wfs    density  energy       fermi  poisson
iter:   1  02:57:05  -3.10   +inf  -181.787435    3             
iter:   2  02:58:20  -3.02  -2.62  -186.057458    4             
iter:   3  02:59:34  -3.40  -1.91  -181.718977    3             
iter:   4  03:00:48  -4.10  -2.93  -181.659212    3             
iter:   5  03:02:04  -5.04  -3.06  -181.655450    2             
iter:   6  03:03:18  -5.47  -3.35  -181.650053    2             
iter:   7  03:04:31  -5.56  -3.59  -181.648994    2             
iter:   8  03:05:47  -5.93  -3.45  -181.648514    2             
iter:   9  03:07:01  -5.48  -3.70  -181.649358    2             
iter:  10  03:08:15  -6.11  -3.90  -181.648551    2             
iter:  11  03:09:30  -6.53  -3.97  -181.649200    2             
iter:  12  03:10:44  -6.54  -3.96  -181.648956    2             
iter:  13  03:11:49  -6.82  -4.16  -181.648567    2             
iter:  14  03:12:48  -6.82  -4.04  -181.648790    2             
iter:  15  03:13:47  -7.22  -4.35  -181.649024    2             
iter:  16  03:14:46  -7.37  -4.34  -181.648473    2             
iter:  17  03:15:45  -7.57  -4.24  -181.648710    2             

Converged after 17 iterations.

Dipole moment: (25.571032, 21.110896, -0.280428) |e|*Ang

Energy contributions relative to reference atoms: (reference = -9073453.423555)

Kinetic:       -176.639143
Potential:      +30.633260
External:        +0.000000
XC:             -30.255731
Entropy (-ST):   -2.039163
Local:           -4.367515
--------------------------
Free energy:   -182.668292
Extrapolated:  -181.648710

Fermi level: 0.80494

Showing only first 2 kpts
 Kpt  Band  Eigenvalues  Occupancy
  0   367      0.79882    0.12883
  0   368      0.81562    0.11833
  0   369      0.85834    0.09240
  0   370      0.88893    0.07539

  1   367      0.68958    0.19004
  1   368      0.73050    0.16949
  1   369      0.75174    0.15749
  1   370      0.78473    0.13759



Forces in eV/Ang:
  0 Pd    0.10291    0.50314   -0.42680
  1 Ag    0.10309    0.49287   -0.51916
  2 Pt   -0.23520    0.51040    0.82876
  3 Pd    0.09675    0.03370   -0.07901
  4 Pd    0.10690   -0.37074    0.20374
  5 Pt   -0.12578   -0.29078   -0.08544
  6 Pd   -0.17039   -0.39024   -0.05524
  7 Ag   -0.13161   -0.45281   -0.71220
  8 Pd   -0.25309   -0.30380    0.28790
  9 Ag    0.52949    0.21110    0.45705
 10 Ru    2.20927    1.28510    0.43024
 11 Ru   -1.84179    0.86203   -0.35558
 12 Pd    1.11700   -0.25030    0.04107
 13 Ru   -0.54416   -1.48252   -0.88206
 14 Ag   -0.42672    0.13553    0.26568
 15 Pd    0.19120   -0.58250    0.09620
 16 Ag   -0.18522   -0.36899    0.33966
 17 Pd   -0.36344    0.52836   -0.01303
 18 Ag    0.00268   -0.01172    0.04312
 19 Ag    0.00012   -0.00546    0.01756
 20 Pt   -0.01302    0.00249   -0.00365
 21 Ag    0.01150   -0.00186   -0.01775
 22 Ag    0.02720   -0.00051   -0.01618
 23 Ag   -0.02033    0.00066    0.00945
 24 Pd    0.00953   -0.01577    0.00436
 25 Pd   -0.00498   -0.01467    0.01717
 26 Ag   -0.00916   -0.00057   -0.00773
 27 Pt    0.02011    0.00608    0.04105
 28 Pd   -0.01528    0.00895    0.03794
 29 Pd   -0.00783    0.02722    0.01394
 30 Pd   -0.02993    0.00859   -0.00319
 31 Ru    0.00329   -0.00063   -0.00913
 32 Pt   -0.02672    0.00139   -0.01921
 33 Ag   -0.02360    0.01184    0.01334
 34 Pt   -0.01887    0.01345    0.06436
 35 Ru   -0.01329    0.00959    0.02108
 36 Pd   -0.00776   -0.02998    0.02766
 37 Ru   -0.01068   -0.02458    0.01674
 38 Pd   -0.03736   -0.03566   -0.01047
 39 Pt   -0.00576   -0.00201    0.02707
 40 Pd    0.03821    0.03765    0.10744
 41 Pd   -0.00347    0.00636    0.00562
 42 Pt   -0.01414    0.03622   -0.05855
 43 Pd   -0.02667   -0.02231   -0.00344
 44 Ru    0.02761    0.03830   -0.00257
 45 O     0.03369   -0.01857    0.08079

System changes: positions 

Initializing position-dependent things.

Density initialized from wave functions
                                            
                                            
                                            
                                            
                                            
                       O                    
                 Pt     Pd     Ru           
                   Pd     Pd                
            Pt    Ag     Pt    Ru           
       Pd    PRu    RPd    Pt               
                                            
        Pt     Pd    PPd    Pd    Ag        
                                            
                Ag     Ag     Ag            
           Ag     Ag     Pt                 
                 Pd     Ag     Pd           
            Pd     Ru     Ag                
                  Pd     Ag     Pd          
       Ag    PRu    PRu    Pt               
        Pd     Ag     Pt                    
                                            
                                            
                                            
                                            
                                            

Positions:
   0 Pd     0.000000    1.633958   10.000000    ( 0.0000,  0.0000,  0.0000)
   1 Ag     2.830098    1.633958   10.000000    ( 0.0000,  0.0000,  0.0000)
   2 Pt     5.660196    1.633958   10.000000    ( 0.0000,  0.0000,  0.0000)
   3 Pd     1.415049    4.084895   10.000000    ( 0.0000,  0.0000,  0.0000)
   4 Pd     4.245147    4.084895   10.000000    ( 0.0000,  0.0000,  0.0000)
   5 Pt     7.075245    4.084895   10.000000    ( 0.0000,  0.0000,  0.0000)
   6 Pd     2.830098    6.535832   10.000000    ( 0.0000,  0.0000,  0.0000)
   7 Ag     5.660196    6.535832   10.000000    ( 0.0000,  0.0000,  0.0000)
   8 Pd     8.490294    6.535832   10.000000    ( 0.0000,  0.0000,  0.0000)
   9 Ag     0.000000    0.000000   12.310765    ( 0.0000,  0.0000,  0.0000)
  10 Ru     2.830098    0.000000   12.310765    ( 0.0000,  0.0000,  0.0000)
  11 Ru     5.660196    0.000000   12.310765    ( 0.0000,  0.0000,  0.0000)
  12 Pd     1.415049    2.450937   12.310765    ( 0.0000,  0.0000,  0.0000)
  13 Ru     4.245147    2.450937   12.310765    ( 0.0000,  0.0000,  0.0000)
  14 Ag     7.075245    2.450937   12.310765    ( 0.0000,  0.0000,  0.0000)
  15 Pd     2.830098    4.901874   12.310765    ( 0.0000,  0.0000,  0.0000)
  16 Ag     5.660196    4.901874   12.310765    ( 0.0000,  0.0000,  0.0000)
  17 Pd     8.490294    4.901874   12.310765    ( 0.0000,  0.0000,  0.0000)
  18 Ag     1.418978    0.837214   14.705484    ( 0.0000,  0.0000,  0.0000)
  19 Ag     4.222130    0.835542   14.676365    ( 0.0000,  0.0000,  0.0000)
  20 Pt     7.000877    0.828375   14.671471    ( 0.0000,  0.0000,  0.0000)
  21 Ag     2.852381    3.270697   14.700092    ( 0.0000,  0.0000,  0.0000)
  22 Ag     5.615930    3.272246   14.697945    ( 0.0000,  0.0000,  0.0000)
  23 Ag     8.407571    3.271448   14.705466    ( 0.0000,  0.0000,  0.0000)
  24 Pd     4.231663    5.663282   14.794418    ( 0.0000,  0.0000,  0.0000)
  25 Pd     7.023039    5.722552   14.700375    ( 0.0000,  0.0000,  0.0000)
  26 Ag     9.808054    5.686444   14.694751    ( 0.0000,  0.0000,  0.0000)
  27 Pt     0.021762    1.664813   17.107562    ( 0.0000,  0.0000,  0.0000)
  28 Pd     2.869594    1.672478   17.123159    ( 0.0000,  0.0000,  0.0000)
  29 Pd     5.578852    1.672082   17.064767    ( 0.0000,  0.0000,  0.0000)
  30 Pd     1.446219    4.080413   17.041110    ( 0.0000,  0.0000,  0.0000)
  31 Ru     4.274984    4.074554   17.217979    ( 0.0000,  0.0000,  0.0000)
  32 Pt     6.971375    4.088618   17.077476    ( 0.0000,  0.0000,  0.0000)
  33 Ag     2.786641    6.519516   17.068517    ( 0.0000,  0.0000,  0.0000)
  34 Pt     5.610428    6.440546   17.127615    ( 0.0000,  0.0000,  0.0000)
  35 Ru     8.284205    6.449696   17.197884    ( 0.0000,  0.0000,  0.0000)
  36 Pd     0.108194    0.040856   19.449179    ( 0.0000,  0.0000,  0.0000)
  37 Ru     2.899648   -0.047032   19.223246    ( 0.0000,  0.0000,  0.0000)
  38 Pd     5.596294   -0.001810   19.432270    ( 0.0000,  0.0000,  0.0000)
  39 Pt     1.442965    2.450846   19.381093    ( 0.0000,  0.0000,  0.0000)
  40 Pd     4.185580    2.427538   19.559462    ( 0.0000,  0.0000,  0.0000)
  41 Pd     7.104296    2.465045   19.461536    ( 0.0000,  0.0000,  0.0000)
  42 Pt     2.779621    4.840698   19.337773    ( 0.0000,  0.0000,  0.0000)
  43 Pd     5.658779    4.917280   19.558136    ( 0.0000,  0.0000,  0.0000)
  44 Ru     8.453904    4.995692   19.197658    ( 0.0000,  0.0000,  0.0000)
  45 O      5.720929    3.228616   20.758032    ( 0.0000,  0.0000,  0.0000)

Unit cell:
           periodic     x           y           z      points  spacing
  1. axis:    yes    8.379498    0.000000    0.000000    35     0.2073
  2. axis:    yes    4.189749    7.256858    0.000000    35     0.2073
  3. axis:    no     0.000000    0.000000   29.243062   135     0.2166

  Lengths:   8.379498   8.379498  29.243062
  Angles:   90.000000  90.000000  60.000000

Effective grid spacing dv^(1/3) = 0.2207

                     log10-error:    total        iterations:
           time      wfs    density  energy       fermi  poisson
iter:   1  03:17:11  -3.35   +inf  -181.681848    2             
iter:   2  03:18:10  -3.76  -2.98  -182.356109    3             
iter:   3  03:19:08  -4.09  -2.28  -181.670160    2             
iter:   4  03:20:07  -4.92  -3.17  -181.656856    2             
iter:   5  03:21:06  -5.49  -3.44  -181.655119    2             
iter:   6  03:22:06  -5.77  -3.62  -181.655767    2             
iter:   7  03:23:06  -5.89  -3.71  -181.654510    2             
iter:   8  03:24:06  -5.92  -3.83  -181.656536    2             
iter:   9  03:25:06  -6.14  -3.70  -181.654800    2             
iter:  10  03:26:06  -6.75  -4.09  -181.655011    2             
iter:  11  03:27:06  -6.86  -4.19  -181.654823    1             
iter:  12  03:28:06  -6.57  -4.25  -181.654933    2             
iter:  13  03:29:05  -7.27  -4.37  -181.654714    2             
iter:  14  03:30:05  -7.31  -4.28  -181.655203    2             
iter:  15  03:31:05  -7.43  -4.26  -181.654932    2             

Converged after 15 iterations.

Dipole moment: (25.807700, 21.399106, -0.280385) |e|*Ang

Energy contributions relative to reference atoms: (reference = -9073453.423555)

Kinetic:       -176.769655
Potential:      +30.732868
External:        +0.000000
XC:             -30.229177
Entropy (-ST):   -2.037291
Local:           -4.370322
--------------------------
Free energy:   -182.673577
Extrapolated:  -181.654932

Fermi level: 0.80492

Showing only first 2 kpts
 Kpt  Band  Eigenvalues  Occupancy
  0   367      0.79911    0.12863
  0   368      0.81718    0.11734
  0   369      0.85982    0.09152
  0   370      0.89009    0.07477

  1   367      0.68899    0.19030
  1   368      0.73100    0.16920
  1   369      0.75245    0.15706
  1   370      0.78472    0.13758



Forces in eV/Ang:
  0 Pd    0.10347    0.50397   -0.42705
  1 Ag    0.10313    0.49213   -0.51718
  2 Pt   -0.23549    0.50998    0.82807
  3 Pd    0.09652    0.03319   -0.07779
  4 Pd    0.10686   -0.37087    0.20327
  5 Pt   -0.12499   -0.29085   -0.08582
  6 Pd   -0.17031   -0.39005   -0.05632
  7 Ag   -0.13104   -0.45273   -0.71196
  8 Pd   -0.25354   -0.30295    0.29111
  9 Ag    0.53555    0.21345    0.46635
 10 Ru    2.20771    1.28551    0.43778
 11 Ru   -1.84740    0.86405   -0.35156
 12 Pd    1.11362   -0.25678    0.04913
 13 Ru   -0.54093   -1.48923   -0.88506
 14 Ag   -0.42316    0.13512    0.25501
 15 Pd    0.19168   -0.58043    0.09515
 16 Ag   -0.18246   -0.36487    0.33433
 17 Pd   -0.36740    0.52812   -0.01183
 18 Ag   -0.00171   -0.01014    0.01584
 19 Ag    0.00132   -0.00487    0.01613
 20 Pt    0.00308   -0.01427    0.01778
 21 Ag    0.00115    0.00195   -0.00530
 22 Ag   -0.00417   -0.00803    0.00431
 23 Ag    0.00346   -0.00383    0.00358
 24 Pd   -0.01025    0.00056    0.02214
 25 Pd   -0.00269    0.00490    0.01511
 26 Ag    0.00293   -0.00289   -0.00285
 27 Pt   -0.02150   -0.00406    0.02527
 28 Pd    0.01062    0.01921    0.03958
 29 Pd   -0.00274   -0.00146    0.00909
 30 Pd   -0.01839    0.00339   -0.00466
 31 Ru   -0.01802    0.00514    0.00922
 32 Pt    0.00305    0.01512   -0.01506
 33 Ag   -0.01095    0.02450   -0.02955
 34 Pt   -0.03362   -0.00397    0.01026
 35 Ru   -0.00852    0.01276   -0.04290
 36 Pd   -0.01337   -0.01352    0.02334
 37 Ru   -0.01724    0.01216    0.04202
 38 Pd   -0.00587    0.01402    0.00076
 39 Pt    0.01490    0.00847    0.01054
 40 Pd   -0.01234   -0.00191    0.03977
 41 Pd    0.01096    0.00330    0.00446
 42 Pt    0.00213   -0.00167   -0.00280
 43 Pd    0.00138   -0.01152    0.01549
 44 Ru   -0.01117   -0.03132    0.03047
 45 O     0.03648    0.04216    0.01419

Timing:                                      incl.     excl.
-------------------------------------------------------------------
Density initialized from wave functions:    11.565    11.565   0.1% |
 Symmetrize density:                         0.000     0.000   0.0% |
Forces:                                     82.928    82.928   1.0% |
Hamiltonian:                                12.240     0.045   0.0% |
 Atomic:                                     2.882     1.109   0.0% |
  XC Correction:                             1.773     1.773   0.0% |
 Calculate atomic Hamiltonians:              4.122     4.122   0.0% |
 Communicate:                                0.217     0.217   0.0% |
 Initialize Hamiltonian:                     0.001     0.001   0.0% |
 Poisson:                                    0.028     0.028   0.0% |
 XC 3D grid:                                 4.945     4.945   0.1% |
LCAO initialization:                        62.396     3.671   0.0% |
 LCAO eigensolver:                           7.375     0.002   0.0% |
  Calculate projections:                     0.065     0.065   0.0% |
  DenseAtomicCorrection:                     0.057     0.057   0.0% |
  Distribute overlap matrix:                 0.514     0.514   0.0% |
  Orbital Layouts:                           0.460     0.460   0.0% |
  Potential matrix:                          6.225     6.225   0.1% |
  Sum over cells:                            0.052     0.052   0.0% |
 LCAO to grid:                              48.477    48.477   0.6% |
 Set positions (LCAO WFS):                   2.873     1.231   0.0% |
  Basic WFS set positions:                   0.002     0.002   0.0% |
  Basis functions set positions:             0.001     0.001   0.0% |
  P tci:                                     0.695     0.695   0.0% |
  ST tci:                                    0.715     0.715   0.0% |
  mktci:                                     0.228     0.228   0.0% |
PWDescriptor:                                0.048     0.048   0.0% |
Redistribute:                                0.026     0.026   0.0% |
SCF-cycle:                                8281.410    92.700   1.1% |
 Davidson:                                7556.025  1719.443  20.3% |-------|
  Apply H:                                1201.875  1163.043  13.7% |----|
   HMM T:                                   38.832    38.832   0.5% |
  Subspace diag:                          1085.347     0.040   0.0% |
   calc_h_matrix:                          628.696   231.989   2.7% ||
    Apply H:                               396.707   383.847   4.5% |-|
     HMM T:                                 12.861    12.861   0.2% |
   diagonalize:                             18.571    18.571   0.2% |
   rotate_psi:                             438.040   438.040   5.2% |-|
  calc. matrices:                         2350.586  1587.666  18.7% |------|
   Apply H:                                762.920   738.584   8.7% |--|
    HMM T:                                  24.336    24.336   0.3% |
  diagonalize:                             329.848   329.848   3.9% |-|
  rotate_psi:                              868.927   868.927  10.2% |---|
 Density:                                  327.189     0.006   0.0% |
  Atomic density matrices:                   2.051     2.051   0.0% |
  Mix:                                     100.992   100.992   1.2% |
  Multipole moments:                         0.159     0.159   0.0% |
  Pseudo density:                          223.982   223.976   2.6% ||
   Symmetrize density:                       0.006     0.006   0.0% |
 Hamiltonian:                              272.219     0.913   0.0% |
  Atomic:                                   67.973    26.597   0.3% |
   XC Correction:                           41.376    41.376   0.5% |
  Calculate atomic Hamiltonians:            90.231    90.231   1.1% |
  Communicate:                               5.296     5.296   0.1% |
  Poisson:                                   0.545     0.545   0.0% |
  XC 3D grid:                              107.261   107.261   1.3% ||
 Orthonormalize:                            33.276     0.002   0.0% |
  calc_s_matrix:                             5.164     5.164   0.1% |
  inverse-cholesky:                          0.435     0.435   0.0% |
  projections:                              17.959    17.959   0.2% |
  rotate_psi_s:                              9.716     9.716   0.1% |
Set symmetry:                                0.002     0.002   0.0% |
Other:                                      38.639    38.639   0.5% |
-------------------------------------------------------------------
Total:                                              8489.254 100.0%

Date: Fri Mar  4 03:31:19 2022
