
  ___ ___ ___ _ _ _  
 |   |   |_  | | | | 
 | | | | | . | | | | 
 |__ |  _|___|_____|  1.5.1
 |___|_|             

User:   clausen@node245.cluster
Date:   Thu Mar  3 20:07:22 2022
Arch:   x86_64
Pid:    152301
Python: 3.6.12
gpaw:   /software/kemi/gpaw/1.5.1/gpaw
_gpaw:  /software/kemi/gpaw/1.5.1/bin/gpaw-python
ase:    /software/kemi/ase/3.17.0/ase (version 3.17.0)
numpy:  /opt/rh/rh-python36/root/usr/lib64/python3.6/site-packages/numpy (version 1.13.1)
scipy:  /opt/rh/rh-python36/root/usr/lib64/python3.6/site-packages/scipy (version 0.19.1)
units:  Angstrom and eV
cores:  16

Input parameters:
  kpts: [4 4 1]
  mode: {ecut: 400.0,
         gammacentered: False,
         name: pw}
  xc: RPBE

System changes: positions, numbers, cell, pbc, initial_charges, initial_magmoms 

Initialize ...

Ag-setup:
  name: Silver
  id: c05e55bab2c3858b3f9398f6d75cb77c
  Z: 47
  valence: 17
  core: 30
  charge: 0.0
  file: /software/kemi/gpaw-setups/0.9.20000/Ag.RPBE.gz
  cutoffs: 1.25(comp), 2.35(filt), 2.19(core), lmax=2
  valence states:
                energy  radius
    5s(1.00)    -4.277   1.286
    4p(6.00)   -58.523   1.328
    5p(0.00)    -0.755   1.328
    4d(10.00)    -7.386   1.180
    *s          22.934   1.286
    *d          19.826   1.180

  Using partial waves for Ag as LCAO basis

Ir-setup:
  name: Iridium
  id: 73b603359d1d5397a85ae3c2440f9033
  Z: 77
  valence: 15
  core: 62
  charge: 0.0
  file: /software/kemi/gpaw-setups/0.9.20000/Ir.RPBE.gz
  cutoffs: 1.26(comp), 2.40(filt), 2.36(core), lmax=2
  valence states:
                energy  radius
    6s(2.00)    -6.219   1.296
    5p(6.00)   -54.684   1.328
    6p(0.00)    -1.215   1.328
    5d(7.00)    -7.118   1.286
    *s          20.992   1.296
    *d          20.093   1.286

  Using partial waves for Ir as LCAO basis

Pt-setup:
  name: Platinum
  id: f04f522592575c47ad794f6b4a415b4b
  Z: 78
  valence: 16
  core: 62
  charge: 0.0
  file: /software/kemi/gpaw-setups/0.9.20000/Pt.RPBE.gz
  cutoffs: 1.29(comp), 2.26(filt), 2.26(core), lmax=2
  valence states:
                energy  radius
    6s(1.00)    -5.516   1.307
    5p(6.00)   -55.971   1.371
    6p(0.00)    -0.856   1.371
    5d(9.00)    -6.087   1.307
    *s          21.695   1.307
    *d          21.125   1.307

  Using partial waves for Pt as LCAO basis

Ru-setup:
  name: Ruthenium
  id: 76477906e28f51dc1b29884d53556fe9
  Z: 44
  valence: 16
  core: 28
  charge: 0.0
  file: /software/kemi/gpaw-setups/0.9.20000/Ru.RPBE.gz
  cutoffs: 1.23(comp), 2.16(filt), 1.30(core), lmax=2
  valence states:
                energy  radius
    4s(2.00)   -76.255   1.281
    5s(1.00)    -4.126   1.281
    4p(6.00)   -46.371   1.286
    5p(0.00)    -0.913   1.286
    4d(7.00)    -5.146   1.254
    *d          22.066   1.254

  Using partial waves for Ru as LCAO basis

O-setup:
  name: Oxygen
  id: 08071ca1eed670e7821b24b7eb4d558c
  Z: 8
  valence: 6
  core: 2
  charge: 0.0
  file: /software/kemi/gpaw-setups/0.9.20000/O.RPBE.gz
  cutoffs: 0.67(comp), 1.17(filt), 0.83(core), lmax=2
  valence states:
                energy  radius
    2s(2.00)   -24.041   0.688
    2p(4.00)    -8.984   0.598
    *s           3.170   0.688
    *p          18.228   0.598
    *d           0.000   0.619

  Using partial waves for O as LCAO basis

Reference energy: -16429278.754816

Spin-paired calculation

Occupation numbers:
  Fermi-Dirac: width=0.1000 eV

Convergence criteria:
  Maximum total energy change: 0.0005 eV / electron
  Maximum integral of absolute density change: 0.0001 electrons
  Maximum integral of absolute eigenstate change: 4e-08 eV^2
  Maximum number of iterations: 333

Symmetries present (total): 1

  ( 1  0  0)
  ( 0  1  0)
  ( 0  0  1)

16 k-points: 4 x 4 x 1 Monkhorst-Pack grid
8 k-points in the irreducible part of the Brillouin zone
       k-points in crystal coordinates                weights
   0:     0.12500000   -0.37500000    0.00000000          2/16
   1:     0.12500000   -0.12500000    0.00000000          2/16
   2:     0.12500000    0.12500000    0.00000000          2/16
   3:     0.12500000    0.37500000    0.00000000          2/16
   4:     0.37500000   -0.37500000    0.00000000          2/16
   5:     0.37500000   -0.12500000    0.00000000          2/16
   6:     0.37500000    0.12500000    0.00000000          2/16
   7:     0.37500000    0.37500000    0.00000000          2/16

Wave functions: Plane wave expansion
  Cutoff energy: 400.000 eV
  Number of coefficients (min, max): 32722, 32776
  Pulay-stress correction: 0.000000 eV/Ang^3 (de/decut=0.000000)
  Using FFTW library
  ScaLapack parameters: grid=1x1, blocksize=None
  Wavefunction extrapolation:
    Improved wavefunction reuse through dual PAW basis 

Eigensolver
   Davidson(niter=2, smin=None, normalize=True) 

Densities:
  Coarse grid: 35*35*135 grid
  Fine grid: 70*70*270 grid
  Total Charge: 0.000000 

Density mixing:
  Method: separate
  Backend: pulay
  Linear mixing parameter: 0.05
  Mixing with 5 old densities
  Damping of long wave oscillations: 50 

Hamiltonian:
  XC and Coulomb potentials evaluated on a 70*70*270 grid
  Using the RPBE Exchange-Correlation functional
 

XC parameters: RPBE with 2 nearest neighbor stencil

Memory estimate:
  Process memory now: 164.15 MiB
  Calculator: 540.22 MiB
    Density: 48.12 MiB
      Arrays: 16.41 MiB
      Localized functions: 25.35 MiB
      Mixer: 6.36 MiB
    Hamiltonian: 11.50 MiB
      Arrays: 10.73 MiB
      XC: 0.00 MiB
      Poisson: 0.00 MiB
      vbar: 0.77 MiB
    Wavefunctions: 480.60 MiB
      Arrays psit_nG: 217.55 MiB
      Eigensolver: 248.94 MiB
      Projections: 2.73 MiB
      Projectors: 4.75 MiB
      PW-descriptor: 6.62 MiB

Total number of cores used: 16
Parallelization over k-points: 8
Domain decomposition: 1 x 1 x 2

Number of atoms: 46
Number of atomic orbitals: 547
Number of bands in calculation: 435
Bands to converge: occupied states only
Number of valence electrons: 718

... initialized

Initializing position-dependent things.

Density initialized from atomic densities
Creating initial wave functions:
  435 bands from LCAO basis set

                                             
                                             
                                             
                                             
                                   O         
                                             
                               Ag            
                  Ir    Ir                   
            Ag                               
                  AIr    IPt    Ru           
       Ir    IIr    IPt    Pt                
                                             
         Ru    Ir    PIr    Ag     Ir        
                Ag     Ag     Ag             
                                             
           Ir    PPt    RPt    Ir            
                                             
            Ir    IAg    AAg    Pt           
       Ag     Ir     Ir                      
             Ir     Ir     Ir                
        Ag     Ag     Ir                     
                                             
                                             
                                             
                                             
                                             

Positions:
   0 Ag     0.000000    1.621936   10.000000    ( 0.0000,  0.0000,  0.0000)
   1 Ag     2.809275    1.621936   10.000000    ( 0.0000,  0.0000,  0.0000)
   2 Ir     5.618550    1.621936   10.000000    ( 0.0000,  0.0000,  0.0000)
   3 Ir     1.404638    4.054840   10.000000    ( 0.0000,  0.0000,  0.0000)
   4 Ir     4.213913    4.054840   10.000000    ( 0.0000,  0.0000,  0.0000)
   5 Ir     7.023188    4.054840   10.000000    ( 0.0000,  0.0000,  0.0000)
   6 Ir     2.809275    6.487743   10.000000    ( 0.0000,  0.0000,  0.0000)
   7 Ag     5.618550    6.487743   10.000000    ( 0.0000,  0.0000,  0.0000)
   8 Pt     8.427826    6.487743   10.000000    ( 0.0000,  0.0000,  0.0000)
   9 Ag     0.000000    0.000000   12.293764    ( 0.0000,  0.0000,  0.0000)
  10 Ir     2.809275    0.000000   12.293764    ( 0.0000,  0.0000,  0.0000)
  11 Ir     5.618550    0.000000   12.293764    ( 0.0000,  0.0000,  0.0000)
  12 Ir     1.404638    2.432904   12.293764    ( 0.0000,  0.0000,  0.0000)
  13 Ag     4.213913    2.432904   12.293764    ( 0.0000,  0.0000,  0.0000)
  14 Ag     7.023188    2.432904   12.293764    ( 0.0000,  0.0000,  0.0000)
  15 Pt     2.809275    4.865807   12.293764    ( 0.0000,  0.0000,  0.0000)
  16 Ru     5.618550    4.865807   12.293764    ( 0.0000,  0.0000,  0.0000)
  17 Ir     8.427826    4.865807   12.293764    ( 0.0000,  0.0000,  0.0000)
  18 Ir     1.441638    0.791118   14.593247    ( 0.0000,  0.0000,  0.0000)
  19 Pt     4.193480    0.729862   14.611205    ( 0.0000,  0.0000,  0.0000)
  20 Pt     7.034823    0.803600   14.634811    ( 0.0000,  0.0000,  0.0000)
  21 Ag     2.789574    3.267050   14.608106    ( 0.0000,  0.0000,  0.0000)
  22 Ag     5.614143    3.230616   14.629701    ( 0.0000,  0.0000,  0.0000)
  23 Ag     8.464759    3.239382   14.607930    ( 0.0000,  0.0000,  0.0000)
  24 Pt     4.237230    5.675263   14.599690    ( 0.0000,  0.0000,  0.0000)
  25 Ag     7.020289    5.624637   14.588938    ( 0.0000,  0.0000,  0.0000)
  26 Ir     9.810296    5.749034   14.534386    ( 0.0000,  0.0000,  0.0000)
  27 Ru     0.088724    1.655821   16.925664    ( 0.0000,  0.0000,  0.0000)
  28 Ir     2.745717    1.627778   16.875164    ( 0.0000,  0.0000,  0.0000)
  29 Ir     5.551846    1.597836   16.889230    ( 0.0000,  0.0000,  0.0000)
  30 Ir     1.358794    4.007324   17.013226    ( 0.0000,  0.0000,  0.0000)
  31 Ir     4.198339    3.977911   16.957702    ( 0.0000,  0.0000,  0.0000)
  32 Pt     7.125382    4.056246   16.998429    ( 0.0000,  0.0000,  0.0000)
  33 Ag     2.759687    6.474835   16.802442    ( 0.0000,  0.0000,  0.0000)
  34 Ir     5.663661    6.563267   16.864024    ( 0.0000,  0.0000,  0.0000)
  35 Ru     8.399575    6.483077   16.866623    ( 0.0000,  0.0000,  0.0000)
  36 Ir     0.015859   -0.055829   18.998154    ( 0.0000,  0.0000,  0.0000)
  37 Ir     2.776668   -0.025110   18.984491    ( 0.0000,  0.0000,  0.0000)
  38 Pt     5.623976   -0.052286   19.132338    ( 0.0000,  0.0000,  0.0000)
  39 Ag     1.411190    2.424549   19.550242    ( 0.0000,  0.0000,  0.0000)
  40 Ir     4.228423    2.403175   19.018562    ( 0.0000,  0.0000,  0.0000)
  41 Pt     6.964575    2.313754   19.128521    ( 0.0000,  0.0000,  0.0000)
  42 Ir     2.920544    4.885225   19.043791    ( 0.0000,  0.0000,  0.0000)
  43 Ir     5.524960    4.949858   19.026821    ( 0.0000,  0.0000,  0.0000)
  44 Ag     8.407084    4.876484   19.535850    ( 0.0000,  0.0000,  0.0000)
  45 O      9.873176    5.674417   20.850242    ( 0.0000,  0.0000,  0.0000)

Unit cell:
           periodic     x           y           z      points  spacing
  1. axis:    yes    8.445283    0.000000    0.000000    35     0.2090
  2. axis:    yes    4.222641    7.313829    0.000000    35     0.2090
  3. axis:    no     0.000000    0.000000   29.175054   135     0.2161

  Lengths:   8.445283   8.445283  29.175054
  Angles:   90.000000  90.000000  60.000000

Effective grid spacing dv^(1/3) = 0.2217

                     log10-error:    total        iterations:
           time      wfs    density  energy       fermi  poisson
iter:   1  20:09:39  +0.17   +inf  -295.742790    3             
iter:   2  20:10:46  -1.10  -1.37  -296.241966    37            
iter:   3  20:11:53  -1.37  -1.31  -326.254743    35            
iter:   4  20:12:58  -1.76  -1.26  -274.635365    3             
iter:   5  20:14:03  -2.27  -1.49  -268.920706    37            
iter:   6  20:15:07  -2.48  -1.55  -267.392578    3             
iter:   7  20:16:13  -2.32  -1.59  -265.242413    3             
iter:   8  20:17:18  -2.47  -1.72  -264.031470    3             
iter:   9  20:18:23  -2.70  -1.87  -264.101785    3             
iter:  10  20:19:28  -2.55  -1.99  -265.325142    3             
iter:  11  20:20:33  -2.93  -1.96  -264.462964    3             
iter:  12  20:21:37  -3.58  -2.11  -264.214153    3             
iter:  13  20:22:42  -3.83  -2.20  -264.134120    3             
iter:  14  20:23:47  -3.49  -2.23  -264.030257    3             
iter:  15  20:24:52  -3.38  -2.36  -263.998279    2             
iter:  16  20:25:57  -3.63  -2.45  -263.998771    3             
iter:  17  20:27:02  -4.09  -2.47  -263.962758    3             
iter:  18  20:28:07  -3.75  -2.55  -264.041574    3             
iter:  19  20:29:11  -4.19  -2.44  -263.899068    3             
iter:  20  20:30:16  -3.92  -2.72  -263.878144    3             
iter:  21  20:31:20  -4.56  -2.78  -263.875051    3             
iter:  22  20:32:25  -4.63  -2.80  -263.870100    3             
iter:  23  20:33:31  -4.25  -2.85  -263.895128    2             
iter:  24  20:34:42  -4.70  -2.82  -263.871700    3             
iter:  25  20:35:51  -4.68  -2.93  -263.887389    3             
iter:  26  20:37:03  -5.17  -2.89  -263.869555    3             
iter:  27  20:38:15  -5.57  -3.13  -263.864839    2             
iter:  28  20:39:26  -5.60  -3.28  -263.866045    2             
iter:  29  20:40:38  -5.41  -3.29  -263.863988    3             
iter:  30  20:41:49  -5.23  -3.36  -263.865529    2             
iter:  31  20:42:55  -5.34  -3.12  -263.861232    3             
iter:  32  20:44:01  -6.27  -3.57  -263.859713    2             
iter:  33  20:45:09  -6.08  -3.69  -263.859210    2             
iter:  34  20:46:15  -6.61  -3.78  -263.859903    2             
iter:  35  20:47:23  -6.41  -3.80  -263.859317    2             
iter:  36  20:48:30  -6.84  -3.97  -263.859062    2             
iter:  37  20:49:38  -7.05  -3.96  -263.859667    2             
iter:  38  20:50:45  -6.68  -3.99  -263.859409    2             
iter:  39  20:51:45  -7.36  -4.16  -263.859426    2             
iter:  40  20:52:43  -7.49  -4.26  -263.859652    2             

Converged after 40 iterations.

Dipole moment: (22.668204, 18.588083, -0.298609) |e|*Ang

Energy contributions relative to reference atoms: (reference = -16429278.754816)

Kinetic:       -151.111748
Potential:      +94.487249
External:        +0.000000
XC:            -199.766410
Entropy (-ST):   -2.109744
Local:           -6.413872
--------------------------
Free energy:   -264.914525
Extrapolated:  -263.859652

Fermi level: 1.21199

Showing only first 2 kpts
 Kpt  Band  Eigenvalues  Occupancy
  0   357      1.22810    0.11496
  0   358      1.24430    0.10498
  0   359      1.28432    0.08167
  0   360      1.29729    0.07471

  1   357      1.09623    0.19022
  1   358      1.13931    0.16853
  1   359      1.16832    0.15187
  1   360      1.19631    0.13478



Forces in eV/Ang:
  0 Ag   -0.41640    0.15839   -1.05269
  1 Ag    0.24746    0.22616   -0.86416
  2 Ir    0.49788   -0.17277    0.04109
  3 Ir   -0.10849    1.23908    1.39978
  4 Ir    0.42021    0.40565    0.88017
  5 Ir   -0.32437   -0.02092    1.21744
  6 Ir   -1.71874   -0.50829    0.73974
  7 Ag   -0.12182   -0.33617   -0.95269
  8 Pt    1.05993   -0.39118    0.48972
  9 Ag    0.13248    0.01449    0.16577
 10 Ir   -0.01676   -0.41053    0.98157
 11 Ir   -0.63901   -0.78747   -0.52861
 12 Ir    0.38333    0.16116    0.17124
 13 Ag   -0.01281   -0.03812    0.15616
 14 Ag    0.05530    0.08377    0.12763
 15 Pt   -0.15117   -0.02963   -0.61036
 16 Ru    0.62703    0.48327   -1.39122
 17 Ir    0.13242    0.29653   -1.25882
 18 Ir   -0.01161    0.02266    0.01685
 19 Pt    0.01381    0.07138    0.04615
 20 Pt   -0.01218    0.03401    0.05896
 21 Ag    0.03294    0.00452    0.04568
 22 Ag    0.06403   -0.00766   -0.00504
 23 Ag   -0.00588    0.00879    0.00134
 24 Pt    0.02787   -0.02584    0.06007
 25 Ag   -0.00654   -0.03762    0.01179
 26 Ir    0.02372   -0.05709   -0.00546
 27 Ru    0.01156    0.00764    0.05529
 28 Ir    0.01607    0.02538    0.06213
 29 Ir    0.07161   -0.34459    0.32328
 30 Ir    0.02688   -0.02980   -0.01947
 31 Ir   -0.06539    0.23396   -0.12497
 32 Pt   -0.06330    0.00305    0.11881
 33 Ag    0.02472   -0.08153   -0.08015
 34 Ir   -0.01402   -0.06288    0.09401
 35 Ru    0.02279   -0.01045   -0.08914
 36 Ir    0.27209    0.16092   -0.06189
 37 Ir   -0.22455    0.09737   -0.11990
 38 Pt   -0.26025   -0.03324    0.86415
 39 Ag   -0.01670   -0.14902   -0.02841
 40 Ir   -0.01430   -0.03531    0.00962
 41 Pt    0.04968   -0.02035    0.00812
 42 Ir   -0.54824   -0.20754    1.37812
 43 Ir   -0.06137    0.00901   -0.08201
 44 Ag   -0.72336   -0.47261   -0.07672
 45 O     1.29138    0.55470   -2.06373

System changes: positions 

Initializing position-dependent things.

Density initialized from wave functions
                                             
                                             
                                             
                                             
                                   O         
                                             
                               Ag            
                 Ir     Ir                   
            Ag           IPt                 
                  AIr           Ru           
       Ir    IIr    IPt    Pt                
                                             
         Ru    Ir    PIr    Ag     Ir        
                Ag     Ag     Ag             
                                             
           Ir    PPt    RPt    Ir            
                                             
            Ir    IAg    AAg    Pt           
       Ag     Ir     Ir                      
             Ir     Ir     Ir                
        Ag     Ag     Ir                     
                                             
                                             
                                             
                                             
                                             

Positions:
   0 Ag     0.000000    1.621936   10.000000    ( 0.0000,  0.0000,  0.0000)
   1 Ag     2.809275    1.621936   10.000000    ( 0.0000,  0.0000,  0.0000)
   2 Ir     5.618550    1.621936   10.000000    ( 0.0000,  0.0000,  0.0000)
   3 Ir     1.404638    4.054840   10.000000    ( 0.0000,  0.0000,  0.0000)
   4 Ir     4.213913    4.054840   10.000000    ( 0.0000,  0.0000,  0.0000)
   5 Ir     7.023188    4.054840   10.000000    ( 0.0000,  0.0000,  0.0000)
   6 Ir     2.809275    6.487743   10.000000    ( 0.0000,  0.0000,  0.0000)
   7 Ag     5.618550    6.487743   10.000000    ( 0.0000,  0.0000,  0.0000)
   8 Pt     8.427826    6.487743   10.000000    ( 0.0000,  0.0000,  0.0000)
   9 Ag     0.000000    0.000000   12.293764    ( 0.0000,  0.0000,  0.0000)
  10 Ir     2.809275    0.000000   12.293764    ( 0.0000,  0.0000,  0.0000)
  11 Ir     5.618550    0.000000   12.293764    ( 0.0000,  0.0000,  0.0000)
  12 Ir     1.404638    2.432904   12.293764    ( 0.0000,  0.0000,  0.0000)
  13 Ag     4.213913    2.432904   12.293764    ( 0.0000,  0.0000,  0.0000)
  14 Ag     7.023188    2.432904   12.293764    ( 0.0000,  0.0000,  0.0000)
  15 Pt     2.809275    4.865807   12.293764    ( 0.0000,  0.0000,  0.0000)
  16 Ru     5.618550    4.865807   12.293764    ( 0.0000,  0.0000,  0.0000)
  17 Ir     8.427826    4.865807   12.293764    ( 0.0000,  0.0000,  0.0000)
  18 Ir     1.440708    0.792933   14.594597    ( 0.0000,  0.0000,  0.0000)
  19 Pt     4.194586    0.735579   14.614901    ( 0.0000,  0.0000,  0.0000)
  20 Pt     7.033848    0.806324   14.639534    ( 0.0000,  0.0000,  0.0000)
  21 Ag     2.792212    3.267412   14.611765    ( 0.0000,  0.0000,  0.0000)
  22 Ag     5.619272    3.230003   14.629297    ( 0.0000,  0.0000,  0.0000)
  23 Ag     8.464289    3.240086   14.608037    ( 0.0000,  0.0000,  0.0000)
  24 Pt     4.239462    5.673193   14.604501    ( 0.0000,  0.0000,  0.0000)
  25 Ag     7.019766    5.621623   14.589882    ( 0.0000,  0.0000,  0.0000)
  26 Ir     9.812197    5.744461   14.533948    ( 0.0000,  0.0000,  0.0000)
  27 Ru     0.089650    1.656433   16.930093    ( 0.0000,  0.0000,  0.0000)
  28 Ir     2.747004    1.629810   16.880140    ( 0.0000,  0.0000,  0.0000)
  29 Ir     5.557582    1.570234   16.915124    ( 0.0000,  0.0000,  0.0000)
  30 Ir     1.360947    4.004937   17.011667    ( 0.0000,  0.0000,  0.0000)
  31 Ir     4.193101    3.996651   16.947692    ( 0.0000,  0.0000,  0.0000)
  32 Pt     7.120311    4.056490   17.007946    ( 0.0000,  0.0000,  0.0000)
  33 Ag     2.761668    6.468304   16.796022    ( 0.0000,  0.0000,  0.0000)
  34 Ir     5.662539    6.558230   16.871554    ( 0.0000,  0.0000,  0.0000)
  35 Ru     8.401400    6.482240   16.859483    ( 0.0000,  0.0000,  0.0000)
  36 Ir     0.037653   -0.042939   18.993197    ( 0.0000,  0.0000,  0.0000)
  37 Ir     2.758682   -0.017310   18.974887    ( 0.0000,  0.0000,  0.0000)
  38 Pt     5.603129   -0.054948   19.201558    ( 0.0000,  0.0000,  0.0000)
  39 Ag     1.409852    2.412612   19.547967    ( 0.0000,  0.0000,  0.0000)
  40 Ir     4.227278    2.400346   19.019333    ( 0.0000,  0.0000,  0.0000)
  41 Pt     6.968555    2.312123   19.129172    ( 0.0000,  0.0000,  0.0000)
  42 Ir     2.876630    4.868601   19.154179    ( 0.0000,  0.0000,  0.0000)
  43 Ir     5.520044    4.950580   19.020252    ( 0.0000,  0.0000,  0.0000)
  44 Ag     8.349142    4.838628   19.529705    ( 0.0000,  0.0000,  0.0000)
  45 O      9.976616    5.718849   20.684937    ( 0.0000,  0.0000,  0.0000)

Unit cell:
           periodic     x           y           z      points  spacing
  1. axis:    yes    8.445283    0.000000    0.000000    35     0.2090
  2. axis:    yes    4.222641    7.313829    0.000000    35     0.2090
  3. axis:    no     0.000000    0.000000   29.175054   135     0.2161

  Lengths:   8.445283   8.445283  29.175054
  Angles:   90.000000  90.000000  60.000000

Effective grid spacing dv^(1/3) = 0.2217

                     log10-error:    total        iterations:
           time      wfs    density  energy       fermi  poisson
iter:   1  20:54:06  -1.92   +inf  -268.048878    4             
iter:   2  20:55:03  -2.01  -1.99  -269.816195    37            
iter:   3  20:56:00  -2.07  -1.86  -285.193007    3             
iter:   4  20:56:58  -2.42  -1.53  -266.154670    3             
iter:   5  20:57:56  -3.26  -2.05  -264.878294    3             
iter:   6  20:59:05  -4.11  -2.47  -264.720184    3             
iter:   7  21:00:14  -4.11  -2.75  -264.677637    3             
iter:   8  21:01:24  -4.19  -2.83  -264.645477    2             
iter:   9  21:02:33  -4.14  -2.86  -264.693470    3             
iter:  10  21:03:42  -3.91  -2.69  -264.696959    3             
iter:  11  21:04:52  -4.49  -2.60  -264.619461    2             
iter:  12  21:06:01  -4.85  -3.04  -264.613137    3             
iter:  13  21:07:10  -5.47  -3.02  -264.605886    2             
iter:  14  21:08:19  -5.56  -3.26  -264.604738    2             
iter:  15  21:09:28  -5.00  -3.45  -264.608598    2             
iter:  16  21:10:39  -5.43  -3.34  -264.605048    3             
iter:  17  21:11:50  -5.30  -3.29  -264.606042    2             
iter:  18  21:13:00  -6.12  -3.56  -264.603664    2             
iter:  19  21:14:12  -6.45  -3.67  -264.604539    2             
iter:  20  21:15:21  -5.95  -3.73  -264.603347    2             
iter:  21  21:16:31  -6.53  -3.74  -264.603275    2             
iter:  22  21:17:40  -6.37  -3.87  -264.603240    2             
iter:  23  21:18:44  -6.44  -4.06  -264.603922    2             
iter:  24  21:19:52  -7.40  -4.15  -264.603380    2             

Converged after 24 iterations.

Dipole moment: (23.156578, 17.769677, -0.164408) |e|*Ang

Energy contributions relative to reference atoms: (reference = -16429278.754816)

Kinetic:       -155.595204
Potential:      +98.297400
External:        +0.000000
XC:            -199.908987
Entropy (-ST):   -2.112686
Local:           -6.340246
--------------------------
Free energy:   -265.659723
Extrapolated:  -264.603380

Fermi level: 1.27328

Showing only first 2 kpts
 Kpt  Band  Eigenvalues  Occupancy
  0   357      1.28648    0.11676
  0   358      1.30816    0.10342
  0   359      1.34368    0.08273
  0   360      1.36300    0.07240

  1   357      1.16079    0.18872
  1   358      1.19738    0.17028
  1   359      1.23086    0.15112
  1   360      1.26047    0.13299



Forces in eV/Ang:
  0 Ag   -0.41628    0.15764   -1.05865
  1 Ag    0.24695    0.22510   -0.87090
  2 Ir    0.49460   -0.17395    0.03387
  3 Ir   -0.10791    1.23203    1.38434
  4 Ir    0.41887    0.40344    0.86857
  5 Ir   -0.32639   -0.01829    1.20686
  6 Ir   -1.71435   -0.50645    0.73145
  7 Ag   -0.12186   -0.33654   -0.95080
  8 Pt    1.06049   -0.38790    0.47945
  9 Ag    0.12559    0.00981    0.18864
 10 Ir   -0.01023   -0.40854    0.99536
 11 Ir   -0.64028   -0.77747   -0.51699
 12 Ir    0.38910    0.15834    0.18555
 13 Ag   -0.01253   -0.03221    0.16500
 14 Ag    0.05510    0.07704    0.13302
 15 Pt   -0.13501   -0.03277   -0.61421
 16 Ru    0.62334    0.49331   -1.38098
 17 Ir    0.13008    0.30250   -1.25729
 18 Ir    0.00080    0.00419    0.00762
 19 Pt    0.02224   -0.00373    0.03404
 20 Pt    0.00362   -0.00051    0.01282
 21 Ag    0.01764   -0.01126   -0.00109
 22 Ag    0.04116   -0.06086    0.07074
 23 Ag    0.01304    0.01199    0.03961
 24 Pt    0.02143   -0.00843   -0.03000
 25 Ag    0.01466    0.01384    0.01795
 26 Ir   -0.00186    0.01107    0.00496
 27 Ru   -0.01899   -0.00467   -0.02629
 28 Ir    0.06221    0.09544   -0.03507
 29 Ir   -0.06074   -0.13265    0.17186
 30 Ir    0.00317    0.01906    0.09863
 31 Ir   -0.17682    0.06573    0.31760
 32 Pt   -0.08941   -0.02576   -0.05138
 33 Ag   -0.01284   -0.18280    0.43253
 34 Ir   -0.05797   -0.10460   -0.12385
 35 Ru    0.09245   -0.00604   -0.02411
 36 Ir    0.05457    0.08368   -0.00683
 37 Ir   -0.05807    0.03314    0.08043
 38 Pt   -0.15799    0.31454    0.15698
 39 Ag   -0.01761   -0.10060    0.00454
 40 Ir   -0.05551    0.06676   -0.01478
 41 Pt   -0.03739   -0.14091    0.02161
 42 Ir   -0.02781    0.05560    0.60336
 43 Ir   -0.38991   -0.07106    0.01241
 44 Ag   -0.67168   -0.32460   -0.05738
 45 O     1.31998   -0.03988   -1.31426

System changes: positions 

Initializing position-dependent things.

Density initialized from wave functions
                                              
                                              
                                              
                                              
                                    O         
                                              
                  Ir           Ag             
                        Ir                    
            Ag    AIr     Pt    Ru            
                                              
       Ir    IIr    IPt     Pt                
         Ru                                   
               Ir     Ir    Ag      Ir        
                Ag     Ag      Ag             
                                              
           Ir     Pt     Pt    Ir             
                                              
            Ir     Ag     Ag     Pt           
       Ag    IIr    IIr    Ir                 
                                              
        Ag     Ag     Ir                      
                                              
                                              
                                              
                                              
                                              

Positions:
   0 Ag     0.000000    1.621936   10.000000    ( 0.0000,  0.0000,  0.0000)
   1 Ag     2.809275    1.621936   10.000000    ( 0.0000,  0.0000,  0.0000)
   2 Ir     5.618550    1.621936   10.000000    ( 0.0000,  0.0000,  0.0000)
   3 Ir     1.404638    4.054840   10.000000    ( 0.0000,  0.0000,  0.0000)
   4 Ir     4.213913    4.054840   10.000000    ( 0.0000,  0.0000,  0.0000)
   5 Ir     7.023188    4.054840   10.000000    ( 0.0000,  0.0000,  0.0000)
   6 Ir     2.809275    6.487743   10.000000    ( 0.0000,  0.0000,  0.0000)
   7 Ag     5.618550    6.487743   10.000000    ( 0.0000,  0.0000,  0.0000)
   8 Pt     8.427826    6.487743   10.000000    ( 0.0000,  0.0000,  0.0000)
   9 Ag     0.000000    0.000000   12.293764    ( 0.0000,  0.0000,  0.0000)
  10 Ir     2.809275    0.000000   12.293764    ( 0.0000,  0.0000,  0.0000)
  11 Ir     5.618550    0.000000   12.293764    ( 0.0000,  0.0000,  0.0000)
  12 Ir     1.404638    2.432904   12.293764    ( 0.0000,  0.0000,  0.0000)
  13 Ag     4.213913    2.432904   12.293764    ( 0.0000,  0.0000,  0.0000)
  14 Ag     7.023188    2.432904   12.293764    ( 0.0000,  0.0000,  0.0000)
  15 Pt     2.809275    4.865807   12.293764    ( 0.0000,  0.0000,  0.0000)
  16 Ru     5.618550    4.865807   12.293764    ( 0.0000,  0.0000,  0.0000)
  17 Ir     8.427826    4.865807   12.293764    ( 0.0000,  0.0000,  0.0000)
  18 Ir     1.439779    0.794749   14.595947    ( 0.0000,  0.0000,  0.0000)
  19 Pt     4.195693    0.741297   14.618597    ( 0.0000,  0.0000,  0.0000)
  20 Pt     7.032873    0.809048   14.644257    ( 0.0000,  0.0000,  0.0000)
  21 Ag     2.794850    3.267774   14.615424    ( 0.0000,  0.0000,  0.0000)
  22 Ag     5.624401    3.229389   14.628893    ( 0.0000,  0.0000,  0.0000)
  23 Ag     8.463818    3.240789   14.608145    ( 0.0000,  0.0000,  0.0000)
  24 Pt     4.241695    5.671124   14.609313    ( 0.0000,  0.0000,  0.0000)
  25 Ag     7.019242    5.618609   14.590827    ( 0.0000,  0.0000,  0.0000)
  26 Ir     9.814097    5.739888   14.533511    ( 0.0000,  0.0000,  0.0000)
  27 Ru     0.090576    1.657045   16.934522    ( 0.0000,  0.0000,  0.0000)
  28 Ir     2.748291    1.631843   16.885117    ( 0.0000,  0.0000,  0.0000)
  29 Ir     5.563318    1.542632   16.941019    ( 0.0000,  0.0000,  0.0000)
  30 Ir     1.363100    4.002551   17.010107    ( 0.0000,  0.0000,  0.0000)
  31 Ir     4.187864    4.015392   16.937682    ( 0.0000,  0.0000,  0.0000)
  32 Pt     7.115241    4.056734   17.017463    ( 0.0000,  0.0000,  0.0000)
  33 Ag     2.763648    6.461774   16.789602    ( 0.0000,  0.0000,  0.0000)
  34 Ir     5.661416    6.553194   16.879084    ( 0.0000,  0.0000,  0.0000)
  35 Ru     8.403226    6.481403   16.852343    ( 0.0000,  0.0000,  0.0000)
  36 Ir     0.059448   -0.030049   18.988240    ( 0.0000,  0.0000,  0.0000)
  37 Ir     2.740695   -0.009511   18.965283    ( 0.0000,  0.0000,  0.0000)
  38 Pt     5.582283   -0.057611   19.270777    ( 0.0000,  0.0000,  0.0000)
  39 Ag     1.408515    2.400675   19.545691    ( 0.0000,  0.0000,  0.0000)
  40 Ir     4.226132    2.397518   19.020103    ( 0.0000,  0.0000,  0.0000)
  41 Pt     6.972534    2.310493   19.129822    ( 0.0000,  0.0000,  0.0000)
  42 Ir     2.832716    4.851977   19.264567    ( 0.0000,  0.0000,  0.0000)
  43 Ir     5.515128    4.951301   19.013683    ( 0.0000,  0.0000,  0.0000)
  44 Ag     8.291201    4.800772   19.523560    ( 0.0000,  0.0000,  0.0000)
  45 O     10.080056    5.763281   20.519631    ( 0.0000,  0.0000,  0.0000)

Unit cell:
           periodic     x           y           z      points  spacing
  1. axis:    yes    8.445283    0.000000    0.000000    35     0.2090
  2. axis:    yes    4.222641    7.313829    0.000000    35     0.2090
  3. axis:    no     0.000000    0.000000   29.175054   135     0.2161

  Lengths:   8.445283   8.445283  29.175054
  Angles:   90.000000  90.000000  60.000000

Effective grid spacing dv^(1/3) = 0.2217

                     log10-error:    total        iterations:
           time      wfs    density  energy       fermi  poisson
iter:   1  21:21:26  -1.90   +inf  -272.165246    4             
iter:   2  21:22:31  -1.21  -1.78  -383.236868    37            
iter:   3  21:23:36  -1.49  -1.19  -274.294534    34            
iter:   4  21:24:40  -2.47  -1.72  -265.823317    36            
iter:   5  21:25:45  -3.29  -2.18  -265.191082    3             
iter:   6  21:26:50  -3.75  -2.37  -264.923457    3             
iter:   7  21:27:54  -4.00  -2.65  -264.874526    3             
iter:   8  21:29:00  -3.88  -2.73  -265.015717    3             
iter:   9  21:30:05  -3.98  -2.42  -264.851337    3             
iter:  10  21:31:10  -4.19  -2.74  -264.812266    3             
iter:  11  21:32:15  -4.11  -2.88  -264.796154    3             
iter:  12  21:33:19  -4.67  -2.93  -264.783898    2             
iter:  13  21:34:24  -5.18  -3.15  -264.781142    2             
iter:  14  21:35:29  -5.56  -3.31  -264.781345    2             
iter:  15  21:36:35  -5.51  -3.21  -264.785521    2             
iter:  16  21:37:39  -5.17  -3.25  -264.781317    3             
iter:  17  21:38:45  -5.84  -3.51  -264.779664    3             
iter:  18  21:39:50  -5.51  -3.44  -264.781000    2             
iter:  19  21:40:55  -5.80  -3.69  -264.780492    2             
iter:  20  21:42:01  -6.22  -3.72  -264.780031    2             
iter:  21  21:43:07  -6.25  -3.73  -264.782633    2             
iter:  22  21:44:12  -6.46  -3.53  -264.780260    2             
iter:  23  21:45:16  -5.97  -3.92  -264.779510    2             
iter:  24  21:46:21  -6.76  -3.86  -264.780229    2             
iter:  25  21:47:26  -6.60  -4.04  -264.779623    2             
iter:  26  21:48:31  -6.91  -4.20  -264.779675    2             
iter:  27  21:49:36  -6.95  -4.37  -264.780110    2             
iter:  28  21:50:42  -7.51  -4.21  -264.779633    2             

Converged after 28 iterations.

Dipole moment: (23.784487, 16.981997, -0.036373) |e|*Ang

Energy contributions relative to reference atoms: (reference = -16429278.754816)

Kinetic:       -145.598377
Potential:      +89.687834
External:        +0.000000
XC:            -201.425484
Entropy (-ST):   -2.107456
Local:           -6.389878
--------------------------
Free energy:   -265.833361
Extrapolated:  -264.779633

Fermi level: 1.34076

Showing only first 2 kpts
 Kpt  Band  Eigenvalues  Occupancy
  0   357      1.34892    0.11990
  0   358      1.36611    0.10924
  0   359      1.41035    0.08318
  0   360      1.43768    0.06876

  1   357      1.22822    0.18875
  1   358      1.26457    0.17044
  1   359      1.30227    0.14876
  1   360      1.32292    0.13612



Forces in eV/Ang:
  0 Ag   -0.41606    0.15747   -1.05752
  1 Ag    0.24454    0.22378   -0.87047
  2 Ir    0.49643   -0.17144    0.04004
  3 Ir   -0.10582    1.22458    1.38970
  4 Ir    0.41769    0.40082    0.86858
  5 Ir   -0.32837   -0.02218    1.21221
  6 Ir   -1.70841   -0.50580    0.73241
  7 Ag   -0.12408   -0.33695   -0.94797
  8 Pt    1.05933   -0.38408    0.48201
  9 Ag    0.11898    0.00825    0.21092
 10 Ir   -0.00754   -0.40739    1.01157
 11 Ir   -0.64433   -0.76413   -0.49950
 12 Ir    0.39625    0.15288    0.19518
 13 Ag   -0.01394   -0.02997    0.17271
 14 Ag    0.05504    0.06645    0.13628
 15 Pt   -0.12077   -0.03602   -0.60795
 16 Ru    0.62413    0.49972   -1.37449
 17 Ir    0.13112    0.30719   -1.25525
 18 Ir    0.01962   -0.00974   -0.00346
 19 Pt    0.02603   -0.07482    0.01221
 20 Pt    0.02343   -0.02944   -0.04650
 21 Ag    0.00214   -0.03321   -0.04589
 22 Ag    0.00159   -0.10567    0.14898
 23 Ag    0.02826    0.00735    0.07539
 24 Pt    0.02797    0.01469   -0.14444
 25 Ag    0.03358    0.06838    0.02504
 26 Ir   -0.04127    0.08156   -0.01237
 27 Ru   -0.06061   -0.01120   -0.11646
 28 Ir    0.11213    0.17157   -0.13597
 29 Ir   -0.19228    0.11972   -0.02419
 30 Ir    0.00139    0.05983    0.17957
 31 Ir   -0.17375   -0.21923    0.64121
 32 Pt   -0.10860   -0.05546   -0.22510
 33 Ag   -0.04110   -0.22428    0.81473
 34 Ir   -0.09764   -0.15872   -0.36564
 35 Ru    0.12477   -0.01014    0.02686
 36 Ir   -0.07063    0.07480    0.00360
 37 Ir    0.15713    0.00334    0.33396
 38 Pt   -0.28395    1.60636   -1.11028
 39 Ag   -0.01261   -0.04673    0.04261
 40 Ir   -0.07676    0.21274   -0.12042
 41 Pt   -0.18115   -0.30650    0.02731
 42 Ir    1.22481   -0.29630   -0.84707
 43 Ir   -0.73441   -0.22113    0.09005
 44 Ag   -0.52134   -0.14481   -0.00258
 45 O     0.83399   -0.79220    0.83810

System changes: positions 

Initializing position-dependent things.

Density initialized from wave functions
                                             
                                             
                                             
                                             
                                   O         
                                             
                 Ir    Ir     Ag             
            Ag                               
                  AIr    IPt    Ru           
       Ir    IIr    IPt    Pt                
                                             
        Ru     Ir    PIr    Ag     Ir        
                                             
                Ag     Ag     Ag             
           Ir     Pt     Pt                  
                 Pt     Ru     Ir            
            Ir     Ag     Ag                 
                  Ir     Ag     Pt           
       Ag    IIr    IIr    Ir                
        Ag     Ag     Ir                     
                                             
                                             
                                             
                                             
                                             

Positions:
   0 Ag     0.000000    1.621936   10.000000    ( 0.0000,  0.0000,  0.0000)
   1 Ag     2.809275    1.621936   10.000000    ( 0.0000,  0.0000,  0.0000)
   2 Ir     5.618550    1.621936   10.000000    ( 0.0000,  0.0000,  0.0000)
   3 Ir     1.404638    4.054840   10.000000    ( 0.0000,  0.0000,  0.0000)
   4 Ir     4.213913    4.054840   10.000000    ( 0.0000,  0.0000,  0.0000)
   5 Ir     7.023188    4.054840   10.000000    ( 0.0000,  0.0000,  0.0000)
   6 Ir     2.809275    6.487743   10.000000    ( 0.0000,  0.0000,  0.0000)
   7 Ag     5.618550    6.487743   10.000000    ( 0.0000,  0.0000,  0.0000)
   8 Pt     8.427826    6.487743   10.000000    ( 0.0000,  0.0000,  0.0000)
   9 Ag     0.000000    0.000000   12.293764    ( 0.0000,  0.0000,  0.0000)
  10 Ir     2.809275    0.000000   12.293764    ( 0.0000,  0.0000,  0.0000)
  11 Ir     5.618550    0.000000   12.293764    ( 0.0000,  0.0000,  0.0000)
  12 Ir     1.404638    2.432904   12.293764    ( 0.0000,  0.0000,  0.0000)
  13 Ag     4.213913    2.432904   12.293764    ( 0.0000,  0.0000,  0.0000)
  14 Ag     7.023188    2.432904   12.293764    ( 0.0000,  0.0000,  0.0000)
  15 Pt     2.809275    4.865807   12.293764    ( 0.0000,  0.0000,  0.0000)
  16 Ru     5.618550    4.865807   12.293764    ( 0.0000,  0.0000,  0.0000)
  17 Ir     8.427826    4.865807   12.293764    ( 0.0000,  0.0000,  0.0000)
  18 Ir     1.440824    0.794825   14.596284    ( 0.0000,  0.0000,  0.0000)
  19 Pt     4.198107    0.738265   14.621126    ( 0.0000,  0.0000,  0.0000)
  20 Pt     7.034180    0.808064   14.642887    ( 0.0000,  0.0000,  0.0000)
  21 Ag     2.796168    3.265472   14.613632    ( 0.0000,  0.0000,  0.0000)
  22 Ag     5.626773    3.221292   14.639753    ( 0.0000,  0.0000,  0.0000)
  23 Ag     8.465704    3.241643   14.613777    ( 0.0000,  0.0000,  0.0000)
  24 Pt     4.244748    5.671303   14.600726    ( 0.0000,  0.0000,  0.0000)
  25 Ag     7.021500    5.622351   14.593096    ( 0.0000,  0.0000,  0.0000)
  26 Ir     9.811875    5.743920   14.532402    ( 0.0000,  0.0000,  0.0000)
  27 Ru     0.086493    1.656484   16.927840    ( 0.0000,  0.0000,  0.0000)
  28 Ir     2.757163    1.645446   16.877230    ( 0.0000,  0.0000,  0.0000)
  29 Ir     5.551594    1.539374   16.950603    ( 0.0000,  0.0000,  0.0000)
  30 Ir     1.364149    4.005935   17.022725    ( 0.0000,  0.0000,  0.0000)
  31 Ir     4.172691    4.007385   16.980787    ( 0.0000,  0.0000,  0.0000)
  32 Pt     7.104968    4.052733   17.004968    ( 0.0000,  0.0000,  0.0000)
  33 Ag     2.761474    6.442290   16.847139    ( 0.0000,  0.0000,  0.0000)
  34 Ir     5.653689    6.539223   16.855305    ( 0.0000,  0.0000,  0.0000)
  35 Ru     8.413271    6.480283   16.851196    ( 0.0000,  0.0000,  0.0000)
  36 Ir     0.063790   -0.018845   18.986329    ( 0.0000,  0.0000,  0.0000)
  37 Ir     2.744434   -0.005836   18.985804    ( 0.0000,  0.0000,  0.0000)
  38 Pt     5.552089    0.060224   19.218935    ( 0.0000,  0.0000,  0.0000)
  39 Ag     1.406993    2.391969   19.547848    ( 0.0000,  0.0000,  0.0000)
  40 Ir     4.219943    2.412036   19.011520    ( 0.0000,  0.0000,  0.0000)
  41 Pt     6.960863    2.287070   19.132131    ( 0.0000,  0.0000,  0.0000)
  42 Ir     2.904160    4.822722   19.250311    ( 0.0000,  0.0000,  0.0000)
  43 Ir     5.458561    4.935236   19.017468    ( 0.0000,  0.0000,  0.0000)
  44 Ag     8.227122    4.773412   19.520669    ( 0.0000,  0.0000,  0.0000)
  45 O     10.187286    5.724114   20.509095    ( 0.0000,  0.0000,  0.0000)

Unit cell:
           periodic     x           y           z      points  spacing
  1. axis:    yes    8.445283    0.000000    0.000000    35     0.2090
  2. axis:    yes    4.222641    7.313829    0.000000    35     0.2090
  3. axis:    no     0.000000    0.000000   29.175054   135     0.2161

  Lengths:   8.445283   8.445283  29.175054
  Angles:   90.000000  90.000000  60.000000

Effective grid spacing dv^(1/3) = 0.2217

                     log10-error:    total        iterations:
           time      wfs    density  energy       fermi  poisson
iter:   1  21:52:15  -1.69   +inf  -277.649826    3             
iter:   2  21:53:20  -0.84  -1.65  -483.781326    36            
iter:   3  21:54:25  -1.44  -1.07  -272.449524    37            
iter:   4  21:55:30  -2.17  -1.77  -265.523636    36            
iter:   5  21:56:34  -3.38  -2.34  -265.290780    3             
iter:   6  21:57:32  -3.78  -2.56  -265.183958    3             
iter:   7  21:58:29  -3.85  -2.72  -265.158411    2             
iter:   8  21:59:27  -3.89  -2.72  -265.165750    3             
iter:   9  22:00:24  -4.07  -2.63  -265.169693    3             
iter:  10  22:01:21  -4.13  -2.66  -265.097065    2             
iter:  11  22:02:20  -4.81  -3.12  -265.090351    3             
iter:  12  22:03:29  -5.13  -3.22  -265.088089    2             
iter:  13  22:04:40  -5.36  -3.32  -265.087555    2             
iter:  14  22:05:52  -5.10  -3.40  -265.090822    2             
iter:  15  22:07:03  -5.36  -3.14  -265.090925    2             
iter:  16  22:08:15  -5.53  -3.34  -265.087196    3             
iter:  17  22:09:26  -6.00  -3.53  -265.086929    2             
iter:  18  22:10:33  -6.05  -3.59  -265.086863    2             
iter:  19  22:11:39  -6.20  -3.78  -265.087253    2             
iter:  20  22:12:47  -6.68  -3.83  -265.086280    2             
iter:  21  22:13:53  -6.24  -3.82  -265.087188    2             
iter:  22  22:15:00  -6.67  -3.83  -265.086533    2             
iter:  23  22:16:09  -6.74  -4.03  -265.086358    2             
iter:  24  22:17:18  -7.09  -4.19  -265.086374    2             
iter:  25  22:18:26  -7.13  -4.23  -265.086483    2             
iter:  26  22:19:35  -7.00  -4.22  -265.085889    2             
iter:  27  22:20:44  -7.20  -3.97  -265.086337    2             
iter:  28  22:21:53  -7.39  -4.38  -265.086229    2             
iter:  29  22:23:01  -7.46  -4.34  -265.086211    2             

Converged after 29 iterations.

Dipole moment: (16.135306, 10.610626, -0.060043) |e|*Ang

Energy contributions relative to reference atoms: (reference = -16429278.754816)

Kinetic:       -143.007333
Potential:      +87.090488
External:        +0.000000
XC:            -201.740928
Entropy (-ST):   -2.097584
Local:           -6.379646
--------------------------
Free energy:   -266.135003
Extrapolated:  -265.086211

Fermi level: 1.33034

Showing only first 2 kpts
 Kpt  Band  Eigenvalues  Occupancy
  0   357      1.33716    0.12074
  0   358      1.35471    0.10985
  0   359      1.40875    0.07836
  0   360      1.43057    0.06712

  1   357      1.20988    0.19234
  1   358      1.26067    0.16687
  1   359      1.28546    0.15259
  1   360      1.31533    0.13437



Forces in eV/Ang:
  0 Ag   -0.41760    0.15784   -1.05331
  1 Ag    0.24780    0.22532   -0.86781
  2 Ir    0.49270   -0.17427    0.03932
  3 Ir   -0.10455    1.23381    1.38725
  4 Ir    0.41747    0.40254    0.87167
  5 Ir   -0.32789   -0.01854    1.21728
  6 Ir   -1.71392   -0.51102    0.73485
  7 Ag   -0.12329   -0.33769   -0.94808
  8 Pt    1.06165   -0.38875    0.48217
  9 Ag    0.12227    0.01981    0.19240
 10 Ir   -0.00504   -0.40611    1.01172
 11 Ir   -0.64138   -0.76477   -0.50705
 12 Ir    0.39011    0.16024    0.19883
 13 Ag   -0.00398   -0.02980    0.18706
 14 Ag    0.05873    0.07840    0.14623
 15 Pt   -0.13066   -0.04350   -0.59396
 16 Ru    0.62959    0.47713   -1.35532
 17 Ir    0.12851    0.30518   -1.23887
 18 Ir    0.01319    0.00650    0.03389
 19 Pt    0.01169   -0.02659   -0.02954
 20 Pt    0.01305   -0.17509    0.15792
 21 Ag    0.03155    0.05373   -0.00038
 22 Ag   -0.05972   -0.03012    0.15196
 23 Ag    0.04118    0.01688    0.02205
 24 Pt   -0.09579    0.01180    0.02629
 25 Ag    0.01352    0.00561   -0.03819
 26 Ir    0.09480    0.08209    0.10038
 27 Ru    0.03273   -0.03731   -0.05502
 28 Ir   -0.13571   -0.13398   -0.08950
 29 Ir   -0.04681    0.18392   -0.44831
 30 Ir   -0.18656   -0.00361    0.11192
 31 Ir   -0.11368   -0.15877   -0.32559
 32 Pt   -0.10660   -0.01019   -0.14187
 33 Ag   -0.08811   -0.05146    0.19528
 34 Ir    0.09825    0.04152    0.11690
 35 Ru   -0.03122   -0.09567    0.10528
 36 Ir   -0.00415    0.13922    0.00166
 37 Ir   -0.04790   -0.20429   -0.13913
 38 Pt   -0.16956   -0.64410    0.09459
 39 Ag   -0.05707    0.05683    0.03182
 40 Ir   -0.13102    0.21740    0.28231
 41 Pt    0.23498    0.12728    0.03204
 42 Ir    0.09364    0.10833   -0.17075
 43 Ir    0.22566    0.04301    0.14509
 44 Ag    0.02016    0.23204    0.13645
 45 O     0.29369   -0.08291   -0.29484

System changes: positions 

Initializing position-dependent things.

Density initialized from wave functions
                                             
                                             
                                             
                                             
                                   O         
                                             
                 Ir    Ir     Ag             
            Ag                               
                 AgIr    IPt   Ru            
       Ir    IIr    IPt    Pt                
                                             
        Ru     Ir    PIr    Ag    Ir         
                                             
                Ag     Ag     Ag             
           Ir     Pt     Pt                  
                 Pt     Ru     Ir            
            Ir     Ag     Ag                 
                  Ir     Ag    Pt            
       Ag    IIr    IIr    Ir                
        Ag     Ag     Ir                     
                                             
                                             
                                             
                                             
                                             

Positions:
   0 Ag     0.000000    1.621936   10.000000    ( 0.0000,  0.0000,  0.0000)
   1 Ag     2.809275    1.621936   10.000000    ( 0.0000,  0.0000,  0.0000)
   2 Ir     5.618550    1.621936   10.000000    ( 0.0000,  0.0000,  0.0000)
   3 Ir     1.404638    4.054840   10.000000    ( 0.0000,  0.0000,  0.0000)
   4 Ir     4.213913    4.054840   10.000000    ( 0.0000,  0.0000,  0.0000)
   5 Ir     7.023188    4.054840   10.000000    ( 0.0000,  0.0000,  0.0000)
   6 Ir     2.809275    6.487743   10.000000    ( 0.0000,  0.0000,  0.0000)
   7 Ag     5.618550    6.487743   10.000000    ( 0.0000,  0.0000,  0.0000)
   8 Pt     8.427826    6.487743   10.000000    ( 0.0000,  0.0000,  0.0000)
   9 Ag     0.000000    0.000000   12.293764    ( 0.0000,  0.0000,  0.0000)
  10 Ir     2.809275    0.000000   12.293764    ( 0.0000,  0.0000,  0.0000)
  11 Ir     5.618550    0.000000   12.293764    ( 0.0000,  0.0000,  0.0000)
  12 Ir     1.404638    2.432904   12.293764    ( 0.0000,  0.0000,  0.0000)
  13 Ag     4.213913    2.432904   12.293764    ( 0.0000,  0.0000,  0.0000)
  14 Ag     7.023188    2.432904   12.293764    ( 0.0000,  0.0000,  0.0000)
  15 Pt     2.809275    4.865807   12.293764    ( 0.0000,  0.0000,  0.0000)
  16 Ru     5.618550    4.865807   12.293764    ( 0.0000,  0.0000,  0.0000)
  17 Ir     8.427826    4.865807   12.293764    ( 0.0000,  0.0000,  0.0000)
  18 Ir     1.442335    0.795354   14.599410    ( 0.0000,  0.0000,  0.0000)
  19 Pt     4.199724    0.734811   14.618872    ( 0.0000,  0.0000,  0.0000)
  20 Pt     7.035745    0.791648   14.656799    ( 0.0000,  0.0000,  0.0000)
  21 Ag     2.799262    3.269809   14.612982    ( 0.0000,  0.0000,  0.0000)
  22 Ag     5.621647    3.216556   14.656386    ( 0.0000,  0.0000,  0.0000)
  23 Ag     8.469967    3.243369   14.617187    ( 0.0000,  0.0000,  0.0000)
  24 Pt     4.236621    5.672526   14.600784    ( 0.0000,  0.0000,  0.0000)
  25 Ag     7.023322    5.623933   14.590114    ( 0.0000,  0.0000,  0.0000)
  26 Ir     9.819923    5.752656   14.541347    ( 0.0000,  0.0000,  0.0000)
  27 Ru     0.088439    1.652898   16.920937    ( 0.0000,  0.0000,  0.0000)
  28 Ir     2.746862    1.636441   16.866843    ( 0.0000,  0.0000,  0.0000)
  29 Ir     5.544133    1.556713   16.910680    ( 0.0000,  0.0000,  0.0000)
  30 Ir     1.347211    4.006553   17.036178    ( 0.0000,  0.0000,  0.0000)
  31 Ir     4.158761    3.989975   16.962089    ( 0.0000,  0.0000,  0.0000)
  32 Pt     7.092892    4.050797   16.988428    ( 0.0000,  0.0000,  0.0000)
  33 Ag     2.752769    6.433056   16.879580    ( 0.0000,  0.0000,  0.0000)
  34 Ir     5.660833    6.539805   16.859779    ( 0.0000,  0.0000,  0.0000)
  35 Ru     8.412811    6.471278   16.860894    ( 0.0000,  0.0000,  0.0000)
  36 Ir     0.063466   -0.003915   18.986239    ( 0.0000,  0.0000,  0.0000)
  37 Ir     2.741811   -0.024013   18.978583    ( 0.0000,  0.0000,  0.0000)
  38 Pt     5.530050    0.030492   19.211531    ( 0.0000,  0.0000,  0.0000)
  39 Ag     1.401448    2.395580   19.551404    ( 0.0000,  0.0000,  0.0000)
  40 Ir     4.206457    2.435686   19.035231    ( 0.0000,  0.0000,  0.0000)
  41 Pt     6.979322    2.293013   19.135608    ( 0.0000,  0.0000,  0.0000)
  42 Ir     2.932482    4.826185   19.225971    ( 0.0000,  0.0000,  0.0000)
  43 Ir     5.465467    4.935167   19.032008    ( 0.0000,  0.0000,  0.0000)
  44 Ag     8.215816    4.789674   19.532746    ( 0.0000,  0.0000,  0.0000)
  45 O     10.235909    5.704741   20.487198    ( 0.0000,  0.0000,  0.0000)

Unit cell:
           periodic     x           y           z      points  spacing
  1. axis:    yes    8.445283    0.000000    0.000000    35     0.2090
  2. axis:    yes    4.222641    7.313829    0.000000    35     0.2090
  3. axis:    no     0.000000    0.000000   29.175054   135     0.2161

  Lengths:   8.445283   8.445283  29.175054
  Angles:   90.000000  90.000000  60.000000

Effective grid spacing dv^(1/3) = 0.2217

                     log10-error:    total        iterations:
           time      wfs    density  energy       fermi  poisson
iter:   1  22:24:41  -2.27   +inf  -266.111271    3             
iter:   2  22:25:49  -2.39  -2.17  -280.170695    3             
iter:   3  22:26:58  -2.53  -1.55  -266.141394    3             
iter:   4  22:28:06  -3.83  -2.13  -265.262770    3             
iter:   5  22:29:15  -4.11  -2.66  -265.202753    3             
iter:   6  22:30:23  -4.63  -2.84  -265.181153    3             
iter:   7  22:31:31  -4.58  -2.97  -265.167879    2             
iter:   8  22:32:40  -4.55  -3.09  -265.162782    2             
iter:   9  22:33:49  -4.91  -3.14  -265.185352    2             
iter:  10  22:34:58  -4.88  -2.93  -265.159233    2             
iter:  11  22:36:07  -5.46  -3.25  -265.157637    2             
iter:  12  22:37:17  -6.06  -3.53  -265.157550    2             
iter:  13  22:38:29  -5.96  -3.58  -265.157515    2             
iter:  14  22:39:40  -6.27  -3.66  -265.157087    2             
iter:  15  22:40:50  -5.98  -3.72  -265.159937    2             
iter:  16  22:42:01  -6.32  -3.52  -265.156773    2             
iter:  17  22:43:12  -6.54  -3.72  -265.157201    2             
iter:  18  22:44:19  -6.81  -4.03  -265.157244    2             
iter:  19  22:45:25  -7.06  -4.07  -265.157091    2             
iter:  20  22:46:32  -6.86  -4.16  -265.156871    2             
iter:  21  22:47:39  -7.38  -4.23  -265.157285    2             
iter:  22  22:48:44  -7.43  -4.13  -265.156780    2             

Converged after 22 iterations.

Dipole moment: (15.974055, 11.530684, -0.052031) |e|*Ang

Energy contributions relative to reference atoms: (reference = -16429278.754816)

Kinetic:       -145.264079
Potential:      +89.064119
External:        +0.000000
XC:            -201.527760
Entropy (-ST):   -2.098359
Local:           -6.379881
--------------------------
Free energy:   -266.205960
Extrapolated:  -265.156780

Fermi level: 1.33186

Showing only first 2 kpts
 Kpt  Band  Eigenvalues  Occupancy
  0   357      1.33937    0.12031
  0   358      1.35486    0.11069
  0   359      1.41164    0.07763
  0   360      1.42968    0.06831

  1   357      1.21671    0.18995
  1   358      1.26072    0.16768
  1   359      1.28935    0.15118
  1   360      1.31650    0.13458



Forces in eV/Ang:
  0 Ag   -0.41770    0.15928   -1.05390
  1 Ag    0.24770    0.22719   -0.86533
  2 Ir    0.49597   -0.17415    0.03637
  3 Ir   -0.10891    1.23522    1.38744
  4 Ir    0.41971    0.40188    0.87117
  5 Ir   -0.32779   -0.01231    1.22376
  6 Ir   -1.71511   -0.51243    0.73307
  7 Ag   -0.12416   -0.34080   -0.94959
  8 Pt    1.06428   -0.39109    0.48406
  9 Ag    0.11946    0.02655    0.20260
 10 Ir   -0.01160   -0.41558    0.99982
 11 Ir   -0.63340   -0.78193   -0.51304
 12 Ir    0.39342    0.15769    0.21391
 13 Ag    0.01309   -0.02372    0.19986
 14 Ag    0.04772    0.06677    0.21997
 15 Pt   -0.14568   -0.03629   -0.61844
 16 Ru    0.62283    0.45644   -1.32299
 17 Ir    0.14514    0.30716   -1.23545
 18 Ir   -0.01003   -0.00565   -0.01756
 19 Pt   -0.05383   -0.00053   -0.04595
 20 Pt    0.04307   -0.02238    0.10950
 21 Ag   -0.05393    0.00674   -0.03293
 22 Ag    0.03294    0.03607   -0.13676
 23 Ag    0.00929   -0.00041   -0.04036
 24 Pt   -0.01623    0.00837    0.12061
 25 Ag   -0.02120   -0.01620   -0.03288
 26 Ir    0.04732   -0.03246    0.05869
 27 Ru   -0.03797   -0.03180    0.01864
 28 Ir   -0.00130   -0.06107    0.08603
 29 Ir   -0.10942    0.07072    0.24393
 30 Ir   -0.11938   -0.01982    0.05170
 31 Ir    0.07604   -0.06312    0.00356
 32 Pt   -0.08855   -0.03334    0.02350
 33 Ag   -0.03292    0.03760   -0.07306
 34 Ir   -0.03402   -0.01972   -0.00050
 35 Ru   -0.04680   -0.07408    0.03173
 36 Ir    0.04332    0.06474    0.00558
 37 Ir   -0.04860   -0.01503    0.02923
 38 Pt   -0.03798   -0.09004   -0.00805
 39 Ag    0.02359    0.06570    0.01245
 40 Ir    0.20631   -0.05547   -0.16927
 41 Pt   -0.13863   -0.13680   -0.10366
 42 Ir   -0.04431   -0.05634   -0.03757
 43 Ir    0.20817   -0.00452   -0.19735
 44 Ag    0.05480    0.12703    0.13095
 45 O    -0.04523   -0.13744    0.07775

System changes: positions 

Initializing position-dependent things.

Density initialized from wave functions
                                             
                                             
                                             
                                             
                                   O         
                                             
                 Ir    Ir     Ag             
            Ag                               
                 AgIr    IPt   Ru            
       Ir    IIr    IPt    Pt                
                                             
        Ru     Ir    PIr    Ag    Ir         
                                             
                Ag     Ag     Ag             
           Ir     Pt     Pt                  
                 Pt     Ru     Ir            
            Ir     Ag     Ag                 
                  Ir     Ag    Pt            
       Ag    IIr    IIr    Ir                
        Ag     Ag     Ir                     
                                             
                                             
                                             
                                             
                                             

Positions:
   0 Ag     0.000000    1.621936   10.000000    ( 0.0000,  0.0000,  0.0000)
   1 Ag     2.809275    1.621936   10.000000    ( 0.0000,  0.0000,  0.0000)
   2 Ir     5.618550    1.621936   10.000000    ( 0.0000,  0.0000,  0.0000)
   3 Ir     1.404638    4.054840   10.000000    ( 0.0000,  0.0000,  0.0000)
   4 Ir     4.213913    4.054840   10.000000    ( 0.0000,  0.0000,  0.0000)
   5 Ir     7.023188    4.054840   10.000000    ( 0.0000,  0.0000,  0.0000)
   6 Ir     2.809275    6.487743   10.000000    ( 0.0000,  0.0000,  0.0000)
   7 Ag     5.618550    6.487743   10.000000    ( 0.0000,  0.0000,  0.0000)
   8 Pt     8.427826    6.487743   10.000000    ( 0.0000,  0.0000,  0.0000)
   9 Ag     0.000000    0.000000   12.293764    ( 0.0000,  0.0000,  0.0000)
  10 Ir     2.809275    0.000000   12.293764    ( 0.0000,  0.0000,  0.0000)
  11 Ir     5.618550    0.000000   12.293764    ( 0.0000,  0.0000,  0.0000)
  12 Ir     1.404638    2.432904   12.293764    ( 0.0000,  0.0000,  0.0000)
  13 Ag     4.213913    2.432904   12.293764    ( 0.0000,  0.0000,  0.0000)
  14 Ag     7.023188    2.432904   12.293764    ( 0.0000,  0.0000,  0.0000)
  15 Pt     2.809275    4.865807   12.293764    ( 0.0000,  0.0000,  0.0000)
  16 Ru     5.618550    4.865807   12.293764    ( 0.0000,  0.0000,  0.0000)
  17 Ir     8.427826    4.865807   12.293764    ( 0.0000,  0.0000,  0.0000)
  18 Ir     1.441802    0.794870   14.598503    ( 0.0000,  0.0000,  0.0000)
  19 Pt     4.195027    0.733712   14.613772    ( 0.0000,  0.0000,  0.0000)
  20 Pt     7.040095    0.785323   14.670197    ( 0.0000,  0.0000,  0.0000)
  21 Ag     2.794895    3.271609   14.609675    ( 0.0000,  0.0000,  0.0000)
  22 Ag     5.622996    3.219050   14.647596    ( 0.0000,  0.0000,  0.0000)
  23 Ag     8.471846    3.243695   14.614095    ( 0.0000,  0.0000,  0.0000)
  24 Pt     4.232816    5.673708   14.611994    ( 0.0000,  0.0000,  0.0000)
  25 Ag     7.021767    5.622845   14.586188    ( 0.0000,  0.0000,  0.0000)
  26 Ir     9.826309    5.751960   14.549081    ( 0.0000,  0.0000,  0.0000)
  27 Ru     0.085571    1.649058   16.920949    ( 0.0000,  0.0000,  0.0000)
  28 Ir     2.743677    1.627848   16.872186    ( 0.0000,  0.0000,  0.0000)
  29 Ir     5.532389    1.569223   16.921162    ( 0.0000,  0.0000,  0.0000)
  30 Ir     1.331785    4.004871   17.043881    ( 0.0000,  0.0000,  0.0000)
  31 Ir     4.163146    3.979105   16.956340    ( 0.0000,  0.0000,  0.0000)
  32 Pt     7.082406    4.047403   16.986422    ( 0.0000,  0.0000,  0.0000)
  33 Ag     2.747523    6.435357   16.878958    ( 0.0000,  0.0000,  0.0000)
  34 Ir     5.659915    6.539013   16.861496    ( 0.0000,  0.0000,  0.0000)
  35 Ru     8.407864    6.462280   16.866701    ( 0.0000,  0.0000,  0.0000)
  36 Ir     0.066015    0.004651   18.987076    ( 0.0000,  0.0000,  0.0000)
  37 Ir     2.737477   -0.030583   18.979061    ( 0.0000,  0.0000,  0.0000)
  38 Pt     5.523382    0.009723   19.207465    ( 0.0000,  0.0000,  0.0000)
  39 Ag     1.402345    2.403544   19.553479    ( 0.0000,  0.0000,  0.0000)
  40 Ir     4.222315    2.436116   19.026028    ( 0.0000,  0.0000,  0.0000)
  41 Pt     6.971564    2.283053   19.126834    ( 0.0000,  0.0000,  0.0000)
  42 Ir     2.934853    4.824038   19.211075    ( 0.0000,  0.0000,  0.0000)
  43 Ir     5.489051    4.935390   19.017755    ( 0.0000,  0.0000,  0.0000)
  44 Ag     8.223837    4.808671   19.548293    ( 0.0000,  0.0000,  0.0000)
  45 O     10.233950    5.686522   20.498046    ( 0.0000,  0.0000,  0.0000)

Unit cell:
           periodic     x           y           z      points  spacing
  1. axis:    yes    8.445283    0.000000    0.000000    35     0.2090
  2. axis:    yes    4.222641    7.313829    0.000000    35     0.2090
  3. axis:    no     0.000000    0.000000   29.175054   135     0.2161

  Lengths:   8.445283   8.445283  29.175054
  Angles:   90.000000  90.000000  60.000000

Effective grid spacing dv^(1/3) = 0.2217

                     log10-error:    total        iterations:
           time      wfs    density  energy       fermi  poisson
iter:   1  22:50:21  -2.63   +inf  -267.064098    3             
iter:   2  22:51:26  -1.74  -2.01  -329.522746    34            
iter:   3  22:52:31  -2.14  -1.29  -266.007357    37            
iter:   4  22:53:36  -3.10  -2.18  -265.234702    3             
iter:   5  22:54:41  -4.24  -2.77  -265.193705    3             
iter:   6  22:55:46  -4.90  -3.09  -265.190129    3             
iter:   7  22:56:50  -5.01  -3.17  -265.185102    2             
iter:   8  22:57:54  -4.61  -3.20  -265.182225    3             
iter:   9  22:58:59  -5.23  -3.43  -265.181574    2             
iter:  10  23:00:04  -5.80  -3.51  -265.179906    2             
iter:  11  23:01:10  -5.99  -3.57  -265.180705    2             
iter:  12  23:02:15  -6.25  -3.66  -265.180312    2             
iter:  13  23:03:21  -5.90  -3.76  -265.179632    2             
iter:  14  23:04:26  -6.52  -3.62  -265.180056    2             
iter:  15  23:05:31  -6.56  -3.94  -265.179658    2             
iter:  16  23:06:36  -6.88  -4.01  -265.179365    2             
iter:  17  23:07:41  -7.12  -3.88  -265.179607    2             
iter:  18  23:08:46  -7.20  -4.13  -265.179562    2             
iter:  19  23:09:52  -7.33  -4.25  -265.179401    2             
iter:  20  23:10:57  -6.71  -4.16  -265.179812    2             
iter:  21  23:12:02  -7.69  -4.33  -265.179610    2             

Converged after 21 iterations.

Dipole moment: (15.984084, 12.097431, -0.055603) |e|*Ang

Energy contributions relative to reference atoms: (reference = -16429278.754816)

Kinetic:       -144.292211
Potential:      +88.176471
External:        +0.000000
XC:            -201.637632
Entropy (-ST):   -2.095076
Local:           -6.378699
--------------------------
Free energy:   -266.227148
Extrapolated:  -265.179610

Fermi level: 1.33038

Showing only first 2 kpts
 Kpt  Band  Eigenvalues  Occupancy
  0   357      1.33884    0.11971
  0   358      1.35314    0.11083
  0   359      1.41207    0.07660
  0   360      1.42811    0.06835

  1   357      1.21478    0.19015
  1   358      1.26039    0.16704
  1   359      1.28952    0.15019
  1   360      1.31420    0.13508



Forces in eV/Ang:
  0 Ag   -0.41745    0.15745   -1.05442
  1 Ag    0.24695    0.22496   -0.86841
  2 Ir    0.49874   -0.17414    0.04638
  3 Ir   -0.10879    1.23562    1.38794
  4 Ir    0.41853    0.39985    0.87622
  5 Ir   -0.32969   -0.01334    1.23191
  6 Ir   -1.71305   -0.51097    0.73553
  7 Ag   -0.12480   -0.33680   -0.95373
  8 Pt    1.06260   -0.39049    0.48097
  9 Ag    0.10763    0.02078    0.23522
 10 Ir   -0.01405   -0.42058    0.99165
 11 Ir   -0.63062   -0.79108   -0.47495
 12 Ir    0.38651    0.15800    0.20417
 13 Ag    0.00937   -0.02525    0.18948
 14 Ag    0.05637    0.04137    0.23388
 15 Pt   -0.14183   -0.02156   -0.60373
 16 Ru    0.61204    0.46565   -1.33362
 17 Ir    0.15909    0.30741   -1.23116
 18 Ir   -0.01791    0.00156   -0.02034
 19 Pt    0.01581   -0.00576    0.03786
 20 Pt   -0.02782    0.08359    0.00282
 21 Ag   -0.02748   -0.03448    0.03201
 22 Ag    0.02515   -0.02703   -0.10105
 23 Ag   -0.02231   -0.01167   -0.01080
 24 Pt    0.02121   -0.02183    0.03887
 25 Ag    0.00559   -0.00614    0.00251
 26 Ir   -0.04614   -0.01406   -0.00901
 27 Ru    0.00386   -0.00158    0.01792
 28 Ir   -0.00946    0.02316    0.00472
 29 Ir   -0.01635   -0.14491   -0.03091
 30 Ir   -0.00419   -0.01379    0.02505
 31 Ir   -0.02420    0.06130   -0.04232
 32 Pt    0.03436   -0.04639   -0.01570
 33 Ag   -0.00592   -0.00081    0.00754
 34 Ir   -0.04725    0.01474   -0.06629
 35 Ru   -0.03132   -0.04675   -0.02922
 36 Ir    0.02336   -0.04596   -0.01551
 37 Ir   -0.02315    0.05623    0.05976
 38 Pt    0.00950    0.00151    0.04523
 39 Ag    0.03816    0.03364   -0.00361
 40 Ir    0.00243   -0.04859    0.07318
 41 Pt   -0.00517   -0.07209    0.00055
 42 Ir    0.02432    0.00615    0.13462
 43 Ir   -0.13249    0.01528   -0.06530
 44 Ag   -0.00943   -0.03507    0.09937
 45 O     0.15874   -0.11115   -0.15698

System changes: positions 

Initializing position-dependent things.

Density initialized from wave functions
                                             
                                             
                                             
                                             
                                   O         
                                             
                 Ir    Ir     Ag             
            Ag                               
                 AgIr    Pt    Ru            
       Ir    IIr    IPt    Pt                
                                             
        Ru     Ir    PIr   Ag     Ir         
                                             
                Ag     Ag     Ag             
           Ir     Pt     Pt                  
                 Pt     Ru     Ir            
            Ir     Ag     Ag                 
                  Ir     Ag    Pt            
       Ag    IIr    IIr    Ir                
        Ag     Ag     Ir                     
                                             
                                             
                                             
                                             
                                             

Positions:
   0 Ag     0.000000    1.621936   10.000000    ( 0.0000,  0.0000,  0.0000)
   1 Ag     2.809275    1.621936   10.000000    ( 0.0000,  0.0000,  0.0000)
   2 Ir     5.618550    1.621936   10.000000    ( 0.0000,  0.0000,  0.0000)
   3 Ir     1.404638    4.054840   10.000000    ( 0.0000,  0.0000,  0.0000)
   4 Ir     4.213913    4.054840   10.000000    ( 0.0000,  0.0000,  0.0000)
   5 Ir     7.023188    4.054840   10.000000    ( 0.0000,  0.0000,  0.0000)
   6 Ir     2.809275    6.487743   10.000000    ( 0.0000,  0.0000,  0.0000)
   7 Ag     5.618550    6.487743   10.000000    ( 0.0000,  0.0000,  0.0000)
   8 Pt     8.427826    6.487743   10.000000    ( 0.0000,  0.0000,  0.0000)
   9 Ag     0.000000    0.000000   12.293764    ( 0.0000,  0.0000,  0.0000)
  10 Ir     2.809275    0.000000   12.293764    ( 0.0000,  0.0000,  0.0000)
  11 Ir     5.618550    0.000000   12.293764    ( 0.0000,  0.0000,  0.0000)
  12 Ir     1.404638    2.432904   12.293764    ( 0.0000,  0.0000,  0.0000)
  13 Ag     4.213913    2.432904   12.293764    ( 0.0000,  0.0000,  0.0000)
  14 Ag     7.023188    2.432904   12.293764    ( 0.0000,  0.0000,  0.0000)
  15 Pt     2.809275    4.865807   12.293764    ( 0.0000,  0.0000,  0.0000)
  16 Ru     5.618550    4.865807   12.293764    ( 0.0000,  0.0000,  0.0000)
  17 Ir     8.427826    4.865807   12.293764    ( 0.0000,  0.0000,  0.0000)
  18 Ir     1.439963    0.794911   14.596392    ( 0.0000,  0.0000,  0.0000)
  19 Pt     4.194425    0.732900   14.615120    ( 0.0000,  0.0000,  0.0000)
  20 Pt     7.039705    0.789846   14.677057    ( 0.0000,  0.0000,  0.0000)
  21 Ag     2.790662    3.269299   14.611090    ( 0.0000,  0.0000,  0.0000)
  22 Ag     5.626365    3.217302   14.635127    ( 0.0000,  0.0000,  0.0000)
  23 Ag     8.470846    3.242920   14.612025    ( 0.0000,  0.0000,  0.0000)
  24 Pt     4.233229    5.672202   14.620567    ( 0.0000,  0.0000,  0.0000)
  25 Ag     7.021625    5.621801   14.584751    ( 0.0000,  0.0000,  0.0000)
  26 Ir     9.825256    5.750312   14.551856    ( 0.0000,  0.0000,  0.0000)
  27 Ru     0.084373    1.647105   16.922445    ( 0.0000,  0.0000,  0.0000)
  28 Ir     2.741953    1.626789   16.875003    ( 0.0000,  0.0000,  0.0000)
  29 Ir     5.525065    1.560188   16.925786    ( 0.0000,  0.0000,  0.0000)
  30 Ir     1.324308    4.002890   17.050412    ( 0.0000,  0.0000,  0.0000)
  31 Ir     4.161784    3.980207   16.951767    ( 0.0000,  0.0000,  0.0000)
  32 Pt     7.079488    4.041462   16.983987    ( 0.0000,  0.0000,  0.0000)
  33 Ag     2.744515    6.434725   16.882386    ( 0.0000,  0.0000,  0.0000)
  34 Ir     5.654754    6.538738   16.855535    ( 0.0000,  0.0000,  0.0000)
  35 Ru     8.403485    6.453745   16.866298    ( 0.0000,  0.0000,  0.0000)
  36 Ir     0.071095    0.006244   18.985634    ( 0.0000,  0.0000,  0.0000)
  37 Ir     2.732328   -0.027956   18.985137    ( 0.0000,  0.0000,  0.0000)
  38 Pt     5.517743    0.006957   19.211286    ( 0.0000,  0.0000,  0.0000)
  39 Ag     1.405957    2.408926   19.554114    ( 0.0000,  0.0000,  0.0000)
  40 Ir     4.229583    2.432715   19.027690    ( 0.0000,  0.0000,  0.0000)
  41 Pt     6.967013    2.270418   19.122911    ( 0.0000,  0.0000,  0.0000)
  42 Ir     2.939374    4.820615   19.222858    ( 0.0000,  0.0000,  0.0000)
  43 Ir     5.484728    4.935924   19.004994    ( 0.0000,  0.0000,  0.0000)
  44 Ag     8.218810    4.810243   19.563854    ( 0.0000,  0.0000,  0.0000)
  45 O     10.260923    5.668805   20.476949    ( 0.0000,  0.0000,  0.0000)

Unit cell:
           periodic     x           y           z      points  spacing
  1. axis:    yes    8.445283    0.000000    0.000000    35     0.2090
  2. axis:    yes    4.222641    7.313829    0.000000    35     0.2090
  3. axis:    no     0.000000    0.000000   29.175054   135     0.2161

  Lengths:   8.445283   8.445283  29.175054
  Angles:   90.000000  90.000000  60.000000

Effective grid spacing dv^(1/3) = 0.2217

                     log10-error:    total        iterations:
           time      wfs    density  energy       fermi  poisson
iter:   1  23:13:36  -3.04   +inf  -265.558381    3             
iter:   2  23:14:41  -2.62  -2.43  -273.591871    3             
iter:   3  23:15:47  -2.80  -1.67  -265.788314    3             
iter:   4  23:16:51  -3.72  -2.27  -265.252196    3             
iter:   5  23:17:56  -4.81  -2.79  -265.201079    3             
iter:   6  23:19:01  -5.18  -3.12  -265.192218    2             
iter:   7  23:20:07  -5.49  -3.29  -265.188273    2             
iter:   8  23:21:12  -5.32  -3.45  -265.185750    2             
iter:   9  23:22:17  -5.54  -3.37  -265.197544    2             
iter:  10  23:23:23  -5.49  -3.13  -265.185589    3             
iter:  11  23:24:28  -5.45  -3.57  -265.184246    2             
iter:  12  23:25:33  -6.06  -3.53  -265.183626    2             
iter:  13  23:26:38  -6.46  -3.71  -265.183748    2             
iter:  14  23:27:43  -6.81  -3.91  -265.183662    2             
iter:  15  23:28:50  -6.41  -3.97  -265.184706    2             
iter:  16  23:29:55  -7.20  -3.89  -265.183901    2             
iter:  17  23:31:01  -7.25  -4.19  -265.183805    2             
iter:  18  23:32:12  -6.89  -4.17  -265.184130    2             
iter:  19  23:33:24  -7.28  -4.24  -265.183984    2             
iter:  20  23:34:35  -7.79  -4.41  -265.183806    2             

Converged after 20 iterations.

Dipole moment: (15.269601, 11.950672, -0.032708) |e|*Ang

Energy contributions relative to reference atoms: (reference = -16429278.754816)

Kinetic:       -141.520472
Potential:      +85.733190
External:        +0.000000
XC:            -201.976760
Entropy (-ST):   -2.091143
Local:           -6.374192
--------------------------
Free energy:   -266.229377
Extrapolated:  -265.183806

Fermi level: 1.34169

Showing only first 2 kpts
 Kpt  Band  Eigenvalues  Occupancy
  0   357      1.34805    0.12103
  0   358      1.36326    0.11157
  0   359      1.42414    0.07620
  0   360      1.44022    0.06796

  1   357      1.22565    0.19035
  1   358      1.27389    0.16582
  1   359      1.29946    0.15101
  1   360      1.32545    0.13513



Forces in eV/Ang:
  0 Ag   -0.41753    0.15827   -1.05526
  1 Ag    0.24781    0.22519   -0.86833
  2 Ir    0.49658   -0.17548    0.04564
  3 Ir   -0.10829    1.23528    1.38032
  4 Ir    0.41741    0.39960    0.87394
  5 Ir   -0.33063   -0.01067    1.23030
  6 Ir   -1.71241   -0.51070    0.73326
  7 Ag   -0.12460   -0.33737   -0.95570
  8 Pt    1.06350   -0.39097    0.47990
  9 Ag    0.09712    0.01094    0.25541
 10 Ir   -0.01269   -0.41845    0.98804
 11 Ir   -0.63471   -0.79430   -0.46531
 12 Ir    0.38883    0.15869    0.19051
 13 Ag   -0.00346   -0.03126    0.17912
 14 Ag    0.06542    0.03057    0.20803
 15 Pt   -0.14112   -0.02065   -0.58519
 16 Ru    0.60662    0.47294   -1.35550
 17 Ir    0.16590    0.31023   -1.23997
 18 Ir   -0.00525   -0.00604   -0.00821
 19 Pt    0.01298   -0.01051    0.03379
 20 Pt   -0.03074    0.00551   -0.03977
 21 Ag    0.00762   -0.01823    0.02566
 22 Ag   -0.03411   -0.02958    0.01617
 23 Ag   -0.00959   -0.00416    0.01417
 24 Pt   -0.01743   -0.01921   -0.03711
 25 Ag    0.00121    0.00341    0.00428
 26 Ir   -0.02292    0.01279   -0.02172
 27 Ru    0.02547    0.00919    0.00320
 28 Ir   -0.01463    0.01714   -0.00926
 29 Ir   -0.00913   -0.08409   -0.11553
 30 Ir    0.01150    0.00221    0.00507
 31 Ir   -0.02797   -0.02959   -0.02241
 32 Pt    0.02317   -0.02979    0.01169
 33 Ag   -0.02040   -0.02639    0.03170
 34 Ir    0.01851    0.03597    0.01462
 35 Ru   -0.01685   -0.03002   -0.00190
 36 Ir    0.00639   -0.01386   -0.01518
 37 Ir   -0.01995    0.01133   -0.03630
 38 Pt   -0.01495    0.02404   -0.00551
 39 Ag    0.01126   -0.00244   -0.00553
 40 Ir   -0.06048    0.01786    0.03557
 41 Pt    0.07829    0.01429    0.02184
 42 Ir    0.33332   -0.22568   -0.28335
 43 Ir   -0.02113   -0.01355    0.01713
 44 Ag   -0.08860   -0.06948    0.02276
 45 O    -0.19905    0.03595    0.37674

System changes: positions 

Initializing position-dependent things.

Density initialized from wave functions
                                             
                                             
                                             
                                             
                                   O         
                                             
                 Ir    Ir     Ag             
            Ag                               
                 AgIr    Pt    Ru            
       Ir    IIr    IPt    Pt                
                                             
        Ru     Ir    PIr    Ag    Ir         
                                             
                Ag     Ag     Ag             
           Ir     Pt     Pt                  
                 Pt     Ru     Ir            
            Ir     Ag     Ag                 
                  Ir     Ag    Pt            
       Ag    IIr    IIr    Ir                
        Ag     Ag     Ir                     
                                             
                                             
                                             
                                             
                                             

Positions:
   0 Ag     0.000000    1.621936   10.000000    ( 0.0000,  0.0000,  0.0000)
   1 Ag     2.809275    1.621936   10.000000    ( 0.0000,  0.0000,  0.0000)
   2 Ir     5.618550    1.621936   10.000000    ( 0.0000,  0.0000,  0.0000)
   3 Ir     1.404638    4.054840   10.000000    ( 0.0000,  0.0000,  0.0000)
   4 Ir     4.213913    4.054840   10.000000    ( 0.0000,  0.0000,  0.0000)
   5 Ir     7.023188    4.054840   10.000000    ( 0.0000,  0.0000,  0.0000)
   6 Ir     2.809275    6.487743   10.000000    ( 0.0000,  0.0000,  0.0000)
   7 Ag     5.618550    6.487743   10.000000    ( 0.0000,  0.0000,  0.0000)
   8 Pt     8.427826    6.487743   10.000000    ( 0.0000,  0.0000,  0.0000)
   9 Ag     0.000000    0.000000   12.293764    ( 0.0000,  0.0000,  0.0000)
  10 Ir     2.809275    0.000000   12.293764    ( 0.0000,  0.0000,  0.0000)
  11 Ir     5.618550    0.000000   12.293764    ( 0.0000,  0.0000,  0.0000)
  12 Ir     1.404638    2.432904   12.293764    ( 0.0000,  0.0000,  0.0000)
  13 Ag     4.213913    2.432904   12.293764    ( 0.0000,  0.0000,  0.0000)
  14 Ag     7.023188    2.432904   12.293764    ( 0.0000,  0.0000,  0.0000)
  15 Pt     2.809275    4.865807   12.293764    ( 0.0000,  0.0000,  0.0000)
  16 Ru     5.618550    4.865807   12.293764    ( 0.0000,  0.0000,  0.0000)
  17 Ir     8.427826    4.865807   12.293764    ( 0.0000,  0.0000,  0.0000)
  18 Ir     1.440803    0.794892   14.597356    ( 0.0000,  0.0000,  0.0000)
  19 Pt     4.194700    0.733271   14.614504    ( 0.0000,  0.0000,  0.0000)
  20 Pt     7.039883    0.787780   14.673924    ( 0.0000,  0.0000,  0.0000)
  21 Ag     2.792595    3.270354   14.610444    ( 0.0000,  0.0000,  0.0000)
  22 Ag     5.624826    3.218100   14.640823    ( 0.0000,  0.0000,  0.0000)
  23 Ag     8.471303    3.243274   14.612970    ( 0.0000,  0.0000,  0.0000)
  24 Pt     4.233040    5.672890   14.616651    ( 0.0000,  0.0000,  0.0000)
  25 Ag     7.021690    5.622278   14.585407    ( 0.0000,  0.0000,  0.0000)
  26 Ir     9.825737    5.751065   14.550589    ( 0.0000,  0.0000,  0.0000)
  27 Ru     0.084920    1.647997   16.921762    ( 0.0000,  0.0000,  0.0000)
  28 Ir     2.742741    1.627273   16.873716    ( 0.0000,  0.0000,  0.0000)
  29 Ir     5.528410    1.564315   16.923674    ( 0.0000,  0.0000,  0.0000)
  30 Ir     1.327723    4.003794   17.047429    ( 0.0000,  0.0000,  0.0000)
  31 Ir     4.162406    3.979704   16.953856    ( 0.0000,  0.0000,  0.0000)
  32 Pt     7.080821    4.044176   16.985100    ( 0.0000,  0.0000,  0.0000)
  33 Ag     2.745889    6.435014   16.880820    ( 0.0000,  0.0000,  0.0000)
  34 Ir     5.657112    6.538864   16.858258    ( 0.0000,  0.0000,  0.0000)
  35 Ru     8.405485    6.457644   16.866482    ( 0.0000,  0.0000,  0.0000)
  36 Ir     0.068774    0.005516   18.986293    ( 0.0000,  0.0000,  0.0000)
  37 Ir     2.734680   -0.029156   18.982362    ( 0.0000,  0.0000,  0.0000)
  38 Pt     5.520319    0.008221   19.209541    ( 0.0000,  0.0000,  0.0000)
  39 Ag     1.404307    2.406468   19.553824    ( 0.0000,  0.0000,  0.0000)
  40 Ir     4.226263    2.434268   19.026931    ( 0.0000,  0.0000,  0.0000)
  41 Pt     6.969092    2.276189   19.124703    ( 0.0000,  0.0000,  0.0000)
  42 Ir     2.937309    4.822179   19.217476    ( 0.0000,  0.0000,  0.0000)
  43 Ir     5.486703    4.935680   19.010823    ( 0.0000,  0.0000,  0.0000)
  44 Ag     8.221106    4.809525   19.556746    ( 0.0000,  0.0000,  0.0000)
  45 O     10.248603    5.676898   20.486585    ( 0.0000,  0.0000,  0.0000)

Unit cell:
           periodic     x           y           z      points  spacing
  1. axis:    yes    8.445283    0.000000    0.000000    35     0.2090
  2. axis:    yes    4.222641    7.313829    0.000000    35     0.2090
  3. axis:    no     0.000000    0.000000   29.175054   135     0.2161

  Lengths:   8.445283   8.445283  29.175054
  Angles:   90.000000  90.000000  60.000000

Effective grid spacing dv^(1/3) = 0.2217

                     log10-error:    total        iterations:
           time      wfs    density  energy       fermi  poisson
iter:   1  23:36:16  -3.65   +inf  -265.271034    3             
iter:   2  23:37:28  -3.35  -2.71  -266.938417    2             
iter:   3  23:38:39  -3.57  -1.99  -265.251317    3             
iter:   4  23:39:44  -4.32  -2.78  -265.206516    3             
iter:   5  23:40:51  -5.26  -2.97  -265.187958    3             
iter:   6  23:41:57  -5.91  -3.48  -265.187543    2             
iter:   7  23:43:05  -6.08  -3.71  -265.187328    2             
iter:   8  23:44:12  -5.91  -3.82  -265.186865    2             
iter:   9  23:45:18  -6.06  -3.82  -265.190968    2             
iter:  10  23:46:26  -6.11  -3.43  -265.186526    2             
iter:  11  23:47:32  -6.23  -3.82  -265.187278    2             
iter:  12  23:48:32  -6.79  -4.00  -265.187233    2             
iter:  13  23:49:30  -7.21  -4.06  -265.186898    2             
[...]
  17 Ir     8.427826    4.865807   12.293764    ( 0.0000,  0.0000,  0.0000)
  18 Ir     1.437111    0.793066   14.594728    ( 0.0000,  0.0000,  0.0000)
  19 Pt     4.195490    0.730298   14.622164    ( 0.0000,  0.0000,  0.0000)
  20 Pt     7.034647    0.794519   14.677868    ( 0.0000,  0.0000,  0.0000)
  21 Ag     2.787987    3.264680   14.615715    ( 0.0000,  0.0000,  0.0000)
  22 Ag     5.623598    3.212698   14.627297    ( 0.0000,  0.0000,  0.0000)
  23 Ag     8.467561    3.241786   14.612188    ( 0.0000,  0.0000,  0.0000)
  24 Pt     4.231076    5.667221   14.624831    ( 0.0000,  0.0000,  0.0000)
  25 Ag     7.020390    5.620326   14.584577    ( 0.0000,  0.0000,  0.0000)
  26 Ir     9.820155    5.749813   14.551418    ( 0.0000,  0.0000,  0.0000)
  27 Ru     0.088354    1.646042   16.925426    ( 0.0000,  0.0000,  0.0000)
  28 Ir     2.736892    1.628297   16.876944    ( 0.0000,  0.0000,  0.0000)
  29 Ir     5.517727    1.541327   16.914456    ( 0.0000,  0.0000,  0.0000)
  30 Ir     1.320723    4.000919   17.053095    ( 0.0000,  0.0000,  0.0000)
  31 Ir     4.159398    3.975567   16.948321    ( 0.0000,  0.0000,  0.0000)
  32 Pt     7.080631    4.031124   16.984550    ( 0.0000,  0.0000,  0.0000)
  33 Ag     2.739615    6.430619   16.887467    ( 0.0000,  0.0000,  0.0000)
  34 Ir     5.652129    6.543317   16.852483    ( 0.0000,  0.0000,  0.0000)
  35 Ru     8.399314    6.439731   16.864671    ( 0.0000,  0.0000,  0.0000)
  36 Ir     0.074117    0.003841   18.984688    ( 0.0000,  0.0000,  0.0000)
  37 Ir     2.726002   -0.023108   18.984483    ( 0.0000,  0.0000,  0.0000)
  38 Pt     5.513296   -0.001562   19.219603    ( 0.0000,  0.0000,  0.0000)
  39 Ag     1.411815    2.413706   19.555671    ( 0.0000,  0.0000,  0.0000)
  40 Ir     4.227159    2.430046   19.029546    ( 0.0000,  0.0000,  0.0000)
  41 Pt     6.974532    2.257642   19.122204    ( 0.0000,  0.0000,  0.0000)
  42 Ir     2.958727    4.803972   19.217719    ( 0.0000,  0.0000,  0.0000)
  43 Ir     5.486287    4.934914   19.000938    ( 0.0000,  0.0000,  0.0000)
  44 Ag     8.207484    4.803075   19.582716    ( 0.0000,  0.0000,  0.0000)
  45 O     10.259948    5.655239   20.492258    ( 0.0000,  0.0000,  0.0000)

Unit cell:
           periodic     x           y           z      points  spacing
  1. axis:    yes    8.445283    0.000000    0.000000    35     0.2090
  2. axis:    yes    4.222641    7.313829    0.000000    35     0.2090
  3. axis:    no     0.000000    0.000000   29.175054   135     0.2161

  Lengths:   8.445283   8.445283  29.175054
  Angles:   90.000000  90.000000  60.000000

Effective grid spacing dv^(1/3) = 0.2217

                     log10-error:    total        iterations:
           time      wfs    density  energy       fermi  poisson
iter:   1  00:29:04  -3.19   +inf  -265.230768    2             
iter:   2  00:30:10  -3.98  -2.91  -265.471438    2             
iter:   3  00:31:14  -4.16  -2.43  -265.233437    2             
iter:   4  00:32:19  -4.95  -2.79  -265.197623    3             
iter:   5  00:33:24  -5.32  -3.33  -265.195795    3             
iter:   6  00:34:29  -5.60  -3.45  -265.194910    2             
iter:   7  00:35:33  -5.75  -3.56  -265.194097    2             
iter:   8  00:36:38  -5.69  -3.67  -265.194920    2             
iter:   9  00:37:43  -6.09  -3.72  -265.193847    2             
iter:  10  00:38:48  -6.22  -3.53  -265.194118    2             
iter:  11  00:39:53  -6.66  -3.97  -265.194102    2             
iter:  12  00:40:58  -6.85  -3.98  -265.194090    2             
iter:  13  00:42:03  -6.93  -4.05  -265.193793    2             
iter:  14  00:43:08  -7.06  -4.09  -265.194104    2             
iter:  15  00:44:12  -7.29  -4.13  -265.193640    2             
iter:  16  00:45:16  -7.56  -4.07  -265.193892    2             

Converged after 16 iterations.

Dipole moment: (13.791583, 11.975154, -0.047005) |e|*Ang

Energy contributions relative to reference atoms: (reference = -16429278.754816)

Kinetic:       -143.287020
Potential:      +87.259029
External:        +0.000000
XC:            -201.731891
Entropy (-ST):   -2.089531
Local:           -6.389245
--------------------------
Free energy:   -266.238658
Extrapolated:  -265.193892

Fermi level: 1.33437

Showing only first 2 kpts
 Kpt  Band  Eigenvalues  Occupancy
  0   357      1.34002    0.12147
  0   358      1.35696    0.11094
  0   359      1.41666    0.07629
  0   360      1.43262    0.06810

  1   357      1.21956    0.18979
  1   358      1.26691    0.16563
  1   359      1.29184    0.15119
  1   360      1.31699    0.13584



Forces in eV/Ang:
  0 Ag   -0.41747    0.15783   -1.05485
  1 Ag    0.24868    0.22520   -0.86743
  2 Ir    0.49570   -0.17647    0.04779
  3 Ir   -0.10962    1.23783    1.38430
  4 Ir    0.41579    0.40072    0.87543
  5 Ir   -0.32859   -0.00959    1.23203
  6 Ir   -1.71185   -0.51070    0.74064
  7 Ag   -0.12503   -0.33664   -0.95720
  8 Pt    1.06349   -0.39142    0.48243
  9 Ag    0.08751   -0.00243    0.28021
 10 Ir   -0.00930   -0.41106    1.00673
 11 Ir   -0.63949   -0.79703   -0.45277
 12 Ir    0.39363    0.16487    0.20222
 13 Ag   -0.02255   -0.04478    0.18538
 14 Ag    0.07452    0.02509    0.18827
 15 Pt   -0.13977   -0.02515   -0.54900
 16 Ru    0.59737    0.47691   -1.35595
 17 Ir    0.16760    0.31206   -1.23939
 18 Ir    0.00520   -0.01872   -0.01144
 19 Pt   -0.07768   -0.00948   -0.07013
 20 Pt    0.05090   -0.09879   -0.03518
 21 Ag   -0.00871    0.00891   -0.03526
 22 Ag   -0.03081    0.02545    0.08178
 23 Ag    0.01083   -0.00717    0.00575
 24 Pt   -0.03957    0.02133   -0.05346
 25 Ag   -0.03767   -0.00558    0.00458
 26 Ir    0.05233   -0.01334   -0.03973
 27 Ru   -0.03701   -0.00682   -0.02265
 28 Ir    0.02131   -0.02444   -0.01899
 29 Ir    0.01674    0.08999    0.11178
 30 Ir    0.00924    0.03485    0.01623
 31 Ir    0.06242   -0.03960   -0.01295
 32 Pt   -0.06016   -0.02238    0.03400
 33 Ag    0.00914   -0.03116    0.02111
 34 Ir    0.04771   -0.05306    0.01146
 35 Ru   -0.01260   -0.01102    0.08084
 36 Ir   -0.06471   -0.04654    0.01775
 37 Ir    0.09687   -0.07656   -0.04682
 38 Pt   -0.00485   -0.05362    0.00038
 39 Ag   -0.03566    0.00185    0.02348
 40 Ir    0.10014   -0.08507   -0.04965
 41 Pt   -0.04711    0.01220   -0.03899
 42 Ir   -0.16295    0.12558    0.04705
 43 Ir    0.09683   -0.02293   -0.01920
 44 Ag   -0.02030   -0.00489    0.02028
 45 O    -0.01775   -0.02123   -0.05067

System changes: positions 

Initializing position-dependent things.

Density initialized from wave functions
                                             
                                             
                                             
                                             
                                   O         
                                             
                 Ir    Ir     Ag             
            Ag                               
                 AgIr    Pt    Ru            
       Ir    IIr    IPt    Pt                
                                             
        Ru     Ir    Ir    Ag     Ir         
                                             
                Ag     Ag     Ag             
           Ir     Pt     Pt                  
                 Pt     Ru     Ir            
            Ir     Ag     Ag                 
                  Ir     Ag    Pt            
       Ag    IIr    IIr    Ir                
        Ag     Ag     Ir                     
                                             
                                             
                                             
                                             
                                             

Positions:
   0 Ag     0.000000    1.621936   10.000000    ( 0.0000,  0.0000,  0.0000)
   1 Ag     2.809275    1.621936   10.000000    ( 0.0000,  0.0000,  0.0000)
   2 Ir     5.618550    1.621936   10.000000    ( 0.0000,  0.0000,  0.0000)
   3 Ir     1.404638    4.054840   10.000000    ( 0.0000,  0.0000,  0.0000)
   4 Ir     4.213913    4.054840   10.000000    ( 0.0000,  0.0000,  0.0000)
   5 Ir     7.023188    4.054840   10.000000    ( 0.0000,  0.0000,  0.0000)
   6 Ir     2.809275    6.487743   10.000000    ( 0.0000,  0.0000,  0.0000)
   7 Ag     5.618550    6.487743   10.000000    ( 0.0000,  0.0000,  0.0000)
   8 Pt     8.427826    6.487743   10.000000    ( 0.0000,  0.0000,  0.0000)
   9 Ag     0.000000    0.000000   12.293764    ( 0.0000,  0.0000,  0.0000)
  10 Ir     2.809275    0.000000   12.293764    ( 0.0000,  0.0000,  0.0000)
  11 Ir     5.618550    0.000000   12.293764    ( 0.0000,  0.0000,  0.0000)
  12 Ir     1.404638    2.432904   12.293764    ( 0.0000,  0.0000,  0.0000)
  13 Ag     4.213913    2.432904   12.293764    ( 0.0000,  0.0000,  0.0000)
  14 Ag     7.023188    2.432904   12.293764    ( 0.0000,  0.0000,  0.0000)
  15 Pt     2.809275    4.865807   12.293764    ( 0.0000,  0.0000,  0.0000)
  16 Ru     5.618550    4.865807   12.293764    ( 0.0000,  0.0000,  0.0000)
  17 Ir     8.427826    4.865807   12.293764    ( 0.0000,  0.0000,  0.0000)
  18 Ir     1.438038    0.793751   14.595352    ( 0.0000,  0.0000,  0.0000)
  19 Pt     4.195335    0.731185   14.619782    ( 0.0000,  0.0000,  0.0000)
  20 Pt     7.036384    0.793393   14.677246    ( 0.0000,  0.0000,  0.0000)
  21 Ag     2.789135    3.266304   14.614270    ( 0.0000,  0.0000,  0.0000)
  22 Ag     5.624593    3.214382   14.630074    ( 0.0000,  0.0000,  0.0000)
  23 Ag     8.468559    3.242147   14.612217    ( 0.0000,  0.0000,  0.0000)
  24 Pt     4.232136    5.669017   14.623401    ( 0.0000,  0.0000,  0.0000)
  25 Ag     7.020985    5.620857   14.584771    ( 0.0000,  0.0000,  0.0000)
  26 Ir     9.821579    5.750052   14.551474    ( 0.0000,  0.0000,  0.0000)
  27 Ru     0.087061    1.646474   16.924445    ( 0.0000,  0.0000,  0.0000)
  28 Ir     2.738667    1.627664   16.876069    ( 0.0000,  0.0000,  0.0000)
  29 Ir     5.521097    1.547632   16.917528    ( 0.0000,  0.0000,  0.0000)
  30 Ir     1.321907    4.001686   17.051647    ( 0.0000,  0.0000,  0.0000)
  31 Ir     4.160701    3.978173   16.948393    ( 0.0000,  0.0000,  0.0000)
  32 Pt     7.080907    4.035154   16.984363    ( 0.0000,  0.0000,  0.0000)
  33 Ag     2.741715    6.432658   16.884976    ( 0.0000,  0.0000,  0.0000)
  34 Ir     5.652832    6.541895   16.853885    ( 0.0000,  0.0000,  0.0000)
  35 Ru     8.400870    6.445191   16.865101    ( 0.0000,  0.0000,  0.0000)
  36 Ir     0.072758    0.004041   18.985048    ( 0.0000,  0.0000,  0.0000)
  37 Ir     2.728052   -0.024552   18.984394    ( 0.0000,  0.0000,  0.0000)
  38 Pt     5.515892    0.001103   19.216191    ( 0.0000,  0.0000,  0.0000)
  39 Ag     1.409707    2.412049   19.555078    ( 0.0000,  0.0000,  0.0000)
  40 Ir     4.227680    2.430572   19.030206    ( 0.0000,  0.0000,  0.0000)
  41 Pt     6.972036    2.262857   19.122563    ( 0.0000,  0.0000,  0.0000)
  42 Ir     2.953467    4.809540   19.218011    ( 0.0000,  0.0000,  0.0000)
  43 Ir     5.484656    4.935797   19.002679    ( 0.0000,  0.0000,  0.0000)
  44 Ag     8.213264    4.805715   19.575261    ( 0.0000,  0.0000,  0.0000)
  45 O     10.255636    5.661746   20.491090    ( 0.0000,  0.0000,  0.0000)

Unit cell:
           periodic     x           y           z      points  spacing
  1. axis:    yes    8.445283    0.000000    0.000000    35     0.2090
  2. axis:    yes    4.222641    7.313829    0.000000    35     0.2090
  3. axis:    no     0.000000    0.000000   29.175054   135     0.2161

  Lengths:   8.445283   8.445283  29.175054
  Angles:   90.000000  90.000000  60.000000

Effective grid spacing dv^(1/3) = 0.2217

                     log10-error:    total        iterations:
           time      wfs    density  energy       fermi  poisson
iter:   1  00:46:49  -3.85   +inf  -265.218297    2             
iter:   2  00:48:00  -3.60  -2.90  -266.384069    2             
iter:   3  00:49:09  -3.84  -2.11  -265.195079    2             
iter:   4  00:50:20  -5.26  -3.38  -265.195132    3             
iter:   5  00:51:31  -5.88  -3.66  -265.194496    2             
iter:   6  00:52:43  -6.32  -3.80  -265.194190    2             
iter:   7  00:53:54  -6.49  -3.96  -265.194219    2             
iter:   8  00:55:05  -6.40  -4.01  -265.193623    2             
iter:   9  00:56:16  -6.89  -4.05  -265.194298    2             
iter:  10  00:57:22  -7.06  -4.03  -265.193899    2             
iter:  11  00:58:29  -7.22  -4.33  -265.193815    2             
iter:  12  00:59:34  -7.39  -4.36  -265.193908    2             
iter:  13  01:00:43  -7.61  -4.41  -265.193952    2             

Converged after 13 iterations.

Dipole moment: (14.271144, 12.021816, -0.046428) |e|*Ang

Energy contributions relative to reference atoms: (reference = -16429278.754816)

Kinetic:       -143.324655
Potential:      +87.297989
External:        +0.000000
XC:            -201.737484
Entropy (-ST):   -2.090465
Local:           -6.384570
--------------------------
Free energy:   -266.239184
Extrapolated:  -265.193952

Fermi level: 1.33494

Showing only first 2 kpts
 Kpt  Band  Eigenvalues  Occupancy
  0   357      1.34115    0.12112
  0   358      1.35749    0.11097
  0   359      1.41683    0.07650
  0   360      1.43308    0.06815

  1   357      1.21957    0.19005
  1   358      1.26716    0.16581
  1   359      1.29273    0.15100
  1   360      1.31776    0.13571



Forces in eV/Ang:
  0 Ag   -0.41769    0.15864   -1.05395
  1 Ag    0.24870    0.22472   -0.86681
  2 Ir    0.49671   -0.17445    0.05034
  3 Ir   -0.10947    1.23857    1.38767
  4 Ir    0.41733    0.40057    0.87865
  5 Ir   -0.32994   -0.00983    1.23470
  6 Ir   -1.71251   -0.51198    0.74036
  7 Ag   -0.12462   -0.33833   -0.95491
  8 Pt    1.06211   -0.39185    0.48442
  9 Ag    0.09331    0.00350    0.26981
 10 Ir   -0.01304   -0.41721    0.99844
 11 Ir   -0.63658   -0.79554   -0.46063
 12 Ir    0.38947    0.16164    0.19870
 13 Ag   -0.01039   -0.03644    0.18325
 14 Ag    0.06777    0.02979    0.19760
 15 Pt   -0.13988   -0.02412   -0.56276
 16 Ru    0.60335    0.47100   -1.35559
 17 Ir    0.16401    0.31196   -1.23640
 18 Ir    0.00163   -0.01463   -0.00165
 19 Pt   -0.01917   -0.00561   -0.00245
 20 Pt   -0.00604   -0.04877   -0.03039
 21 Ag    0.00052   -0.00417   -0.00765
 22 Ag   -0.03436   -0.00730    0.04377
 23 Ag    0.00050   -0.00272    0.00757
 24 Pt   -0.02921   -0.00219   -0.04957
 25 Ag   -0.01880   -0.00202    0.00174
 26 Ir    0.01013   -0.00075   -0.02349
 27 Ru    0.01706   -0.00009    0.00150
 28 Ir   -0.00224    0.01914    0.00546
 29 Ir   -0.02760    0.00767   -0.00570
 30 Ir    0.02453   -0.00263    0.00785
 31 Ir   -0.01177   -0.07155    0.02913
 32 Pt   -0.00826   -0.02525    0.02773
 33 Ag   -0.01592   -0.03100    0.01811
 34 Ir    0.03748    0.00707    0.00574
 35 Ru   -0.00046   -0.02722    0.02120
 36 Ir   -0.01562    0.00095    0.01506
 37 Ir    0.03141   -0.02448   -0.03042
 38 Pt   -0.01712   -0.02649    0.02315
 39 Ag   -0.00378   -0.00639    0.00817
 40 Ir   -0.00962   -0.01236   -0.04254
 41 Pt    0.03052   -0.00756   -0.00223
 42 Ir   -0.05042   -0.00823    0.01444
 43 Ir    0.07317   -0.02858    0.01086
 44 Ag   -0.06199   -0.03222    0.03001
 45 O    -0.00674   -0.03110    0.01081

Timing:                                      incl.     excl.
-------------------------------------------------------------------
Density initialized from wave functions:    31.338    31.338   0.2% |
 Symmetrize density:                         0.001     0.001   0.0% |
Forces:                                    181.150   181.150   1.0% |
Hamiltonian:                                29.003     0.097   0.0% |
 Atomic:                                     7.702     3.512   0.0% |
  XC Correction:                             4.190     4.190   0.0% |
 Calculate atomic Hamiltonians:              8.695     8.695   0.0% |
 Communicate:                                0.046     0.046   0.0% |
 Initialize Hamiltonian:                     0.000     0.000   0.0% |
 Poisson:                                    0.065     0.065   0.0% |
 XC 3D grid:                                12.398    12.398   0.1% |
LCAO initialization:                        58.602     3.586   0.0% |
 LCAO eigensolver:                           6.837     0.002   0.0% |
  Calculate projections:                     0.060     0.060   0.0% |
  DenseAtomicCorrection:                     0.077     0.077   0.0% |
  Distribute overlap matrix:                 0.223     0.223   0.0% |
  Orbital Layouts:                           0.421     0.421   0.0% |
  Potential matrix:                          5.998     5.998   0.0% |
  Sum over cells:                            0.054     0.054   0.0% |
 LCAO to grid:                              45.785    45.785   0.3% |
 Set positions (LCAO WFS):                   2.394     0.880   0.0% |
  Basic WFS set positions:                   0.003     0.003   0.0% |
  Basis functions set positions:             0.001     0.001   0.0% |
  P tci:                                     0.612     0.612   0.0% |
  ST tci:                                    0.670     0.670   0.0% |
  mktci:                                     0.229     0.229   0.0% |
PWDescriptor:                                0.043     0.043   0.0% |
Redistribute:                                0.069     0.069   0.0% |
SCF-cycle:                               17226.134   667.203   3.8% |-|
 Davidson:                               15187.942  3678.187  20.9% |-------|
  Apply H:                                2295.341  2220.990  12.6% |----|
   HMM T:                                   74.350    74.350   0.4% |
  Subspace diag:                          2171.786     0.075   0.0% |
   calc_h_matrix:                         1215.490   450.328   2.6% ||
    Apply H:                               765.162   740.240   4.2% |-|
     HMM T:                                 24.922    24.922   0.1% |
   diagonalize:                             37.746    37.746   0.2% |
   rotate_psi:                             918.475   918.475   5.2% |-|
  calc. matrices:                         4597.043  3072.413  17.4% |------|
   Apply H:                               1524.630  1475.097   8.4% |--|
    HMM T:                                  49.533    49.533   0.3% |
  diagonalize:                             583.460   583.460   3.3% ||
  rotate_psi:                             1862.125  1862.125  10.6% |---|
 Density:                                  692.611     0.014   0.0% |
  Atomic density matrices:                   4.067     4.067   0.0% |
  Mix:                                     222.519   222.519   1.3% ||
  Multipole moments:                         0.308     0.308   0.0% |
  Pseudo density:                          465.703   465.690   2.6% ||
   Symmetrize density:                       0.013     0.013   0.0% |
 Hamiltonian:                              605.618     2.076   0.0% |
  Atomic:                                  165.769    79.067   0.4% |
   XC Correction:                           86.702    86.702   0.5% |
  Calculate atomic Hamiltonians:           181.049   181.049   1.0% |
  Communicate:                               0.670     0.670   0.0% |
  Poisson:                                   1.325     1.325   0.0% |
  XC 3D grid:                              254.729   254.729   1.4% ||
 Orthonormalize:                            72.760     0.005   0.0% |
  calc_s_matrix:                            10.475    10.475   0.1% |
  inverse-cholesky:                          0.878     0.878   0.0% |
  projections:                              39.965    39.965   0.2% |
  rotate_psi_s:                             21.438    21.438   0.1% |
Set symmetry:                                0.002     0.002   0.0% |
Other:                                      89.992    89.992   0.5% |
-------------------------------------------------------------------
Total:                                             17616.334 100.0%

Date: Fri Mar  4 01:00:58 2022
