
  ___ ___ ___ _ _ _  
 |   |   |_  | | | | 
 | | | | | . | | | | 
 |__ |  _|___|_____|  1.5.1
 |___|_|             

User:   clausen@node038.cluster
Date:   Thu Mar  3 19:52:22 2022
Arch:   x86_64
Pid:    6222
Python: 3.6.12
gpaw:   /software/kemi/gpaw/1.5.1/gpaw
_gpaw:  /software/kemi/gpaw/1.5.1/bin/gpaw-python
ase:    /software/kemi/ase/3.17.0/ase (version 3.17.0)
numpy:  /opt/rh/rh-python36/root/usr/lib64/python3.6/site-packages/numpy (version 1.13.1)
scipy:  /opt/rh/rh-python36/root/usr/lib64/python3.6/site-packages/scipy (version 0.19.1)
units:  Angstrom and eV
cores:  16

Input parameters:
  kpts: [4 4 1]
  mode: {ecut: 400.0,
         gammacentered: False,
         name: pw}
  xc: RPBE

System changes: positions, numbers, cell, pbc, initial_charges, initial_magmoms 

Initialize ...

Ag-setup:
  name: Silver
  id: c05e55bab2c3858b3f9398f6d75cb77c
  Z: 47
  valence: 17
  core: 30
  charge: 0.0
  file: /software/kemi/gpaw-setups/0.9.20000/Ag.RPBE.gz
  cutoffs: 1.25(comp), 2.35(filt), 2.19(core), lmax=2
  valence states:
                energy  radius
    5s(1.00)    -4.277   1.286
    4p(6.00)   -58.523   1.328
    5p(0.00)    -0.755   1.328
    4d(10.00)    -7.386   1.180
    *s          22.934   1.286
    *d          19.826   1.180

  Using partial waves for Ag as LCAO basis

Ir-setup:
  name: Iridium
  id: 73b603359d1d5397a85ae3c2440f9033
  Z: 77
  valence: 15
  core: 62
  charge: 0.0
  file: /software/kemi/gpaw-setups/0.9.20000/Ir.RPBE.gz
  cutoffs: 1.26(comp), 2.40(filt), 2.36(core), lmax=2
  valence states:
                energy  radius
    6s(2.00)    -6.219   1.296
    5p(6.00)   -54.684   1.328
    6p(0.00)    -1.215   1.328
    5d(7.00)    -7.118   1.286
    *s          20.992   1.296
    *d          20.093   1.286

  Using partial waves for Ir as LCAO basis

Pt-setup:
  name: Platinum
  id: f04f522592575c47ad794f6b4a415b4b
  Z: 78
  valence: 16
  core: 62
  charge: 0.0
  file: /software/kemi/gpaw-setups/0.9.20000/Pt.RPBE.gz
  cutoffs: 1.29(comp), 2.26(filt), 2.26(core), lmax=2
  valence states:
                energy  radius
    6s(1.00)    -5.516   1.307
    5p(6.00)   -55.971   1.371
    6p(0.00)    -0.856   1.371
    5d(9.00)    -6.087   1.307
    *s          21.695   1.307
    *d          21.125   1.307

  Using partial waves for Pt as LCAO basis

Ru-setup:
  name: Ruthenium
  id: 76477906e28f51dc1b29884d53556fe9
  Z: 44
  valence: 16
  core: 28
  charge: 0.0
  file: /software/kemi/gpaw-setups/0.9.20000/Ru.RPBE.gz
  cutoffs: 1.23(comp), 2.16(filt), 1.30(core), lmax=2
  valence states:
                energy  radius
    4s(2.00)   -76.255   1.281
    5s(1.00)    -4.126   1.281
    4p(6.00)   -46.371   1.286
    5p(0.00)    -0.913   1.286
    4d(7.00)    -5.146   1.254
    *d          22.066   1.254

  Using partial waves for Ru as LCAO basis

O-setup:
  name: Oxygen
  id: 08071ca1eed670e7821b24b7eb4d558c
  Z: 8
  valence: 6
  core: 2
  charge: 0.0
  file: /software/kemi/gpaw-setups/0.9.20000/O.RPBE.gz
  cutoffs: 0.67(comp), 1.17(filt), 0.83(core), lmax=2
  valence states:
                energy  radius
    2s(2.00)   -24.041   0.688
    2p(4.00)    -8.984   0.598
    *s           3.170   0.688
    *p          18.228   0.598
    *d           0.000   0.619

  Using partial waves for O as LCAO basis

Reference energy: -16429278.754816

Spin-paired calculation

Occupation numbers:
  Fermi-Dirac: width=0.1000 eV

Convergence criteria:
  Maximum total energy change: 0.0005 eV / electron
  Maximum integral of absolute density change: 0.0001 electrons
  Maximum integral of absolute eigenstate change: 4e-08 eV^2
  Maximum number of iterations: 333

Symmetries present (total): 1

  ( 1  0  0)
  ( 0  1  0)
  ( 0  0  1)

16 k-points: 4 x 4 x 1 Monkhorst-Pack grid
8 k-points in the irreducible part of the Brillouin zone
       k-points in crystal coordinates                weights
   0:     0.12500000   -0.37500000    0.00000000          2/16
   1:     0.12500000   -0.12500000    0.00000000          2/16
   2:     0.12500000    0.12500000    0.00000000          2/16
   3:     0.12500000    0.37500000    0.00000000          2/16
   4:     0.37500000   -0.37500000    0.00000000          2/16
   5:     0.37500000   -0.12500000    0.00000000          2/16
   6:     0.37500000    0.12500000    0.00000000          2/16
   7:     0.37500000    0.37500000    0.00000000          2/16

Wave functions: Plane wave expansion
  Cutoff energy: 400.000 eV
  Number of coefficients (min, max): 32722, 32776
  Pulay-stress correction: 0.000000 eV/Ang^3 (de/decut=0.000000)
  Using FFTW library
  ScaLapack parameters: grid=1x1, blocksize=None
  Wavefunction extrapolation:
    Improved wavefunction reuse through dual PAW basis 

Eigensolver
   Davidson(niter=2, smin=None, normalize=True) 

Densities:
  Coarse grid: 35*35*135 grid
  Fine grid: 70*70*270 grid
  Total Charge: 0.000000 

Density mixing:
  Method: separate
  Backend: pulay
  Linear mixing parameter: 0.05
  Mixing with 5 old densities
  Damping of long wave oscillations: 50 

Hamiltonian:
  XC and Coulomb potentials evaluated on a 70*70*270 grid
  Using the RPBE Exchange-Correlation functional
 

XC parameters: RPBE with 2 nearest neighbor stencil

Memory estimate:
  Process memory now: 152.34 MiB
  Calculator: 540.22 MiB
    Density: 48.12 MiB
      Arrays: 16.41 MiB
      Localized functions: 25.35 MiB
      Mixer: 6.36 MiB
    Hamiltonian: 11.50 MiB
      Arrays: 10.73 MiB
      XC: 0.00 MiB
      Poisson: 0.00 MiB
      vbar: 0.77 MiB
    Wavefunctions: 480.60 MiB
      Arrays psit_nG: 217.55 MiB
      Eigensolver: 248.94 MiB
      Projections: 2.73 MiB
      Projectors: 4.75 MiB
      PW-descriptor: 6.62 MiB

Total number of cores used: 16
Parallelization over k-points: 8
Domain decomposition: 1 x 1 x 2

Number of atoms: 46
Number of atomic orbitals: 547
Number of bands in calculation: 435
Bands to converge: occupied states only
Number of valence electrons: 718

... initialized

Initializing position-dependent things.

Density initialized from atomic densities
Creating initial wave functions:
  435 bands from LCAO basis set

                                             
                                             
                                             
                                             
                                             
                                             
                               Ag            
                  Ir    Ir                   
           OAg                               
                  AIr     Pt    Ru           
       Ir    IIr    IPt    Pt                
                                             
         Ru    Ir    PIr    Ag     Ir        
                Ag     Ag     Ag             
                                             
           Ir    PPt    RPt    Ir            
                                             
            Ir    IAg    AAg    Pt           
       Ag     Ir     Ir                      
             Ir     Ir     Ir                
        Ag     Ag     Ir                     
                                             
                                             
                                             
                                             
                                             

Positions:
   0 Ag     0.000000    1.621936   10.000000    ( 0.0000,  0.0000,  0.0000)
   1 Ag     2.809275    1.621936   10.000000    ( 0.0000,  0.0000,  0.0000)
   2 Ir     5.618550    1.621936   10.000000    ( 0.0000,  0.0000,  0.0000)
   3 Ir     1.404638    4.054840   10.000000    ( 0.0000,  0.0000,  0.0000)
   4 Ir     4.213913    4.054840   10.000000    ( 0.0000,  0.0000,  0.0000)
   5 Ir     7.023188    4.054840   10.000000    ( 0.0000,  0.0000,  0.0000)
   6 Ir     2.809275    6.487743   10.000000    ( 0.0000,  0.0000,  0.0000)
   7 Ag     5.618550    6.487743   10.000000    ( 0.0000,  0.0000,  0.0000)
   8 Pt     8.427826    6.487743   10.000000    ( 0.0000,  0.0000,  0.0000)
   9 Ag     0.000000    0.000000   12.293764    ( 0.0000,  0.0000,  0.0000)
  10 Ir     2.809275    0.000000   12.293764    ( 0.0000,  0.0000,  0.0000)
  11 Ir     5.618550    0.000000   12.293764    ( 0.0000,  0.0000,  0.0000)
  12 Ir     1.404638    2.432904   12.293764    ( 0.0000,  0.0000,  0.0000)
  13 Ag     4.213913    2.432904   12.293764    ( 0.0000,  0.0000,  0.0000)
  14 Ag     7.023188    2.432904   12.293764    ( 0.0000,  0.0000,  0.0000)
  15 Pt     2.809275    4.865807   12.293764    ( 0.0000,  0.0000,  0.0000)
  16 Ru     5.618550    4.865807   12.293764    ( 0.0000,  0.0000,  0.0000)
  17 Ir     8.427826    4.865807   12.293764    ( 0.0000,  0.0000,  0.0000)
  18 Ir     1.441638    0.791118   14.593247    ( 0.0000,  0.0000,  0.0000)
  19 Pt     4.193480    0.729862   14.611205    ( 0.0000,  0.0000,  0.0000)
  20 Pt     7.034823    0.803600   14.634811    ( 0.0000,  0.0000,  0.0000)
  21 Ag     2.789574    3.267050   14.608106    ( 0.0000,  0.0000,  0.0000)
  22 Ag     5.614143    3.230616   14.629701    ( 0.0000,  0.0000,  0.0000)
  23 Ag     8.464759    3.239382   14.607930    ( 0.0000,  0.0000,  0.0000)
  24 Pt     4.237230    5.675263   14.599690    ( 0.0000,  0.0000,  0.0000)
  25 Ag     7.020289    5.624637   14.588938    ( 0.0000,  0.0000,  0.0000)
  26 Ir     9.810296    5.749034   14.534386    ( 0.0000,  0.0000,  0.0000)
  27 Ru     0.088724    1.655821   16.925664    ( 0.0000,  0.0000,  0.0000)
  28 Ir     2.745717    1.627778   16.875164    ( 0.0000,  0.0000,  0.0000)
  29 Ir     5.551846    1.597836   16.889230    ( 0.0000,  0.0000,  0.0000)
  30 Ir     1.358794    4.007324   17.013226    ( 0.0000,  0.0000,  0.0000)
  31 Ir     4.198339    3.977911   16.957702    ( 0.0000,  0.0000,  0.0000)
  32 Pt     7.125382    4.056246   16.998429    ( 0.0000,  0.0000,  0.0000)
  33 Ag     2.759687    6.474835   16.802442    ( 0.0000,  0.0000,  0.0000)
  34 Ir     5.663661    6.563267   16.864024    ( 0.0000,  0.0000,  0.0000)
  35 Ru     8.399575    6.483077   16.866623    ( 0.0000,  0.0000,  0.0000)
  36 Ir     0.015859   -0.055829   18.998154    ( 0.0000,  0.0000,  0.0000)
  37 Ir     2.776668   -0.025110   18.984491    ( 0.0000,  0.0000,  0.0000)
  38 Pt     5.623976   -0.052286   19.132338    ( 0.0000,  0.0000,  0.0000)
  39 Ag     1.411190    2.424549   19.550242    ( 0.0000,  0.0000,  0.0000)
  40 Ir     4.228423    2.403175   19.018562    ( 0.0000,  0.0000,  0.0000)
  41 Pt     6.964575    2.313754   19.128521    ( 0.0000,  0.0000,  0.0000)
  42 Ir     2.920544    4.885225   19.043791    ( 0.0000,  0.0000,  0.0000)
  43 Ir     5.524960    4.949858   19.026821    ( 0.0000,  0.0000,  0.0000)
  44 Ag     8.407084    4.876484   19.535850    ( 0.0000,  0.0000,  0.0000)
  45 O      1.401239    0.781203   20.850242    ( 0.0000,  0.0000,  0.0000)

Unit cell:
           periodic     x           y           z      points  spacing
  1. axis:    yes    8.445283    0.000000    0.000000    35     0.2090
  2. axis:    yes    4.222641    7.313829    0.000000    35     0.2090
  3. axis:    no     0.000000    0.000000   29.175054   135     0.2161

  Lengths:   8.445283   8.445283  29.175054
  Angles:   90.000000  90.000000  60.000000

Effective grid spacing dv^(1/3) = 0.2217

                     log10-error:    total        iterations:
           time      wfs    density  energy       fermi  poisson
iter:   1  19:54:10  +0.17   +inf  -294.968705    2             
iter:   2  19:55:02  -1.10  -1.37  -292.337905    36            
iter:   3  19:55:54  -1.36  -1.33  -331.218439    33            
iter:   4  19:56:46  -1.72  -1.25  -274.352146    3             
iter:   5  19:57:37  -2.27  -1.49  -268.443563    37            
iter:   6  19:58:30  -2.52  -1.55  -267.072322    3             
iter:   7  19:59:23  -2.25  -1.59  -264.475166    3             
iter:   8  20:00:15  -2.42  -1.75  -263.757299    3             
iter:   9  20:01:08  -2.60  -1.91  -264.587354    3             
iter:  10  20:01:59  -2.66  -1.96  -265.174105    3             
iter:  11  20:02:51  -3.20  -1.94  -263.797207    3             
iter:  12  20:03:43  -3.60  -2.19  -263.885521    3             
iter:  13  20:04:33  -3.62  -2.20  -263.806636    3             
iter:  14  20:05:23  -3.38  -2.29  -263.743757    3             
iter:  15  20:06:12  -3.38  -2.38  -263.673976    3             
iter:  16  20:07:02  -3.47  -2.55  -263.608860    3             
iter:  17  20:07:50  -3.98  -2.73  -263.587357    3             
iter:  18  20:08:39  -4.38  -2.90  -263.584526    3             
iter:  19  20:09:34  -4.55  -2.95  -263.583484    2             
iter:  20  20:10:25  -4.64  -2.94  -263.607279    3             
iter:  21  20:11:17  -4.82  -2.85  -263.582722    2             
iter:  22  20:12:08  -5.32  -3.04  -263.582946    2             
iter:  23  20:12:59  -4.88  -3.08  -263.585976    2             
iter:  24  20:13:51  -5.09  -3.14  -263.584697    2             
iter:  25  20:14:42  -5.40  -3.32  -263.583346    2             
iter:  26  20:15:34  -5.20  -3.32  -263.590571    2             
iter:  27  20:16:27  -5.77  -3.19  -263.581361    2             
iter:  28  20:17:20  -5.69  -3.48  -263.581284    2             
iter:  29  20:18:13  -6.32  -3.63  -263.581308    2             
iter:  30  20:19:07  -6.01  -3.65  -263.581255    2             
iter:  31  20:19:59  -6.72  -3.71  -263.580384    2             
iter:  32  20:20:52  -6.26  -3.80  -263.581378    2             
iter:  33  20:21:44  -6.63  -3.71  -263.579870    2             
iter:  34  20:22:49  -6.71  -3.80  -263.580193    2             
iter:  35  20:23:56  -7.17  -3.95  -263.580278    2             
iter:  36  20:25:02  -7.01  -3.97  -263.580328    2             
iter:  37  20:26:09  -7.08  -4.11  -263.579880    2             
iter:  38  20:27:17  -7.40  -4.20  -263.580335    2             

Converged after 38 iterations.

Dipole moment: (21.791775, 17.959613, -0.330904) |e|*Ang

Energy contributions relative to reference atoms: (reference = -16429278.754816)

Kinetic:       -155.075679
Potential:      +98.071627
External:        +0.000000
XC:            -199.142607
Entropy (-ST):   -2.142558
Local:           -6.362397
--------------------------
Free energy:   -264.651614
Extrapolated:  -263.580335

Fermi level: 1.19288

Showing only first 2 kpts
 Kpt  Band  Eigenvalues  Occupancy
  0   357      1.19735    0.12221
  0   358      1.21468    0.11143
  0   359      1.23404    0.09963
  0   360      1.27130    0.07835

  1   357      1.08422    0.18693
  1   358      1.10608    0.17608
  1   359      1.13459    0.16043
  1   360      1.19051    0.12648



Forces in eV/Ang:
  0 Ag   -0.42390    0.16731   -1.05124
  1 Ag    0.25498    0.23109   -0.86349
  2 Ir    0.50314   -0.16975    0.02958
  3 Ir   -0.09580    1.25558    1.39237
  4 Ir    0.40346    0.40116    0.89076
  5 Ir   -0.33449   -0.03300    1.20991
  6 Ir   -1.73548   -0.52243    0.73881
  7 Ag   -0.12012   -0.34923   -0.95368
  8 Pt    1.07521   -0.38979    0.49422
  9 Ag    0.14136    0.01659    0.16462
 10 Ir   -0.02678   -0.42258    1.00735
 11 Ir   -0.65322   -0.76821   -0.54843
 12 Ir    0.38950    0.14018    0.18406
 13 Ag   -0.01925   -0.04272    0.15146
 14 Ag    0.05633    0.08104    0.12733
 15 Pt   -0.15721   -0.03889   -0.63373
 16 Ru    0.65218    0.47727   -1.36932
 17 Ir    0.09894    0.28691   -1.28177
 18 Ir    0.01013    0.04696    0.02363
 19 Pt    0.04777    0.03266    0.04077
 20 Pt   -0.01757   -0.00115    0.03131
 21 Ag    0.00194    0.01808    0.04910
 22 Ag    0.01986   -0.01266    0.02224
 23 Ag    0.01015    0.01140    0.01751
 24 Pt    0.01938   -0.00944    0.05313
 25 Ag    0.00274   -0.02002    0.03109
 26 Ir    0.14775   -0.09205   -0.09230
 27 Ru   -0.06394   -0.06711   -0.17948
 28 Ir    0.10139   -0.09242   -0.03901
 29 Ir    0.00751    0.04763    0.06176
 30 Ir   -0.06946   -0.06211    0.30852
 31 Ir    0.01609   -0.02692    0.08869
 32 Pt    0.00930    0.00815    0.02764
 33 Ag    0.11628    0.03016    0.12201
 34 Ir   -0.00172   -0.09797   -0.09705
 35 Ru   -0.10362    0.04137    0.35737
 36 Ir    0.48475    0.34208    1.40783
 37 Ir   -0.56811    0.25892    0.82758
 38 Pt   -0.05838   -0.02586   -0.04850
 39 Ag    0.01783    0.87870   -0.21163
 40 Ir    0.14513    0.18574   -0.11837
 41 Pt   -0.18345    0.08656   -0.11664
 42 Ir    0.04916    0.05088   -0.15916
 43 Ir   -0.05947   -0.39225   -0.06132
 44 Ag    0.00314   -0.01739   -0.02209
 45 O    -0.00242   -1.37534   -1.91424

System changes: positions 

Initializing position-dependent things.

Density initialized from wave functions
                                             
                                             
                                             
                                             
                                             
                                             
                               Ag            
                  Ir    Ir                   
           OAg            Pt    Ru           
                  AIr                        
       Ir    IIr    IPt    Pt                
                                             
         Ru    Ir    PIr    Ag     Ir        
                Ag     Ag     Ag             
                                             
           Ir    PPt    RPt    Ir            
                                             
            Ir    IAg    AAg    Pt           
       Ag     Ir     Ir                      
             Ir     Ir     Ir                
        Ag     Ag     Ir                     
                                             
                                             
                                             
                                             
                                             

Positions:
   0 Ag     0.000000    1.621936   10.000000    ( 0.0000,  0.0000,  0.0000)
   1 Ag     2.809275    1.621936   10.000000    ( 0.0000,  0.0000,  0.0000)
   2 Ir     5.618550    1.621936   10.000000    ( 0.0000,  0.0000,  0.0000)
   3 Ir     1.404638    4.054840   10.000000    ( 0.0000,  0.0000,  0.0000)
   4 Ir     4.213913    4.054840   10.000000    ( 0.0000,  0.0000,  0.0000)
   5 Ir     7.023188    4.054840   10.000000    ( 0.0000,  0.0000,  0.0000)
   6 Ir     2.809275    6.487743   10.000000    ( 0.0000,  0.0000,  0.0000)
   7 Ag     5.618550    6.487743   10.000000    ( 0.0000,  0.0000,  0.0000)
   8 Pt     8.427826    6.487743   10.000000    ( 0.0000,  0.0000,  0.0000)
   9 Ag     0.000000    0.000000   12.293764    ( 0.0000,  0.0000,  0.0000)
  10 Ir     2.809275    0.000000   12.293764    ( 0.0000,  0.0000,  0.0000)
  11 Ir     5.618550    0.000000   12.293764    ( 0.0000,  0.0000,  0.0000)
  12 Ir     1.404638    2.432904   12.293764    ( 0.0000,  0.0000,  0.0000)
  13 Ag     4.213913    2.432904   12.293764    ( 0.0000,  0.0000,  0.0000)
  14 Ag     7.023188    2.432904   12.293764    ( 0.0000,  0.0000,  0.0000)
  15 Pt     2.809275    4.865807   12.293764    ( 0.0000,  0.0000,  0.0000)
  16 Ru     5.618550    4.865807   12.293764    ( 0.0000,  0.0000,  0.0000)
  17 Ir     8.427826    4.865807   12.293764    ( 0.0000,  0.0000,  0.0000)
  18 Ir     1.442498    0.795103   14.595252    ( 0.0000,  0.0000,  0.0000)
  19 Pt     4.197534    0.732633   14.614664    ( 0.0000,  0.0000,  0.0000)
  20 Pt     7.033332    0.803502   14.637467    ( 0.0000,  0.0000,  0.0000)
  21 Ag     2.789739    3.268584   14.612271    ( 0.0000,  0.0000,  0.0000)
  22 Ag     5.615828    3.229542   14.631588    ( 0.0000,  0.0000,  0.0000)
  23 Ag     8.465621    3.240349   14.609415    ( 0.0000,  0.0000,  0.0000)
  24 Pt     4.238874    5.674462   14.604198    ( 0.0000,  0.0000,  0.0000)
  25 Ag     7.020522    5.622938   14.591576    ( 0.0000,  0.0000,  0.0000)
  26 Ir     9.822833    5.741224   14.526554    ( 0.0000,  0.0000,  0.0000)
  27 Ru     0.083299    1.650126   16.910434    ( 0.0000,  0.0000,  0.0000)
  28 Ir     2.754320    1.619936   16.871854    ( 0.0000,  0.0000,  0.0000)
  29 Ir     5.552484    1.601877   16.894470    ( 0.0000,  0.0000,  0.0000)
  30 Ir     1.352900    4.002054   17.039404    ( 0.0000,  0.0000,  0.0000)
  31 Ir     4.199704    3.975627   16.965228    ( 0.0000,  0.0000,  0.0000)
  32 Pt     7.126171    4.056937   17.000774    ( 0.0000,  0.0000,  0.0000)
  33 Ag     2.769554    6.477394   16.812795    ( 0.0000,  0.0000,  0.0000)
  34 Ir     5.663516    6.554954   16.855789    ( 0.0000,  0.0000,  0.0000)
  35 Ru     8.390783    6.486587   16.896946    ( 0.0000,  0.0000,  0.0000)
  36 Ir     0.056990   -0.026803   19.117609    ( 0.0000,  0.0000,  0.0000)
  37 Ir     2.728464   -0.003140   19.054711    ( 0.0000,  0.0000,  0.0000)
  38 Pt     5.619022   -0.054480   19.128223    ( 0.0000,  0.0000,  0.0000)
  39 Ag     1.412703    2.499107   19.532286    ( 0.0000,  0.0000,  0.0000)
  40 Ir     4.240737    2.418935   19.008518    ( 0.0000,  0.0000,  0.0000)
  41 Pt     6.949009    2.321098   19.118624    ( 0.0000,  0.0000,  0.0000)
  42 Ir     2.924716    4.889542   19.030286    ( 0.0000,  0.0000,  0.0000)
  43 Ir     5.519914    4.916575   19.021618    ( 0.0000,  0.0000,  0.0000)
  44 Ag     8.407350    4.875008   19.533976    ( 0.0000,  0.0000,  0.0000)
  45 O      1.401033    0.664506   20.687818    ( 0.0000,  0.0000,  0.0000)

Unit cell:
           periodic     x           y           z      points  spacing
  1. axis:    yes    8.445283    0.000000    0.000000    35     0.2090
  2. axis:    yes    4.222641    7.313829    0.000000    35     0.2090
  3. axis:    no     0.000000    0.000000   29.175054   135     0.2161

  Lengths:   8.445283   8.445283  29.175054
  Angles:   90.000000  90.000000  60.000000

Effective grid spacing dv^(1/3) = 0.2217

                     log10-error:    total        iterations:
           time      wfs    density  energy       fermi  poisson
iter:   1  20:28:54  -1.82   +inf  -270.312829    4             
iter:   2  20:30:01  -1.49  -1.85  -308.138173    36            
iter:   3  20:31:08  -1.54  -1.39  -300.449141    3             
iter:   4  20:32:14  -2.36  -1.46  -265.503493    35            
iter:   5  20:33:21  -2.96  -2.16  -264.903886    3             
iter:   6  20:34:27  -3.65  -2.35  -264.658314    3             
iter:   7  20:35:34  -3.98  -2.49  -264.510152    3             
iter:   8  20:36:41  -4.29  -2.72  -264.477953    2             
iter:   9  20:37:48  -3.51  -2.76  -264.574943    3             
iter:  10  20:38:54  -4.08  -2.46  -264.490213    2             
iter:  11  20:39:57  -4.03  -2.65  -264.409037    3             
iter:  12  20:41:01  -4.72  -2.91  -264.400100    3             
iter:  13  20:42:03  -5.20  -3.01  -264.391496    3             
iter:  14  20:43:06  -5.19  -3.17  -264.393570    2             
iter:  15  20:44:09  -5.84  -3.29  -264.389270    2             
iter:  16  20:45:11  -5.24  -3.35  -264.395759    2             
iter:  17  20:46:04  -5.62  -3.26  -264.389686    2             
iter:  18  20:46:53  -5.46  -3.55  -264.390574    3             
iter:  19  20:47:41  -5.61  -3.46  -264.390077    3             
iter:  20  20:48:29  -6.21  -3.68  -264.390219    2             
iter:  21  20:49:17  -6.22  -3.66  -264.387992    2             
iter:  22  20:50:04  -6.25  -3.72  -264.388741    2             
iter:  23  20:50:52  -6.63  -3.98  -264.387997    2             
iter:  24  20:51:40  -6.51  -4.03  -264.388109    2             
iter:  25  20:52:28  -7.03  -4.11  -264.388149    2             
iter:  26  20:53:17  -7.21  -4.25  -264.388273    2             
iter:  27  20:54:10  -7.51  -4.39  -264.387971    2             

Converged after 27 iterations.

Dipole moment: (20.697523, 14.765576, -0.183653) |e|*Ang

Energy contributions relative to reference atoms: (reference = -16429278.754816)

Kinetic:       -153.023875
Potential:      +96.041970
External:        +0.000000
XC:            -199.981099
Entropy (-ST):   -2.140337
Local:           -6.354798
--------------------------
Free energy:   -265.458139
Extrapolated:  -264.387971

Fermi level: 1.26492

Showing only first 2 kpts
 Kpt  Band  Eigenvalues  Occupancy
  0   357      1.26263    0.12643
  0   358      1.29604    0.10571
  0   359      1.32275    0.08983
  0   360      1.33667    0.08199

  1   357      1.15886    0.18570
  1   358      1.18942    0.17007
  1   359      1.21688    0.15446
  1   360      1.27427    0.11916



Forces in eV/Ang:
  0 Ag   -0.41884    0.15862   -1.05414
  1 Ag    0.25100    0.22819   -0.86854
  2 Ir    0.50057   -0.17399    0.03453
  3 Ir   -0.09895    1.23644    1.35997
  4 Ir    0.39073    0.41059    0.90211
  5 Ir   -0.32504   -0.02535    1.21320
  6 Ir   -1.71685   -0.51287    0.72797
  7 Ag   -0.12420   -0.33931   -0.95738
  8 Pt    1.06492   -0.38631    0.48178
  9 Ag    0.14346    0.02044    0.17038
 10 Ir   -0.02662   -0.42968    1.01187
 11 Ir   -0.64704   -0.74412   -0.55317
 12 Ir    0.39573    0.12888    0.18558
 13 Ag   -0.01625   -0.03632    0.16393
 14 Ag    0.05360    0.07928    0.13537
 15 Pt   -0.12597   -0.04321   -0.60391
 16 Ru    0.66006    0.46818   -1.37353
 17 Ir    0.06336    0.27354   -1.25503
 18 Ir    0.01029    0.02727    0.03486
 19 Pt    0.03075   -0.08141    0.05351
 20 Pt   -0.01881   -0.03013    0.03371
 21 Ag    0.01047    0.00666    0.05998
 22 Ag    0.01411    0.00586   -0.00771
 23 Ag    0.01452    0.02363    0.02611
 24 Pt    0.01975    0.00084    0.03781
 25 Ag    0.07784    0.02455    0.04407
 26 Ir    0.05398   -0.01240   -0.02322
 27 Ru   -0.01494   -0.11200   -0.01791
 28 Ir    0.03101   -0.25814    0.03841
 29 Ir    0.08269   -0.11690   -0.06541
 30 Ir    0.02653    0.07568    0.06741
 31 Ir   -0.01751    0.06583   -0.26837
 32 Pt    0.02986    0.06521   -0.03380
 33 Ag    0.15016    0.11517    0.23207
 34 Ir    0.02479    0.01636    0.28069
 35 Ru   -0.05809    0.08283    0.22118
 36 Ir    0.20399    0.00112    0.74370
 37 Ir   -0.31266    0.17686    0.20214
 38 Pt   -0.00491    0.00172   -0.06985
 39 Ag    0.04488    0.67946   -0.15229
 40 Ir    0.05220    0.02250    0.13075
 41 Pt   -0.01872    0.07720    0.01156
 42 Ir   -0.06821    0.31874    0.10884
 43 Ir    0.00305   -0.24526    0.09142
 44 Ag   -0.11005    0.14759   -0.00101
 45 O    -0.31067   -1.36032   -1.39199

System changes: positions 

Initializing position-dependent things.

Density initialized from wave functions
                                             
                                             
                                             
                                             
                                             
                                             
                               Ag            
                  Ir    Ir                   
           OAg    AIr     Pt    Ru           
                                             
        Ir   IIr    IPt    Pt                
                                             
         Ru    Ir    PIr    Ag     Ir        
                Ag     Ag     Ag             
                                             
           Ir    PPt    RPt    Ir            
                                             
            Ir    IAg    AAg    Pt           
       Ag    IIr    IIr    Ir                
                                             
        Ag     Ag     Ir                     
                                             
                                             
                                             
                                             
                                             

Positions:
   0 Ag     0.000000    1.621936   10.000000    ( 0.0000,  0.0000,  0.0000)
   1 Ag     2.809275    1.621936   10.000000    ( 0.0000,  0.0000,  0.0000)
   2 Ir     5.618550    1.621936   10.000000    ( 0.0000,  0.0000,  0.0000)
   3 Ir     1.404638    4.054840   10.000000    ( 0.0000,  0.0000,  0.0000)
   4 Ir     4.213913    4.054840   10.000000    ( 0.0000,  0.0000,  0.0000)
   5 Ir     7.023188    4.054840   10.000000    ( 0.0000,  0.0000,  0.0000)
   6 Ir     2.809275    6.487743   10.000000    ( 0.0000,  0.0000,  0.0000)
   7 Ag     5.618550    6.487743   10.000000    ( 0.0000,  0.0000,  0.0000)
   8 Pt     8.427826    6.487743   10.000000    ( 0.0000,  0.0000,  0.0000)
   9 Ag     0.000000    0.000000   12.293764    ( 0.0000,  0.0000,  0.0000)
  10 Ir     2.809275    0.000000   12.293764    ( 0.0000,  0.0000,  0.0000)
  11 Ir     5.618550    0.000000   12.293764    ( 0.0000,  0.0000,  0.0000)
  12 Ir     1.404638    2.432904   12.293764    ( 0.0000,  0.0000,  0.0000)
  13 Ag     4.213913    2.432904   12.293764    ( 0.0000,  0.0000,  0.0000)
  14 Ag     7.023188    2.432904   12.293764    ( 0.0000,  0.0000,  0.0000)
  15 Pt     2.809275    4.865807   12.293764    ( 0.0000,  0.0000,  0.0000)
  16 Ru     5.618550    4.865807   12.293764    ( 0.0000,  0.0000,  0.0000)
  17 Ir     8.427826    4.865807   12.293764    ( 0.0000,  0.0000,  0.0000)
  18 Ir     1.443358    0.799087   14.597257    ( 0.0000,  0.0000,  0.0000)
  19 Pt     4.201587    0.735404   14.618124    ( 0.0000,  0.0000,  0.0000)
  20 Pt     7.031841    0.803404   14.640124    ( 0.0000,  0.0000,  0.0000)
  21 Ag     2.789904    3.270118   14.616437    ( 0.0000,  0.0000,  0.0000)
  22 Ag     5.617514    3.228468   14.633475    ( 0.0000,  0.0000,  0.0000)
  23 Ag     8.466482    3.241316   14.610901    ( 0.0000,  0.0000,  0.0000)
  24 Pt     4.240519    5.673661   14.608706    ( 0.0000,  0.0000,  0.0000)
  25 Ag     7.020754    5.621240   14.594214    ( 0.0000,  0.0000,  0.0000)
  26 Ir     9.835370    5.733414   14.518722    ( 0.0000,  0.0000,  0.0000)
  27 Ru     0.077874    1.644432   16.895205    ( 0.0000,  0.0000,  0.0000)
  28 Ir     2.762923    1.612094   16.868544    ( 0.0000,  0.0000,  0.0000)
  29 Ir     5.553121    1.605918   16.899710    ( 0.0000,  0.0000,  0.0000)
  30 Ir     1.347006    3.996783   17.065582    ( 0.0000,  0.0000,  0.0000)
  31 Ir     4.201069    3.973343   16.972754    ( 0.0000,  0.0000,  0.0000)
  32 Pt     7.126960    4.057629   17.003119    ( 0.0000,  0.0000,  0.0000)
  33 Ag     2.779420    6.479954   16.823148    ( 0.0000,  0.0000,  0.0000)
  34 Ir     5.663370    6.546641   16.847554    ( 0.0000,  0.0000,  0.0000)
  35 Ru     8.381991    6.490097   16.927269    ( 0.0000,  0.0000,  0.0000)
  36 Ir     0.098122    0.002222   19.237064    ( 0.0000,  0.0000,  0.0000)
  37 Ir     2.680260    0.018830   19.124932    ( 0.0000,  0.0000,  0.0000)
  38 Pt     5.614068   -0.056674   19.124107    ( 0.0000,  0.0000,  0.0000)
  39 Ag     1.414216    2.573664   19.514329    ( 0.0000,  0.0000,  0.0000)
  40 Ir     4.253052    2.434695   18.998475    ( 0.0000,  0.0000,  0.0000)
  41 Pt     6.933443    2.328442   19.108728    ( 0.0000,  0.0000,  0.0000)
  42 Ir     2.928887    4.893860   19.016782    ( 0.0000,  0.0000,  0.0000)
  43 Ir     5.514868    4.883293   19.016414    ( 0.0000,  0.0000,  0.0000)
  44 Ag     8.407616    4.873533   19.532101    ( 0.0000,  0.0000,  0.0000)
  45 O      1.400828    0.547808   20.525394    ( 0.0000,  0.0000,  0.0000)

Unit cell:
           periodic     x           y           z      points  spacing
  1. axis:    yes    8.445283    0.000000    0.000000    35     0.2090
  2. axis:    yes    4.222641    7.313829    0.000000    35     0.2090
  3. axis:    no     0.000000    0.000000   29.175054   135     0.2161

  Lengths:   8.445283   8.445283  29.175054
  Angles:   90.000000  90.000000  60.000000

Effective grid spacing dv^(1/3) = 0.2217

                     log10-error:    total        iterations:
           time      wfs    density  energy       fermi  poisson
iter:   1  20:55:27  -1.77   +inf  -280.709160    4             
iter:   2  20:56:20  -0.61  -1.59  -518.840331    36            
iter:   3  20:57:12  -1.17  -1.03  -275.345459    38            
iter:   4  20:58:05  -2.12  -1.69  -265.693807    37            
iter:   5  20:58:59  -3.07  -2.18  -265.602648    3             
iter:   6  20:59:51  -3.14  -2.14  -265.272680    3             
iter:   7  21:00:45  -4.01  -2.21  -264.704066    3             
iter:   8  21:01:37  -4.08  -2.56  -264.620657    2             
iter:   9  21:02:30  -3.60  -2.69  -264.568820    3             
iter:  10  21:03:23  -3.97  -2.81  -264.644376    3             
iter:  11  21:04:15  -4.04  -2.54  -264.551683    3             
iter:  12  21:05:08  -4.43  -2.91  -264.521803    2             
iter:  13  21:06:01  -4.94  -3.11  -264.521056    2             
iter:  14  21:06:53  -5.37  -3.28  -264.518951    2             
iter:  15  21:07:44  -5.58  -3.22  -264.517915    2             
iter:  16  21:08:37  -5.00  -3.40  -264.519615    3             
iter:  17  21:09:29  -5.41  -3.25  -264.526467    2             
iter:  18  21:10:21  -5.63  -3.24  -264.518200    2             
iter:  19  21:11:13  -6.04  -3.55  -264.519171    2             
iter:  20  21:12:05  -6.28  -3.68  -264.518378    2             
iter:  21  21:12:54  -6.18  -3.79  -264.518517    2             
iter:  22  21:13:44  -6.40  -3.90  -264.518253    2             
iter:  23  21:14:34  -6.21  -3.95  -264.520498    2             
iter:  24  21:15:24  -6.66  -3.58  -264.517854    2             
iter:  25  21:16:13  -7.00  -4.08  -264.518344    2             
iter:  26  21:17:04  -6.89  -4.04  -264.518200    2             
iter:  27  21:17:53  -7.22  -4.14  -264.518216    2             
iter:  28  21:18:43  -7.49  -4.13  -264.518229    2             

Converged after 28 iterations.

Dipole moment: (19.156788, 11.028966, -0.033748) |e|*Ang

Energy contributions relative to reference atoms: (reference = -16429278.754816)

Kinetic:       -135.461169
Potential:      +81.103394
External:        +0.000000
XC:            -202.651306
Entropy (-ST):   -2.116567
Local:           -6.450864
--------------------------
Free energy:   -265.576512
Extrapolated:  -264.518229

Fermi level: 1.34819

Showing only first 2 kpts
 Kpt  Band  Eigenvalues  Occupancy
  0   357      1.33605    0.13257
  0   358      1.38275    0.10361
  0   359      1.39917    0.09381
  0   360      1.43303    0.07494

  1   357      1.24782    0.18294
  1   358      1.27453    0.16906
  1   359      1.31158    0.14763
  1   360      1.36141    0.11675



Forces in eV/Ang:
  0 Ag   -0.41498    0.15573   -1.05072
  1 Ag    0.24904    0.22666   -0.86477
  2 Ir    0.50047   -0.18122    0.04373
  3 Ir   -0.09947    1.23081    1.37140
  4 Ir    0.37997    0.42194    0.92062
  5 Ir   -0.31387   -0.02083    1.22958
  6 Ir   -1.71474   -0.51283    0.73165
  7 Ag   -0.12634   -0.33355   -0.95631
  8 Pt    1.06025   -0.38702    0.48395
  9 Ag    0.14613    0.02330    0.18886
 10 Ir   -0.01677   -0.43605    1.03303
 11 Ir   -0.64844   -0.73689   -0.54833
 12 Ir    0.40629    0.12036    0.19108
 13 Ag   -0.02006   -0.03777    0.17939
 14 Ag    0.05726    0.07246    0.14884
 15 Pt   -0.10331   -0.03541   -0.54364
 16 Ru    0.66775    0.46664   -1.37837
 17 Ir    0.04931    0.27310   -1.23544
 18 Ir    0.01717   -0.00124    0.05401
 19 Pt    0.00649   -0.18888    0.06267
 20 Pt   -0.02963   -0.06691    0.03347
 21 Ag    0.01944   -0.00492    0.08299
 22 Ag    0.00129    0.02240   -0.01510
 23 Ag    0.02824    0.03782    0.04270
 24 Pt    0.01646    0.00899    0.01022
 25 Ag    0.15511    0.07524    0.05557
 26 Ir   -0.06751    0.09883    0.04827
 27 Ru    0.04549   -0.12359    0.11315
 28 Ir   -0.03205   -0.42564    0.12256
 29 Ir    0.12817   -0.28085   -0.23615
 30 Ir    0.12967    0.18905   -0.24356
 31 Ir   -0.07110    0.17683   -0.67795
 32 Pt    0.06640    0.14020   -0.10684
 33 Ag    0.10016    0.15022    0.20659
 34 Ir    0.11883    0.06234    0.43587
 35 Ru   -0.01317    0.06599   -0.06403
 36 Ir   -1.84259   -0.80980   -1.18460
 37 Ir    1.30345   -0.27897   -1.31614
 38 Pt    0.03351    0.03173   -0.05797
 39 Ag    0.02396    0.36858   -0.05664
 40 Ir   -0.05176   -0.20433    0.43563
 41 Pt    0.18001    0.03227    0.20001
 42 Ir   -0.16270    0.59160    0.42359
 43 Ir    0.07917   -0.10194    0.24020
 44 Ag   -0.27070    0.36676    0.04762
 45 O    -0.06865   -0.16822    1.60759

System changes: positions 

Initializing position-dependent things.

Density initialized from wave functions
                                             
                                             
                                             
                                             
                                             
                                             
                               Ag            
                  Ir    Ir                   
           OAg     Ir     Pt    Ru           
                  Ag                         
       Ir    IIr    IPt    Pt                
                                             
         Ru    Ir    PIr    Ag     Ir        
                Ag     Ag     Ag             
                                             
           Ir    PPt    RPt    Ir            
                                             
            Ir    IAg    AAg    Pt           
       Ag     Ir     Ir                      
             Ir     Ir     Ir                
        Ag     Ag     Ir                     
                                             
                                             
                                             
                                             
                                             

Positions:
   0 Ag     0.000000    1.621936   10.000000    ( 0.0000,  0.0000,  0.0000)
   1 Ag     2.809275    1.621936   10.000000    ( 0.0000,  0.0000,  0.0000)
   2 Ir     5.618550    1.621936   10.000000    ( 0.0000,  0.0000,  0.0000)
   3 Ir     1.404638    4.054840   10.000000    ( 0.0000,  0.0000,  0.0000)
   4 Ir     4.213913    4.054840   10.000000    ( 0.0000,  0.0000,  0.0000)
   5 Ir     7.023188    4.054840   10.000000    ( 0.0000,  0.0000,  0.0000)
   6 Ir     2.809275    6.487743   10.000000    ( 0.0000,  0.0000,  0.0000)
   7 Ag     5.618550    6.487743   10.000000    ( 0.0000,  0.0000,  0.0000)
   8 Pt     8.427826    6.487743   10.000000    ( 0.0000,  0.0000,  0.0000)
   9 Ag     0.000000    0.000000   12.293764    ( 0.0000,  0.0000,  0.0000)
  10 Ir     2.809275    0.000000   12.293764    ( 0.0000,  0.0000,  0.0000)
  11 Ir     5.618550    0.000000   12.293764    ( 0.0000,  0.0000,  0.0000)
  12 Ir     1.404638    2.432904   12.293764    ( 0.0000,  0.0000,  0.0000)
  13 Ag     4.213913    2.432904   12.293764    ( 0.0000,  0.0000,  0.0000)
  14 Ag     7.023188    2.432904   12.293764    ( 0.0000,  0.0000,  0.0000)
  15 Pt     2.809275    4.865807   12.293764    ( 0.0000,  0.0000,  0.0000)
  16 Ru     5.618550    4.865807   12.293764    ( 0.0000,  0.0000,  0.0000)
  17 Ir     8.427826    4.865807   12.293764    ( 0.0000,  0.0000,  0.0000)
  18 Ir     1.442907    0.796999   14.596206    ( 0.0000,  0.0000,  0.0000)
  19 Pt     4.199462    0.733951   14.616310    ( 0.0000,  0.0000,  0.0000)
  20 Pt     7.032623    0.803455   14.638731    ( 0.0000,  0.0000,  0.0000)
  21 Ag     2.789818    3.269314   14.614253    ( 0.0000,  0.0000,  0.0000)
  22 Ag     5.616630    3.229031   14.632486    ( 0.0000,  0.0000,  0.0000)
  23 Ag     8.466031    3.240809   14.610122    ( 0.0000,  0.0000,  0.0000)
  24 Pt     4.239657    5.674081   14.606343    ( 0.0000,  0.0000,  0.0000)
  25 Ag     7.020632    5.622130   14.592831    ( 0.0000,  0.0000,  0.0000)
  26 Ir     9.828799    5.737508   14.522827    ( 0.0000,  0.0000,  0.0000)
  27 Ru     0.080718    1.647417   16.903188    ( 0.0000,  0.0000,  0.0000)
  28 Ir     2.758413    1.616205   16.870279    ( 0.0000,  0.0000,  0.0000)
  29 Ir     5.552787    1.603800   16.896963    ( 0.0000,  0.0000,  0.0000)
  30 Ir     1.350096    3.999546   17.051859    ( 0.0000,  0.0000,  0.0000)
  31 Ir     4.200353    3.974540   16.968809    ( 0.0000,  0.0000,  0.0000)
  32 Pt     7.126547    4.057266   17.001890    ( 0.0000,  0.0000,  0.0000)
  33 Ag     2.774248    6.478612   16.817721    ( 0.0000,  0.0000,  0.0000)
  34 Ir     5.663446    6.550998   16.851871    ( 0.0000,  0.0000,  0.0000)
  35 Ru     8.386600    6.488257   16.911374    ( 0.0000,  0.0000,  0.0000)
  36 Ir     0.076560   -0.012993   19.174445    ( 0.0000,  0.0000,  0.0000)
  37 Ir     2.705529    0.007313   19.088122    ( 0.0000,  0.0000,  0.0000)
  38 Pt     5.616665   -0.055524   19.126264    ( 0.0000,  0.0000,  0.0000)
  39 Ag     1.413423    2.534581   19.523742    ( 0.0000,  0.0000,  0.0000)
  40 Ir     4.246597    2.426434   19.003740    ( 0.0000,  0.0000,  0.0000)
  41 Pt     6.941603    2.324592   19.113916    ( 0.0000,  0.0000,  0.0000)
  42 Ir     2.926701    4.891596   19.023861    ( 0.0000,  0.0000,  0.0000)
  43 Ir     5.517513    4.900740   19.019142    ( 0.0000,  0.0000,  0.0000)
  44 Ag     8.407477    4.874306   19.533084    ( 0.0000,  0.0000,  0.0000)
  45 O      1.400935    0.608981   20.610538    ( 0.0000,  0.0000,  0.0000)

Unit cell:
           periodic     x           y           z      points  spacing
  1. axis:    yes    8.445283    0.000000    0.000000    35     0.2090
  2. axis:    yes    4.222641    7.313829    0.000000    35     0.2090
  3. axis:    no     0.000000    0.000000   29.175054   135     0.2161

  Lengths:   8.445283   8.445283  29.175054
  Angles:   90.000000  90.000000  60.000000

Effective grid spacing dv^(1/3) = 0.2217

                     log10-error:    total        iterations:
           time      wfs    density  energy       fermi  poisson
iter:   1  21:19:52  -1.82   +inf  -276.489474    3             
iter:   2  21:20:35  -0.88  -1.64  -483.703395    37            
iter:   3  21:21:18  -1.34  -1.08  -267.606992    38            
iter:   4  21:22:04  -2.22  -1.94  -267.428240    3             
iter:   5  21:22:56  -3.02  -1.90  -264.941305    3             
iter:   6  21:23:47  -3.65  -2.40  -264.699353    3             
iter:   7  21:24:39  -4.27  -2.71  -264.672492    3             
iter:   8  21:25:30  -4.28  -2.76  -264.634909    2             
iter:   9  21:26:22  -4.14  -2.91  -264.687232    3             
iter:  10  21:27:14  -4.41  -2.67  -264.637308    2             
iter:  11  21:28:05  -4.52  -2.78  -264.617469    3             
iter:  12  21:29:04  -4.36  -2.97  -264.608019    2             
iter:  13  21:30:08  -4.90  -3.08  -264.601713    3             
iter:  14  21:31:12  -5.49  -3.17  -264.595261    2             
iter:  15  21:32:17  -5.79  -3.36  -264.596156    2             
iter:  16  21:33:22  -5.40  -3.33  -264.594991    2             
iter:  17  21:34:26  -5.57  -3.21  -264.592800    2             
iter:  18  21:35:30  -6.11  -3.57  -264.593095    2             
iter:  19  21:36:35  -5.98  -3.59  -264.592334    2             
iter:  20  21:37:36  -6.11  -3.74  -264.591413    2             
iter:  21  21:38:42  -6.36  -3.76  -264.591906    2             
iter:  22  21:39:48  -6.59  -3.95  -264.591415    2             
iter:  23  21:40:55  -6.77  -3.79  -264.591929    2             
iter:  24  21:42:02  -6.31  -4.09  -264.591950    2             
iter:  25  21:43:08  -7.21  -4.17  -264.591694    2             
iter:  26  21:44:15  -7.45  -4.28  -264.591610    2             

Converged after 26 iterations.

Dipole moment: (20.031918, 13.070135, -0.115718) |e|*Ang

Energy contributions relative to reference atoms: (reference = -16429278.754816)

Kinetic:       -148.096294
Potential:      +91.836917
External:        +0.000000
XC:            -200.886565
Entropy (-ST):   -2.132416
Local:           -6.379459
--------------------------
Free energy:   -265.657818
Extrapolated:  -264.591610

Fermi level: 1.30271

Showing only first 2 kpts
 Kpt  Band  Eigenvalues  Occupancy
  0   357      1.29575    0.12935
  0   358      1.33709    0.10372
  0   359      1.36306    0.08839
  0   360      1.37693    0.08063

  1   357      1.19965    0.18426
  1   358      1.22979    0.16866
  1   359      1.26074    0.15085
  1   360      1.31485    0.11742



Forces in eV/Ang:
  0 Ag   -0.42211    0.16131   -1.04745
  1 Ag    0.25502    0.22971   -0.85896
  2 Ir    0.49963   -0.17915    0.03718
  3 Ir   -0.09951    1.24560    1.37170
  4 Ir    0.38569    0.41653    0.91409
  5 Ir   -0.32011   -0.02089    1.22410
  6 Ir   -1.72826   -0.51891    0.73193
  7 Ag   -0.12376   -0.34376   -0.95147
  8 Pt    1.07383   -0.39143    0.48868
  9 Ag    0.14309    0.01855    0.18294
 10 Ir   -0.01730   -0.43608    1.02541
 11 Ir   -0.65047   -0.74683   -0.55359
 12 Ir    0.40186    0.12746    0.18669
 13 Ag   -0.02039   -0.03817    0.16682
 14 Ag    0.05640    0.07703    0.13686
 15 Pt   -0.12055   -0.03781   -0.59160
 16 Ru    0.66313    0.47073   -1.37989
 17 Ir    0.05932    0.27877   -1.25554
 18 Ir    0.01461    0.01537    0.03811
 19 Pt    0.02265   -0.14505    0.05943
 20 Pt   -0.02691   -0.05153    0.03220
 21 Ag    0.01199   -0.00034    0.07771
 22 Ag    0.00460    0.01011   -0.00856
 23 Ag    0.02654    0.03012    0.03849
 24 Pt    0.01600    0.00753    0.01950
 25 Ag    0.11965    0.05637    0.04915
 26 Ir   -0.00996    0.04352    0.01731
 27 Ru    0.01458   -0.14160    0.05524
 28 Ir   -0.00151   -0.35510    0.08123
 29 Ir    0.10505   -0.20524   -0.14898
 30 Ir    0.07270    0.12128   -0.09413
 31 Ir   -0.04998    0.11973   -0.47488
 32 Pt    0.05459    0.11009   -0.07221
 33 Ag    0.14207    0.14037    0.23400
 34 Ir    0.06570    0.06934    0.41721
 35 Ru   -0.05638    0.08715    0.10431
 36 Ir   -0.44752   -0.30253    0.06970
 37 Ir    0.24967    0.01621   -0.37829
 38 Pt    0.01633    0.02192   -0.05988
 39 Ag    0.04503    0.54948   -0.08837
 40 Ir   -0.00232   -0.09802    0.28755
 41 Pt    0.07621    0.04315    0.10054
 42 Ir   -0.10348    0.47226    0.28460
 43 Ir    0.03753   -0.17911    0.12386
 44 Ag   -0.18351    0.25050    0.02002
 45 O    -0.34781   -1.09046   -0.81223

System changes: positions 

Initializing position-dependent things.

Density initialized from wave functions
                                             
                                             
                                             
                                             
                                             
                                             
                               Ag            
                  Ir    Ir                   
           OAg    AIr     Pt    Ru           
                                             
       Ir    IIr    IPt    Pt                
         Ru                                  
               Ir    PIr    Ag     Ir        
                Ag     Ag     Ag             
                                             
           Ir    PPt    RPt    Ir            
                                             
            Ir    IAg    AAg    Pt           
       Ag    IIr    IIr    Ir                
                                             
        Ag     Ag     Ir                     
                                             
                                             
                                             
                                             
                                             

Positions:
   0 Ag     0.000000    1.621936   10.000000    ( 0.0000,  0.0000,  0.0000)
   1 Ag     2.809275    1.621936   10.000000    ( 0.0000,  0.0000,  0.0000)
   2 Ir     5.618550    1.621936   10.000000    ( 0.0000,  0.0000,  0.0000)
   3 Ir     1.404638    4.054840   10.000000    ( 0.0000,  0.0000,  0.0000)
   4 Ir     4.213913    4.054840   10.000000    ( 0.0000,  0.0000,  0.0000)
   5 Ir     7.023188    4.054840   10.000000    ( 0.0000,  0.0000,  0.0000)
   6 Ir     2.809275    6.487743   10.000000    ( 0.0000,  0.0000,  0.0000)
   7 Ag     5.618550    6.487743   10.000000    ( 0.0000,  0.0000,  0.0000)
   8 Pt     8.427826    6.487743   10.000000    ( 0.0000,  0.0000,  0.0000)
   9 Ag     0.000000    0.000000   12.293764    ( 0.0000,  0.0000,  0.0000)
  10 Ir     2.809275    0.000000   12.293764    ( 0.0000,  0.0000,  0.0000)
  11 Ir     5.618550    0.000000   12.293764    ( 0.0000,  0.0000,  0.0000)
  12 Ir     1.404638    2.432904   12.293764    ( 0.0000,  0.0000,  0.0000)
  13 Ag     4.213913    2.432904   12.293764    ( 0.0000,  0.0000,  0.0000)
  14 Ag     7.023188    2.432904   12.293764    ( 0.0000,  0.0000,  0.0000)
  15 Pt     2.809275    4.865807   12.293764    ( 0.0000,  0.0000,  0.0000)
  16 Ru     5.618550    4.865807   12.293764    ( 0.0000,  0.0000,  0.0000)
  17 Ir     8.427826    4.865807   12.293764    ( 0.0000,  0.0000,  0.0000)
  18 Ir     1.444449    0.800085   14.600115    ( 0.0000,  0.0000,  0.0000)
  19 Pt     4.203146    0.724018   14.622564    ( 0.0000,  0.0000,  0.0000)
  20 Pt     7.029827    0.799412   14.642492    ( 0.0000,  0.0000,  0.0000)
  21 Ag     2.790826    3.270016   14.622260    ( 0.0000,  0.0000,  0.0000)
  22 Ag     5.617788    3.229304   14.632719    ( 0.0000,  0.0000,  0.0000)
  23 Ag     8.468498    3.243605   14.613813    ( 0.0000,  0.0000,  0.0000)
  24 Pt     4.241680    5.674284   14.609998    ( 0.0000,  0.0000,  0.0000)
  25 Ag     7.030023    5.625695   14.597897    ( 0.0000,  0.0000,  0.0000)
  26 Ir     9.833985    5.737171   14.520447    ( 0.0000,  0.0000,  0.0000)
  27 Ru     0.079270    1.633728   16.900234    ( 0.0000,  0.0000,  0.0000)
  28 Ir     2.762385    1.584937   16.875005    ( 0.0000,  0.0000,  0.0000)
  29 Ir     5.561238    1.589802   16.887899    ( 0.0000,  0.0000,  0.0000)
  30 Ir     1.352933    4.006447   17.057001    ( 0.0000,  0.0000,  0.0000)
  31 Ir     4.197125    3.982740   16.935554    ( 0.0000,  0.0000,  0.0000)
  32 Pt     7.131156    4.066134   16.997404    ( 0.0000,  0.0000,  0.0000)
  33 Ag     2.789956    6.490716   16.840790    ( 0.0000,  0.0000,  0.0000)
  34 Ir     5.668472    6.552425   16.880315    ( 0.0000,  0.0000,  0.0000)
  35 Ru     8.378048    6.496685   16.933877    ( 0.0000,  0.0000,  0.0000)
  36 Ir     0.061401   -0.022662   19.236628    ( 0.0000,  0.0000,  0.0000)
  37 Ir     2.701982    0.019012   19.092158    ( 0.0000,  0.0000,  0.0000)
  38 Pt     5.615577   -0.054867   19.119664    ( 0.0000,  0.0000,  0.0000)
  39 Ag     1.417635    2.612635   19.508354    ( 0.0000,  0.0000,  0.0000)
  40 Ir     4.252270    2.426322   19.021268    ( 0.0000,  0.0000,  0.0000)
  41 Pt     6.940116    2.331430   19.117009    ( 0.0000,  0.0000,  0.0000)
  42 Ir     2.920658    4.930277   19.039515    ( 0.0000,  0.0000,  0.0000)
  43 Ir     5.518026    4.871029   19.026275    ( 0.0000,  0.0000,  0.0000)
  44 Ag     8.393370    4.893033   19.533746    ( 0.0000,  0.0000,  0.0000)
  45 O      1.373862    0.468939   20.470341    ( 0.0000,  0.0000,  0.0000)

Unit cell:
           periodic     x           y           z      points  spacing
  1. axis:    yes    8.445283    0.000000    0.000000    35     0.2090
  2. axis:    yes    4.222641    7.313829    0.000000    35     0.2090
  3. axis:    no     0.000000    0.000000   29.175054   135     0.2161

  Lengths:   8.445283   8.445283  29.175054
  Angles:   90.000000  90.000000  60.000000

Effective grid spacing dv^(1/3) = 0.2217

                     log10-error:    total        iterations:
           time      wfs    density  energy       fermi  poisson
iter:   1  21:45:52  -1.90   +inf  -278.083479    4             
iter:   2  21:46:59  -0.75  -1.64  -494.471918    38            
iter:   3  21:48:02  -1.28  -1.06  -272.054961    37            
iter:   4  21:49:04  -2.18  -1.76  -265.544274    36            
iter:   5  21:50:06  -3.46  -2.21  -265.174311    3             
iter:   6  21:51:09  -3.47  -2.31  -264.737941    3             
iter:   7  21:52:12  -4.15  -2.70  -264.721440    2             
iter:   8  21:53:16  -4.23  -2.72  -264.747674    3             
iter:   9  21:54:20  -4.35  -2.61  -264.690204    3             
iter:  10  21:55:23  -4.12  -2.84  -264.663311    2             
iter:  11  21:56:26  -4.35  -3.04  -264.655304    3             
iter:  12  21:57:30  -4.84  -3.09  -264.649552    2             
iter:  13  21:58:24  -5.21  -3.26  -264.647396    2             
iter:  14  21:59:16  -5.13  -3.30  -264.648091    2             
iter:  15  22:00:08  -5.38  -3.15  -264.655589    2             
iter:  16  22:00:59  -5.30  -3.18  -264.645459    3             
iter:  17  22:01:51  -6.01  -3.47  -264.645524    2             
iter:  18  22:02:42  -5.62  -3.45  -264.646315    2             
iter:  19  22:03:34  -6.03  -3.67  -264.645551    2             
iter:  20  22:04:27  -6.26  -3.78  -264.645765    2             
iter:  21  22:05:18  -5.98  -3.84  -264.651837    2             
iter:  22  22:06:09  -6.25  -3.33  -264.645786    2             
iter:  23  22:07:01  -6.24  -3.95  -264.645751    2             
iter:  24  22:07:52  -6.54  -3.94  -264.646274    2             
iter:  25  22:08:44  -6.86  -3.90  -264.645719    2             
iter:  26  22:09:35  -7.29  -4.14  -264.645905    2             
iter:  27  22:10:27  -7.09  -4.07  -264.646110    2             
iter:  28  22:11:20  -6.85  -4.01  -264.645108    2             
iter:  29  22:12:26  -6.80  -3.92  -264.645596    2             
iter:  30  22:13:33  -7.69  -4.49  -264.645738    2             

Converged after 30 iterations.

Dipole moment: (22.325550, 10.802719, -0.022089) |e|*Ang

Energy contributions relative to reference atoms: (reference = -16429278.754816)

Kinetic:       -138.709540
Potential:      +83.854344
External:        +0.000000
XC:            -202.302931
Entropy (-ST):   -2.116701
Local:           -6.429261
--------------------------
Free energy:   -265.704089
Extrapolated:  -264.645738

Fermi level: 1.35215

Showing only first 2 kpts
 Kpt  Band  Eigenvalues  Occupancy
  0   357      1.33947    0.13292
  0   358      1.38280    0.10600
  0   359      1.40095    0.09509
  0   360      1.43698    0.07495

  1   357      1.24551    0.18598
  1   358      1.28009    0.16819
  1   359      1.31374    0.14871
  1   360      1.36131    0.11928



Forces in eV/Ang:
  0 Ag   -0.41564    0.15825   -1.05437
  1 Ag    0.25000    0.22763   -0.86537
  2 Ir    0.49645   -0.18044    0.03185
  3 Ir   -0.10142    1.23026    1.37493
  4 Ir    0.38368    0.42335    0.91611
  5 Ir   -0.31097   -0.01678    1.22569
  6 Ir   -1.71885   -0.51045    0.72316
  7 Ag   -0.12409   -0.33550   -0.95824
  8 Pt    1.06658   -0.38708    0.47993
  9 Ag    0.14852    0.02142    0.21119
 10 Ir   -0.01289   -0.44553    1.04752
 11 Ir   -0.64667   -0.74439   -0.56108
 12 Ir    0.41528    0.11496    0.23217
 13 Ag   -0.02712   -0.04812    0.20236
 14 Ag    0.06206    0.06990    0.16513
 15 Pt   -0.11346   -0.03425   -0.54001
 16 Ru    0.67065    0.47798   -1.35489
 17 Ir    0.05611    0.27689   -1.24569
 18 Ir   -0.00034   -0.01509    0.04877
 19 Pt   -0.01654   -0.03188   -0.00725
 20 Pt    0.02766   -0.05510    0.00841
 21 Ag   -0.01620   -0.07072    0.02288
 22 Ag    0.04190   -0.00633   -0.04458
 23 Ag    0.02249   -0.01051    0.04399
 24 Pt    0.04079    0.03794    0.05568
 25 Ag    0.01048    0.03623    0.06120
 26 Ir    0.01500    0.01253    0.08575
 27 Ru    0.02216    0.00126    0.10692
 28 Ir    0.05703   -0.10004    0.10968
 29 Ir   -0.02571    0.03031   -0.00175
 30 Ir    0.15377    0.18463   -0.20941
 31 Ir   -0.09592    0.02466    0.33336
 32 Pt    0.01625    0.02273    0.01316
 33 Ag    0.04860    0.03445   -0.04086
 34 Ir    0.02821   -0.15033   -0.05004
 35 Ru    0.06180   -0.04526   -0.15152
 36 Ir   -1.87147   -0.71242   -1.46878
 37 Ir    0.98628   -0.10617   -0.95211
 38 Pt    0.06177    0.10801    0.07090
 39 Ag    0.03290    0.01846    0.03116
 40 Ir    0.02781    0.06981   -0.18678
 41 Pt    0.06855    0.10137    0.07410
 42 Ir    0.09844    0.18588    0.01298
 43 Ir   -0.06778   -0.30539   -0.05538
 44 Ag   -0.23518    0.28471    0.07073
 45 O     0.53509    0.14425    2.28281

System changes: positions 

Initializing position-dependent things.

Density initialized from wave functions
                                             
                                             
                                             
                                             
                                             
                                             
                               Ag            
                  Ir    Ir                   
           OAg    AIr     Pt    Ru           
                                             
       Ir    IIr    IPt    Pt                
                                             
         Ru    Ir    PIr    Ag     Ir        
                Ag     Ag     Ag             
                                             
           Ir    PPt    RPt    Ir            
                                             
            Ir    IAg    AAg    Pt           
       Ag    IIr    IIr    Ir                
                                             
        Ag     Ag     Ir                     
                                             
                                             
                                             
                                             
                                             

Positions:
   0 Ag     0.000000    1.621936   10.000000    ( 0.0000,  0.0000,  0.0000)
   1 Ag     2.809275    1.621936   10.000000    ( 0.0000,  0.0000,  0.0000)
   2 Ir     5.618550    1.621936   10.000000    ( 0.0000,  0.0000,  0.0000)
   3 Ir     1.404638    4.054840   10.000000    ( 0.0000,  0.0000,  0.0000)
   4 Ir     4.213913    4.054840   10.000000    ( 0.0000,  0.0000,  0.0000)
   5 Ir     7.023188    4.054840   10.000000    ( 0.0000,  0.0000,  0.0000)
   6 Ir     2.809275    6.487743   10.000000    ( 0.0000,  0.0000,  0.0000)
   7 Ag     5.618550    6.487743   10.000000    ( 0.0000,  0.0000,  0.0000)
   8 Pt     8.427826    6.487743   10.000000    ( 0.0000,  0.0000,  0.0000)
   9 Ag     0.000000    0.000000   12.293764    ( 0.0000,  0.0000,  0.0000)
  10 Ir     2.809275    0.000000   12.293764    ( 0.0000,  0.0000,  0.0000)
  11 Ir     5.618550    0.000000   12.293764    ( 0.0000,  0.0000,  0.0000)
  12 Ir     1.404638    2.432904   12.293764    ( 0.0000,  0.0000,  0.0000)
  13 Ag     4.213913    2.432904   12.293764    ( 0.0000,  0.0000,  0.0000)
  14 Ag     7.023188    2.432904   12.293764    ( 0.0000,  0.0000,  0.0000)
  15 Pt     2.809275    4.865807   12.293764    ( 0.0000,  0.0000,  0.0000)
  16 Ru     5.618550    4.865807   12.293764    ( 0.0000,  0.0000,  0.0000)
  17 Ir     8.427826    4.865807   12.293764    ( 0.0000,  0.0000,  0.0000)
  18 Ir     1.443710    0.798605   14.598241    ( 0.0000,  0.0000,  0.0000)
  19 Pt     4.201380    0.728781   14.619565    ( 0.0000,  0.0000,  0.0000)
  20 Pt     7.031167    0.801351   14.640689    ( 0.0000,  0.0000,  0.0000)
  21 Ag     2.790343    3.269679   14.618421    ( 0.0000,  0.0000,  0.0000)
  22 Ag     5.617233    3.229173   14.632607    ( 0.0000,  0.0000,  0.0000)
  23 Ag     8.467315    3.242264   14.612043    ( 0.0000,  0.0000,  0.0000)
  24 Pt     4.240710    5.674187   14.608245    ( 0.0000,  0.0000,  0.0000)
  25 Ag     7.025520    5.623986   14.595468    ( 0.0000,  0.0000,  0.0000)
  26 Ir     9.831498    5.737332   14.521588    ( 0.0000,  0.0000,  0.0000)
  27 Ru     0.079964    1.640292   16.901651    ( 0.0000,  0.0000,  0.0000)
  28 Ir     2.760481    1.599929   16.872739    ( 0.0000,  0.0000,  0.0000)
  29 Ir     5.557186    1.596514   16.892245    ( 0.0000,  0.0000,  0.0000)
  30 Ir     1.351573    4.003138   17.054535    ( 0.0000,  0.0000,  0.0000)
  31 Ir     4.198673    3.978808   16.951499    ( 0.0000,  0.0000,  0.0000)
  32 Pt     7.128946    4.061882   16.999555    ( 0.0000,  0.0000,  0.0000)
  33 Ag     2.782425    6.484912   16.829729    ( 0.0000,  0.0000,  0.0000)
  34 Ir     5.666062    6.551741   16.866676    ( 0.0000,  0.0000,  0.0000)
  35 Ru     8.382148    6.492644   16.923087    ( 0.0000,  0.0000,  0.0000)
  36 Ir     0.068670   -0.018026   19.206812    ( 0.0000,  0.0000,  0.0000)
  37 Ir     2.703682    0.013403   19.090223    ( 0.0000,  0.0000,  0.0000)
  38 Pt     5.616098   -0.055182   19.122829    ( 0.0000,  0.0000,  0.0000)
  39 Ag     1.415615    2.575209   19.515732    ( 0.0000,  0.0000,  0.0000)
  40 Ir     4.249550    2.426376   19.012863    ( 0.0000,  0.0000,  0.0000)
  41 Pt     6.940829    2.328151   19.115526    ( 0.0000,  0.0000,  0.0000)
  42 Ir     2.923555    4.911730   19.032009    ( 0.0000,  0.0000,  0.0000)
  43 Ir     5.517780    4.885275   19.022855    ( 0.0000,  0.0000,  0.0000)
  44 Ag     8.400134    4.884054   19.533429    ( 0.0000,  0.0000,  0.0000)
  45 O      1.386843    0.536088   20.537564    ( 0.0000,  0.0000,  0.0000)

Unit cell:
           periodic     x           y           z      points  spacing
  1. axis:    yes    8.445283    0.000000    0.000000    35     0.2090
  2. axis:    yes    4.222641    7.313829    0.000000    35     0.2090
  3. axis:    no     0.000000    0.000000   29.175054   135     0.2161

  Lengths:   8.445283   8.445283  29.175054
  Angles:   90.000000  90.000000  60.000000

Effective grid spacing dv^(1/3) = 0.2217

                     log10-error:    total        iterations:
           time      wfs    density  energy       fermi  poisson
iter:   1  22:15:10  -2.14   +inf  -271.320248    3             
iter:   2  22:16:16  -1.22  -1.76  -406.770920    37            
iter:   3  22:17:22  -1.57  -1.17  -265.862719    35            
iter:   4  22:18:28  -2.53  -2.14  -266.031354    3             
iter:   5  22:19:35  -3.34  -2.06  -264.871820    3             
iter:   6  22:20:42  -4.14  -2.59  -264.770154    3             
iter:   7  22:21:48  -4.64  -2.90  -264.759144    3             
iter:   8  22:22:55  -4.64  -2.95  -264.742621    2             
iter:   9  22:24:02  -4.56  -3.08  -264.768798    2             
iter:  10  22:25:09  -4.98  -2.87  -264.733915    2             
iter:  11  22:26:17  -4.95  -3.28  -264.747505    3             
iter:  12  22:27:24  -4.73  -3.03  -264.734668    3             
iter:  13  22:28:31  -5.39  -3.27  -264.732231    2             
iter:  14  22:29:38  -5.95  -3.35  -264.728835    2             
iter:  15  22:30:44  -6.16  -3.56  -264.729814    2             
iter:  16  22:31:45  -5.88  -3.49  -264.727031    2             
iter:  17  22:32:48  -5.84  -3.56  -264.727521    2             
iter:  18  22:33:42  -6.40  -3.80  -264.727619    2             
iter:  19  22:34:30  -6.33  -3.82  -264.727398    2             
iter:  20  22:35:18  -6.55  -3.96  -264.726772    2             
iter:  21  22:36:07  -6.81  -3.95  -264.727264    2             
iter:  22  22:36:58  -7.03  -4.14  -264.726886    2             
iter:  23  22:37:49  -7.24  -4.06  -264.727135    2             
iter:  24  22:38:41  -6.68  -4.30  -264.727199    2             
iter:  25  22:39:32  -7.76  -4.45  -264.727127    2             

Converged after 25 iterations.

Dipole moment: (21.316140, 12.028750, -0.066783) |e|*Ang

Energy contributions relative to reference atoms: (reference = -16429278.754816)

Kinetic:       -144.634668
Potential:      +88.852447
External:        +0.000000
XC:            -201.488607
Entropy (-ST):   -2.125407
Local:           -6.393596
--------------------------
Free energy:   -265.789830
Extrapolated:  -264.727127

Fermi level: 1.32864

Showing only first 2 kpts
 Kpt  Band  Eigenvalues  Occupancy
  0   357      1.31889    0.13109
  0   358      1.36299    0.10374
  0   359      1.38350    0.09155
  0   360      1.40942    0.07709

  1   357      1.22353    0.18525
  1   358      1.25645    0.16826
  1   359      1.28912    0.14938
  1   360      1.33993    0.11796



Forces in eV/Ang:
  0 Ag   -0.42039    0.16029   -1.05041
  1 Ag    0.25351    0.22857   -0.86098
  2 Ir    0.49865   -0.17900    0.03451
  3 Ir   -0.10009    1.24187    1.37668
  4 Ir    0.38538    0.42053    0.91679
  5 Ir   -0.31649   -0.01865    1.22725
  6 Ir   -1.72637   -0.51660    0.72882
  7 Ag   -0.12356   -0.34175   -0.95326
  8 Pt    1.07244   -0.39056    0.48576
  9 Ag    0.14643    0.01863    0.19956
 10 Ir   -0.01552   -0.44248    1.03933
 11 Ir   -0.64829   -0.74666   -0.55716
 12 Ir    0.40960    0.12227    0.21305
 13 Ag   -0.02458   -0.04279    0.18622
 14 Ag    0.05941    0.07493    0.15174
 15 Pt   -0.11769   -0.03603   -0.56591
 16 Ru    0.66694    0.47513   -1.36585
 17 Ir    0.05585    0.27746   -1.25296
 18 Ir    0.00655   -0.00239    0.03962
 19 Pt   -0.00021   -0.08634    0.02003
 20 Pt    0.00431   -0.05423    0.01626
 21 Ag   -0.00352   -0.03987    0.04979
 22 Ag    0.02393    0.00165   -0.02851
 23 Ag    0.02546    0.00698    0.04247
 24 Pt    0.03256    0.02820    0.03588
 25 Ag    0.05905    0.04882    0.05558
 26 Ir    0.00562    0.02758    0.05334
 27 Ru    0.01639   -0.06918    0.08237
 28 Ir    0.03340   -0.20559    0.09404
 29 Ir    0.03200   -0.06937   -0.06828
 30 Ir    0.12345    0.14734   -0.15666
 31 Ir   -0.08279    0.05207   -0.02644
 32 Pt    0.03367    0.05824   -0.03317
 33 Ag    0.09526    0.08249    0.08550
 34 Ir    0.03774   -0.03934    0.18267
 35 Ru    0.01037    0.01461   -0.03469
 36 Ir   -0.96800   -0.44968   -0.57403
 37 Ir    0.56002   -0.04501   -0.63120
 38 Pt    0.04115    0.07241    0.00772
 39 Ag    0.03024    0.24805   -0.01728
 40 Ir    0.01211    0.00629    0.01684
 41 Pt    0.07372    0.07092    0.08738
 42 Ir    0.01072    0.31472    0.12073
 43 Ir   -0.02361   -0.25475    0.01572
 44 Ag   -0.20940    0.26404    0.04894
 45 O    -0.09385   -0.44265    0.51009

System changes: positions 

Initializing position-dependent things.

Density initialized from wave functions
                                             
                                             
                                             
                                             
                                             
                                             
                               Ag            
                  Ir    Ir                   
           O Ag   AIr     Pt    Ru           
                                             
       Ir    IIr    IPt     Pt               
                                             
         Ru    Ir    PIr    Ag     Ir        
                Ag     Ag     Ag             
                                             
           Ir    PPt    RPt    Ir            
                                             
            Ir     Ag    AAg    Pt           
       Ag    IIr    IIr    Ir                
                                             
        Ag     Ag     Ir                     
                                             
                                             
                                             
                                             
                                             

Positions:
   0 Ag     0.000000    1.621936   10.000000    ( 0.0000,  0.0000,  0.0000)
   1 Ag     2.809275    1.621936   10.000000    ( 0.0000,  0.0000,  0.0000)
   2 Ir     5.618550    1.621936   10.000000    ( 0.0000,  0.0000,  0.0000)
   3 Ir     1.404638    4.054840   10.000000    ( 0.0000,  0.0000,  0.0000)
   4 Ir     4.213913    4.054840   10.000000    ( 0.0000,  0.0000,  0.0000)
   5 Ir     7.023188    4.054840   10.000000    ( 0.0000,  0.0000,  0.0000)
   6 Ir     2.809275    6.487743   10.000000    ( 0.0000,  0.0000,  0.0000)
   7 Ag     5.618550    6.487743   10.000000    ( 0.0000,  0.0000,  0.0000)
   8 Pt     8.427826    6.487743   10.000000    ( 0.0000,  0.0000,  0.0000)
   9 Ag     0.000000    0.000000   12.293764    ( 0.0000,  0.0000,  0.0000)
  10 Ir     2.809275    0.000000   12.293764    ( 0.0000,  0.0000,  0.0000)
  11 Ir     5.618550    0.000000   12.293764    ( 0.0000,  0.0000,  0.0000)
  12 Ir     1.404638    2.432904   12.293764    ( 0.0000,  0.0000,  0.0000)
  13 Ag     4.213913    2.432904   12.293764    ( 0.0000,  0.0000,  0.0000)
  14 Ag     7.023188    2.432904   12.293764    ( 0.0000,  0.0000,  0.0000)
  15 Pt     2.809275    4.865807   12.293764    ( 0.0000,  0.0000,  0.0000)
  16 Ru     5.618550    4.865807   12.293764    ( 0.0000,  0.0000,  0.0000)
  17 Ir     8.427826    4.865807   12.293764    ( 0.0000,  0.0000,  0.0000)
  18 Ir     1.444844    0.799942   14.603626    ( 0.0000,  0.0000,  0.0000)
  19 Pt     4.203023    0.719462   14.623428    ( 0.0000,  0.0000,  0.0000)
  20 Pt     7.030941    0.794995   14.643685    ( 0.0000,  0.0000,  0.0000)
  21 Ag     2.790073    3.265812   14.625971    ( 0.0000,  0.0000,  0.0000)
  22 Ag     5.620573    3.228997   14.630102    ( 0.0000,  0.0000,  0.0000)
  23 Ag     8.470623    3.243567   14.617550    ( 0.0000,  0.0000,  0.0000)
  24 Pt     4.245057    5.677068   14.614077    ( 0.0000,  0.0000,  0.0000)
  25 Ag     7.032811    5.629073   14.602935    ( 0.0000,  0.0000,  0.0000)
  26 Ir     9.836875    5.737643   14.524635    ( 0.0000,  0.0000,  0.0000)
  27 Ru     0.079792    1.629666   16.905300    ( 0.0000,  0.0000,  0.0000)
  28 Ir     2.767497    1.572164   16.882387    ( 0.0000,  0.0000,  0.0000)
  29 Ir     5.561537    1.589271   16.885869    ( 0.0000,  0.0000,  0.0000)
  30 Ir     1.363472    4.018192   17.046582    ( 0.0000,  0.0000,  0.0000)
  31 Ir     4.189696    3.984357   16.949016    ( 0.0000,  0.0000,  0.0000)
  32 Pt     7.133285    4.069210   16.996382    ( 0.0000,  0.0000,  0.0000)
  33 Ag     2.797561    6.495817   16.844429    ( 0.0000,  0.0000,  0.0000)
  34 Ir     5.670555    6.544517   16.886044    ( 0.0000,  0.0000,  0.0000)
  35 Ru     8.379655    6.496062   16.931350    ( 0.0000,  0.0000,  0.0000)
  36 Ir    -0.025963   -0.058671   19.188787    ( 0.0000,  0.0000,  0.0000)
  37 Ir     2.749040    0.016869   19.044691    ( 0.0000,  0.0000,  0.0000)
  38 Pt     5.618881   -0.047823   19.121811    ( 0.0000,  0.0000,  0.0000)
  39 Ag     1.419800    2.634243   19.506480    ( 0.0000,  0.0000,  0.0000)
  40 Ir     4.255604    2.432613   19.012360    ( 0.0000,  0.0000,  0.0000)
  41 Pt     6.943490    2.339103   19.122007    ( 0.0000,  0.0000,  0.0000)
  42 Ir     2.925824    4.950929   19.041767    ( 0.0000,  0.0000,  0.0000)
  43 Ir     5.513402    4.843174   19.023248    ( 0.0000,  0.0000,  0.0000)
  44 Ag     8.375918    4.914249   19.538278    ( 0.0000,  0.0000,  0.0000)
  45 O      1.374517    0.436442   20.528227    ( 0.0000,  0.0000,  0.0000)

Unit cell:
           periodic     x           y           z      points  spacing
  1. axis:    yes    8.445283    0.000000    0.000000    35     0.2090
  2. axis:    yes    4.222641    7.313829    0.000000    35     0.2090
  3. axis:    no     0.000000    0.000000   29.175054   135     0.2161

  Lengths:   8.445283   8.445283  29.175054
  Angles:   90.000000  90.000000  60.000000

Effective grid spacing dv^(1/3) = 0.2217

                     log10-error:    total        iterations:
           time      wfs    density  energy       fermi  poisson
iter:   1  22:40:49  -1.88   +inf  -270.214992    3             
iter:   2  22:41:40  -1.31  -1.81  -388.502247    37            
iter:   3  22:42:32  -1.82  -1.18  -268.927363    37            
iter:   4  22:43:23  -2.49  -1.88  -265.189103    4             
iter:   5  22:44:14  -3.59  -2.37  -264.975765    3             
iter:   6  22:45:05  -3.98  -2.64  -264.920044    3             
iter:   7  22:45:57  -4.11  -2.73  -264.875091    3             
iter:   8  22:46:49  -4.12  -2.91  -264.887047    3             
iter:   9  22:47:41  -4.27  -2.78  -264.843616    3             
iter:  10  22:48:33  -4.49  -3.17  -264.849395    3             
iter:  11  22:49:24  -4.98  -3.06  -264.838413    2             
iter:  12  22:50:17  -5.52  -3.21  -264.837336    2             
iter:  13  22:51:08  -5.39  -3.37  -264.835822    2             
iter:  14  22:51:59  -5.25  -3.36  -264.842143    2             
iter:  15  22:53:01  -5.38  -3.28  -264.836309    3             
iter:  16  22:54:08  -5.90  -3.46  -264.836548    2             
iter:  17  22:55:14  -6.28  -3.80  -264.835981    2             
iter:  18  22:56:21  -6.40  -3.67  -264.837092    2             
iter:  19  22:57:28  -6.56  -3.78  -264.836018    2             
iter:  20  22:58:35  -6.17  -3.99  -264.836494    2             
iter:  21  22:59:42  -6.72  -3.89  -264.835499    2             
iter:  22  23:00:49  -6.41  -3.89  -264.835786    2             
iter:  23  23:01:56  -6.93  -4.22  -264.835582    2             
iter:  24  23:03:03  -7.19  -4.30  -264.836010    2             
iter:  25  23:04:10  -7.38  -4.13  -264.835521    2             
iter:  26  23:05:17  -7.61  -4.42  -264.835745    2             

Converged after 26 iterations.

Dipole moment: (26.899160, 11.376717, -0.097241) |e|*Ang

Energy contributions relative to reference atoms: (reference = -16429278.754816)

Kinetic:       -146.381675
Potential:      +90.170220
External:        +0.000000
XC:            -201.204378
Entropy (-ST):   -2.119659
Local:           -6.360082
--------------------------
Free energy:   -265.895574
Extrapolated:  -264.835745

Fermi level: 1.31257

Showing only first 2 kpts
 Kpt  Band  Eigenvalues  Occupancy
  0   357      1.30214    0.13151
  0   358      1.34348    0.10583
  0   359      1.36553    0.09265
  0   360      1.38163    0.08347

  1   357      1.20250    0.18759
  1   358      1.24241    0.16714
  1   359      1.26573    0.15375
  1   360      1.31652    0.12253



Forces in eV/Ang:
  0 Ag   -0.41822    0.15946   -1.05441
  1 Ag    0.25077    0.22899   -0.86461
  2 Ir    0.49713   -0.17521    0.03095
  3 Ir   -0.10365    1.23462    1.38310
  4 Ir    0.38841    0.42025    0.92511
  5 Ir   -0.31272   -0.01904    1.23021
  6 Ir   -1.71949   -0.51068    0.72404
  7 Ag   -0.12377   -0.33860   -0.95653
  8 Pt    1.07117   -0.38924    0.48486
  9 Ag    0.15275    0.01720    0.21768
 10 Ir   -0.01611   -0.45126    1.05190
 11 Ir   -0.64774   -0.75149   -0.55109
 12 Ir    0.41683    0.11339    0.25123
 13 Ag   -0.03071   -0.05050    0.21093
 14 Ag    0.06968    0.06793    0.17229
 15 Pt   -0.10454   -0.04352   -0.54689
 16 Ru    0.67176    0.48852   -1.33454
 17 Ir    0.06235    0.28236   -1.22858
 18 Ir   -0.01162   -0.01635    0.00852
 19 Pt    0.01157    0.03441   -0.04078
 20 Pt    0.03363   -0.00529   -0.01907
 21 Ag    0.02929   -0.04817    0.02141
 22 Ag    0.00490    0.00441    0.00262
 23 Ag    0.00263   -0.02242    0.02226
 24 Pt    0.00868   -0.01625    0.00650
 25 Ag   -0.00738   -0.01636   -0.00526
 26 Ir    0.05745   -0.02942    0.05769
 27 Ru    0.04112    0.04245    0.12555
 28 Ir   -0.03749    0.02563    0.01567
 29 Ir    0.00827    0.09935   -0.04377
 30 Ir    0.01546    0.10286   -0.19702
 31 Ir   -0.07924    0.03459    0.01023
 32 Pt    0.06715   -0.05861   -0.00038
 33 Ag   -0.07737    0.02585   -0.25356
 34 Ir   -0.03149   -0.11437   -0.06558
 35 Ru    0.07961   -0.10461   -0.10174
 36 Ir    0.47962    0.13128    0.10772
 37 Ir   -0.46421    0.27635    0.28699
 38 Pt    0.05989    0.09700    0.10916
 39 Ag    0.01848   -0.41066    0.13638
 40 Ir   -0.09081   -0.06307   -0.00815
 41 Pt    0.08648    0.08897    0.02707
 42 Ir   -0.05434   -0.14714    0.03620
 43 Ir    0.03123    0.02139    0.02884
 44 Ag   -0.14048    0.14471    0.06758
 45 O    -0.03815   -0.31604   -0.55301

System changes: positions 

Initializing position-dependent things.

Density initialized from wave functions
                                             
                                             
                                             
                                             
                                             
                                             
                               Ag            
                  Ir    Ir                   
           O Ag   AIr     Pt    Ru           
                                             
       Ir    IIr    IPt     Pt               
         Ru                                  
               Ir    PIr    Ag     Ir        
                Ag     Ag     Ag             
                                             
           Ir    PPt    RPt    Ir            
                                             
            Ir    IAg    AAg    Pt           
       Ag    IIr    IIr    Ir                
                                             
        Ag     Ag     Ir                     
                                             
                                             
                                             
                                             
                                             

Positions:
   0 Ag     0.000000    1.621936   10.000000    ( 0.0000,  0.0000,  0.0000)
   1 Ag     2.809275    1.621936   10.000000    ( 0.0000,  0.0000,  0.0000)
   2 Ir     5.618550    1.621936   10.000000    ( 0.0000,  0.0000,  0.0000)
   3 Ir     1.404638    4.054840   10.000000    ( 0.0000,  0.0000,  0.0000)
   4 Ir     4.213913    4.054840   10.000000    ( 0.0000,  0.0000,  0.0000)
   5 Ir     7.023188    4.054840   10.000000    ( 0.0000,  0.0000,  0.0000)
   6 Ir     2.809275    6.487743   10.000000    ( 0.0000,  0.0000,  0.0000)
   7 Ag     5.618550    6.487743   10.000000    ( 0.0000,  0.0000,  0.0000)
   8 Pt     8.427826    6.487743   10.000000    ( 0.0000,  0.0000,  0.0000)
   9 Ag     0.000000    0.000000   12.293764    ( 0.0000,  0.0000,  0.0000)
  10 Ir     2.809275    0.000000   12.293764    ( 0.0000,  0.0000,  0.0000)
  11 Ir     5.618550    0.000000   12.293764    ( 0.0000,  0.0000,  0.0000)
  12 Ir     1.404638    2.432904   12.293764    ( 0.0000,  0.0000,  0.0000)
  13 Ag     4.213913    2.432904   12.293764    ( 0.0000,  0.0000,  0.0000)
  14 Ag     7.023188    2.432904   12.293764    ( 0.0000,  0.0000,  0.0000)
  15 Pt     2.809275    4.865807   12.293764    ( 0.0000,  0.0000,  0.0000)
  16 Ru     5.618550    4.865807   12.293764    ( 0.0000,  0.0000,  0.0000)
  17 Ir     8.427826    4.865807   12.293764    ( 0.0000,  0.0000,  0.0000)
  18 Ir     1.444084    0.798584   14.605663    ( 0.0000,  0.0000,  0.0000)
  19 Pt     4.203916    0.720238   14.620577    ( 0.0000,  0.0000,  0.0000)
  20 Pt     7.034000    0.792843   14.642645    ( 0.0000,  0.0000,  0.0000)
  21 Ag     2.792154    3.260398   14.629168    ( 0.0000,  0.0000,  0.0000)
  22 Ag     5.621993    3.229262   14.629314    ( 0.0000,  0.0000,  0.0000)
  23 Ag     8.471663    3.241811   14.620772    ( 0.0000,  0.0000,  0.0000)
  24 Pt     4.247019    5.676821   14.616111    ( 0.0000,  0.0000,  0.0000)
  25 Ag     7.033473    5.629133   14.604452    ( 0.0000,  0.0000,  0.0000)
  26 Ir     9.842428    5.735603   14.530878    ( 0.0000,  0.0000,  0.0000)
  27 Ru     0.083334    1.631330   16.917408    ( 0.0000,  0.0000,  0.0000)
  28 Ir     2.766334    1.568882   16.886543    ( 0.0000,  0.0000,  0.0000)
  29 Ir     5.562497    1.596602   16.881312    ( 0.0000,  0.0000,  0.0000)
  30 Ir     1.368783    4.031013   17.026639    ( 0.0000,  0.0000,  0.0000)
  31 Ir     4.180516    3.987953   16.953892    ( 0.0000,  0.0000,  0.0000)
  32 Pt     7.139531    4.065866   16.995824    ( 0.0000,  0.0000,  0.0000)
  33 Ag     2.794392    6.500011   16.825888    ( 0.0000,  0.0000,  0.0000)
  34 Ir     5.668933    6.532641   16.883752    ( 0.0000,  0.0000,  0.0000)
  35 Ru     8.386564    6.487614   16.922274    ( 0.0000,  0.0000,  0.0000)
  36 Ir    -0.021114   -0.062276   19.178985    ( 0.0000,  0.0000,  0.0000)
  37 Ir     2.730183    0.038022   19.048856    ( 0.0000,  0.0000,  0.0000)
  38 Pt     5.624951   -0.037414   19.131242    ( 0.0000,  0.0000,  0.0000)
  39 Ag     1.422150    2.609949   19.516638    ( 0.0000,  0.0000,  0.0000)
  40 Ir     4.249498    2.429617   19.009010    ( 0.0000,  0.0000,  0.0000)
  41 Pt     6.951892    2.349077   19.126271    ( 0.0000,  0.0000,  0.0000)
  42 Ir     2.923178    4.947665   19.046109    ( 0.0000,  0.0000,  0.0000)
  43 Ir     5.514288    4.834468   19.024694    ( 0.0000,  0.0000,  0.0000)
  44 Ag     8.357898    4.934130   19.545403    ( 0.0000,  0.0000,  0.0000)
  45 O      1.371075    0.397967   20.505118    ( 0.0000,  0.0000,  0.0000)

Unit cell:
           periodic     x           y           z      points  spacing
  1. axis:    yes    8.445283    0.000000    0.000000    35     0.2090
[...]
  20 Pt     7.038335    0.800633   14.634217    ( 0.0000,  0.0000,  0.0000)
  21 Ag     2.799696    3.244749   14.616852    ( 0.0000,  0.0000,  0.0000)
  22 Ag     5.628320    3.235666   14.629614    ( 0.0000,  0.0000,  0.0000)
  23 Ag     8.478258    3.226766   14.616513    ( 0.0000,  0.0000,  0.0000)
  24 Pt     4.242594    5.667481   14.605627    ( 0.0000,  0.0000,  0.0000)
  25 Ag     7.041216    5.621102   14.593518    ( 0.0000,  0.0000,  0.0000)
  26 Ir     9.840045    5.724342   14.546096    ( 0.0000,  0.0000,  0.0000)
  27 Ru     0.105919    1.636640   16.935921    ( 0.0000,  0.0000,  0.0000)
  28 Ir     2.772164    1.550884   16.863634    ( 0.0000,  0.0000,  0.0000)
  29 Ir     5.569375    1.612641   16.877545    ( 0.0000,  0.0000,  0.0000)
  30 Ir     1.368778    4.043786   17.008298    ( 0.0000,  0.0000,  0.0000)
  31 Ir     4.167250    3.987568   16.944851    ( 0.0000,  0.0000,  0.0000)
  32 Pt     7.148535    4.056000   16.998024    ( 0.0000,  0.0000,  0.0000)
  33 Ag     2.801163    6.517057   16.820731    ( 0.0000,  0.0000,  0.0000)
  34 Ir     5.678587    6.509497   16.871588    ( 0.0000,  0.0000,  0.0000)
  35 Ru     8.392531    6.474134   16.921859    ( 0.0000,  0.0000,  0.0000)
  36 Ir    -0.017050   -0.084814   19.154045    ( 0.0000,  0.0000,  0.0000)
  37 Ir     2.700177    0.091293   19.051947    ( 0.0000,  0.0000,  0.0000)
  38 Pt     5.645780   -0.016978   19.117396    ( 0.0000,  0.0000,  0.0000)
  39 Ag     1.367067    2.618005   19.536497    ( 0.0000,  0.0000,  0.0000)
  40 Ir     4.228670    2.401364   19.000034    ( 0.0000,  0.0000,  0.0000)
  41 Pt     6.946852    2.370901   19.140114    ( 0.0000,  0.0000,  0.0000)
  42 Ir     2.896372    4.938402   19.022622    ( 0.0000,  0.0000,  0.0000)
  43 Ir     5.492255    4.806635   19.016256    ( 0.0000,  0.0000,  0.0000)
  44 Ag     8.347815    4.985406   19.548639    ( 0.0000,  0.0000,  0.0000)
  45 O      1.358496    0.224064   20.535104    ( 0.0000,  0.0000,  0.0000)

Unit cell:
           periodic     x           y           z      points  spacing
  1. axis:    yes    8.445283    0.000000    0.000000    35     0.2090
  2. axis:    yes    4.222641    7.313829    0.000000    35     0.2090
  3. axis:    no     0.000000    0.000000   29.175054   135     0.2161

  Lengths:   8.445283   8.445283  29.175054
  Angles:   90.000000  90.000000  60.000000

Effective grid spacing dv^(1/3) = 0.2217

                     log10-error:    total        iterations:
           time      wfs    density  energy       fermi  poisson
iter:   1  00:20:09  -2.98   +inf  -265.053616    3             
iter:   2  00:21:00  -3.18  -2.65  -267.640253    3             
iter:   3  00:21:53  -3.40  -1.90  -265.000314    3             
iter:   4  00:22:45  -4.51  -2.81  -264.951134    3             
iter:   5  00:23:37  -5.23  -3.17  -264.948253    3             
iter:   6  00:24:29  -5.09  -3.32  -264.944991    2             
iter:   7  00:25:21  -4.95  -3.45  -264.942299    2             
iter:   8  00:26:12  -5.63  -3.66  -264.941819    2             
iter:   9  00:27:04  -5.79  -3.61  -264.949094    2             
iter:  10  00:27:56  -5.82  -3.28  -264.941438    2             
iter:  11  00:28:48  -6.22  -3.78  -264.941515    2             
iter:  12  00:29:40  -6.17  -3.93  -264.941832    2             
iter:  13  00:30:32  -6.86  -4.09  -264.941465    2             
iter:  14  00:31:24  -6.89  -4.06  -264.941821    2             
iter:  15  00:32:16  -7.02  -4.22  -264.942265    2             
iter:  16  00:33:09  -7.37  -4.04  -264.941533    2             
iter:  17  00:34:15  -7.17  -4.25  -264.941810    2             
iter:  18  00:35:22  -7.29  -4.44  -264.941753    2             
iter:  19  00:36:28  -7.43  -4.58  -264.941530    2             

Converged after 19 iterations.

Dipole moment: (24.374077, 3.145183, -0.072440) |e|*Ang

Energy contributions relative to reference atoms: (reference = -16429278.754816)

Kinetic:       -144.462030
Potential:      +88.479532
External:        +0.000000
XC:            -201.536886
Entropy (-ST):   -2.096625
Local:           -6.373833
--------------------------
Free energy:   -265.989842
Extrapolated:  -264.941530

Fermi level: 1.32409

Showing only first 2 kpts
 Kpt  Band  Eigenvalues  Occupancy
  0   357      1.31810    0.12874
  0   358      1.35138    0.10805
  0   359      1.37704    0.09266
  0   360      1.39538    0.08224

  1   357      1.20782    0.19046
  1   358      1.24475    0.17214
  1   359      1.28291    0.15038
  1   360      1.31481    0.13080



Forces in eV/Ang:
  0 Ag   -0.41756    0.15848   -1.05635
  1 Ag    0.24839    0.22893   -0.86512
  2 Ir    0.49629   -0.16507    0.02960
  3 Ir   -0.09429    1.23140    1.38142
  4 Ir    0.40175    0.40735    0.89913
  5 Ir   -0.31546   -0.02366    1.23254
  6 Ir   -1.71395   -0.50957    0.71615
  7 Ag   -0.12401   -0.33810   -0.95738
  8 Pt    1.07728   -0.38377    0.49951
  9 Ag    0.15537    0.00597    0.18874
 10 Ir   -0.01695   -0.45133    1.05425
 11 Ir   -0.63228   -0.82058   -0.52308
 12 Ir    0.40726    0.10411    0.20244
 13 Ag   -0.00719   -0.05085    0.17339
 14 Ag    0.07211    0.08025    0.14200
 15 Pt   -0.14146   -0.02812   -0.52421
 16 Ru    0.66496    0.49393   -1.36707
 17 Ir    0.10687    0.25872   -1.25195
 18 Ir    0.00186    0.00706   -0.01303
 19 Pt    0.00074   -0.00726   -0.00391
 20 Pt   -0.00475   -0.02323   -0.00431
 21 Ag    0.00016    0.01219   -0.00592
 22 Ag   -0.01499   -0.01827   -0.01151
 23 Ag   -0.01672    0.02097    0.00376
 24 Pt    0.02325    0.01362   -0.00537
 25 Ag   -0.00412    0.00758    0.02419
 26 Ir   -0.00232    0.01675   -0.00341
 27 Ru   -0.02255   -0.00763   -0.00916
 28 Ir   -0.02305    0.03103    0.03713
 29 Ir   -0.02368   -0.00626   -0.00289
 30 Ir   -0.02178   -0.02989   -0.00343
 31 Ir    0.03867   -0.03647   -0.01840
 32 Pt    0.00349   -0.01542   -0.00386
 33 Ag   -0.03985   -0.01497   -0.05747
 34 Ir   -0.01606    0.03625   -0.01098
 35 Ru    0.00154    0.02438   -0.02463
 36 Ir    0.02323    0.02467    0.05121
 37 Ir   -0.06022   -0.00405    0.08592
 38 Pt   -0.00971   -0.01485    0.01155
 39 Ag    0.01989   -0.04754   -0.00590
 40 Ir   -0.04850   -0.00199   -0.02166
 41 Pt   -0.03571   -0.00861   -0.03559
 42 Ir   -0.01549   -0.08239    0.06131
 43 Ir    0.01313    0.01746    0.00290
 44 Ag   -0.01329   -0.06384   -0.01086
 45 O    -0.01915   -0.02675   -0.10589

System changes: positions 

Initializing position-dependent things.

Density initialized from wave functions
                                             
                                             
                                             
                                             
                                             
                                             
                               Ag            
                  Ir    Ir                   
           OAg    AIr     Pt    Ru           
                                             
       Ir    IIr    IPt     Pt               
         Ru                                  
               Ir    PIr    Ag     Ir        
                Ag     Ag     Ag             
                                             
           Ir    PPt    RPt    Ir            
                                             
            Ir     Ag    AAg    Pt           
       Ag    IIr    IIr    Ir                
                                             
        Ag     Ag     Ir                     
                                             
                                             
                                             
                                             
                                             

Positions:
   0 Ag     0.000000    1.621936   10.000000    ( 0.0000,  0.0000,  0.0000)
   1 Ag     2.809275    1.621936   10.000000    ( 0.0000,  0.0000,  0.0000)
   2 Ir     5.618550    1.621936   10.000000    ( 0.0000,  0.0000,  0.0000)
   3 Ir     1.404638    4.054840   10.000000    ( 0.0000,  0.0000,  0.0000)
   4 Ir     4.213913    4.054840   10.000000    ( 0.0000,  0.0000,  0.0000)
   5 Ir     7.023188    4.054840   10.000000    ( 0.0000,  0.0000,  0.0000)
   6 Ir     2.809275    6.487743   10.000000    ( 0.0000,  0.0000,  0.0000)
   7 Ag     5.618550    6.487743   10.000000    ( 0.0000,  0.0000,  0.0000)
   8 Pt     8.427826    6.487743   10.000000    ( 0.0000,  0.0000,  0.0000)
   9 Ag     0.000000    0.000000   12.293764    ( 0.0000,  0.0000,  0.0000)
  10 Ir     2.809275    0.000000   12.293764    ( 0.0000,  0.0000,  0.0000)
  11 Ir     5.618550    0.000000   12.293764    ( 0.0000,  0.0000,  0.0000)
  12 Ir     1.404638    2.432904   12.293764    ( 0.0000,  0.0000,  0.0000)
  13 Ag     4.213913    2.432904   12.293764    ( 0.0000,  0.0000,  0.0000)
  14 Ag     7.023188    2.432904   12.293764    ( 0.0000,  0.0000,  0.0000)
  15 Pt     2.809275    4.865807   12.293764    ( 0.0000,  0.0000,  0.0000)
  16 Ru     5.618550    4.865807   12.293764    ( 0.0000,  0.0000,  0.0000)
  17 Ir     8.427826    4.865807   12.293764    ( 0.0000,  0.0000,  0.0000)
  18 Ir     1.446256    0.784587   14.602377    ( 0.0000,  0.0000,  0.0000)
  19 Pt     4.213320    0.719750   14.614381    ( 0.0000,  0.0000,  0.0000)
  20 Pt     7.037817    0.799823   14.632936    ( 0.0000,  0.0000,  0.0000)
  21 Ag     2.799314    3.246439   14.615888    ( 0.0000,  0.0000,  0.0000)
  22 Ag     5.627130    3.234140   14.628140    ( 0.0000,  0.0000,  0.0000)
  23 Ag     8.476698    3.228631   14.616882    ( 0.0000,  0.0000,  0.0000)
  24 Pt     4.244915    5.668165   14.604797    ( 0.0000,  0.0000,  0.0000)
  25 Ag     7.040739    5.621580   14.595500    ( 0.0000,  0.0000,  0.0000)
  26 Ir     9.839250    5.725241   14.545522    ( 0.0000,  0.0000,  0.0000)
  27 Ru     0.104067    1.636012   16.934111    ( 0.0000,  0.0000,  0.0000)
  28 Ir     2.770129    1.553676   16.866167    ( 0.0000,  0.0000,  0.0000)
  29 Ir     5.567581    1.611422   16.877268    ( 0.0000,  0.0000,  0.0000)
  30 Ir     1.366959    4.040535   17.008959    ( 0.0000,  0.0000,  0.0000)
  31 Ir     4.170511    3.984612   16.942516    ( 0.0000,  0.0000,  0.0000)
  32 Pt     7.148391    4.055095   16.997496    ( 0.0000,  0.0000,  0.0000)
  33 Ag     2.798436    6.513934   16.818183    ( 0.0000,  0.0000,  0.0000)
  34 Ir     5.677450    6.513999   16.871927    ( 0.0000,  0.0000,  0.0000)
  35 Ru     8.392275    6.476659   16.920287    ( 0.0000,  0.0000,  0.0000)
  36 Ir    -0.019318   -0.083715   19.156178    ( 0.0000,  0.0000,  0.0000)
  37 Ir     2.698803    0.088394   19.056322    ( 0.0000,  0.0000,  0.0000)
  38 Pt     5.644225   -0.019290   19.117600    ( 0.0000,  0.0000,  0.0000)
  39 Ag     1.367522    2.615574   19.535555    ( 0.0000,  0.0000,  0.0000)
  40 Ir     4.223967    2.401344   18.999212    ( 0.0000,  0.0000,  0.0000)
  41 Pt     6.942901    2.369059   19.136979    ( 0.0000,  0.0000,  0.0000)
  42 Ir     2.895738    4.931707   19.026307    ( 0.0000,  0.0000,  0.0000)
  43 Ir     5.493225    4.808306   19.016312    ( 0.0000,  0.0000,  0.0000)
  44 Ag     8.347648    4.979480   19.546737    ( 0.0000,  0.0000,  0.0000)
  45 O      1.355943    0.223444   20.532842    ( 0.0000,  0.0000,  0.0000)

Unit cell:
           periodic     x           y           z      points  spacing
  1. axis:    yes    8.445283    0.000000    0.000000    35     0.2090
  2. axis:    yes    4.222641    7.313829    0.000000    35     0.2090
  3. axis:    no     0.000000    0.000000   29.175054   135     0.2161

  Lengths:   8.445283   8.445283  29.175054
  Angles:   90.000000  90.000000  60.000000

Effective grid spacing dv^(1/3) = 0.2217

                     log10-error:    total        iterations:
           time      wfs    density  energy       fermi  poisson
iter:   1  00:38:04  -3.78   +inf  -265.115046    3             
iter:   2  00:39:12  -2.84  -2.54  -271.948707    3             
iter:   3  00:40:19  -3.09  -1.70  -264.960406    3             
iter:   4  00:41:26  -4.39  -3.09  -264.953197    3             
iter:   5  00:42:29  -5.63  -3.30  -264.948540    3             
iter:   6  00:43:21  -5.76  -3.48  -264.945031    2             
iter:   7  00:44:13  -6.17  -3.87  -264.944626    2             
iter:   8  00:45:05  -6.31  -3.92  -264.945185    2             
iter:   9  00:45:56  -6.29  -4.02  -264.944265    2             
iter:  10  00:46:49  -6.74  -3.89  -264.944724    2             
iter:  11  00:47:41  -7.36  -4.35  -264.944733    2             
iter:  12  00:48:32  -7.55  -4.35  -264.944544    2             

Converged after 12 iterations.

Dipole moment: (24.398339, 3.383390, -0.070337) |e|*Ang

Energy contributions relative to reference atoms: (reference = -16429278.754816)

Kinetic:       -144.558956
Potential:      +88.563443
External:        +0.000000
XC:            -201.529722
Entropy (-ST):   -2.096819
Local:           -6.370900
--------------------------
Free energy:   -265.992954
Extrapolated:  -264.944544

Fermi level: 1.32473

Showing only first 2 kpts
 Kpt  Band  Eigenvalues  Occupancy
  0   357      1.31807    0.12917
  0   358      1.35230    0.10788
  0   359      1.37798    0.09248
  0   360      1.39596    0.08227

  1   357      1.20812    0.19061
  1   358      1.24544    0.17212
  1   359      1.28341    0.15046
  1   360      1.31619    0.13033



Forces in eV/Ang:
  0 Ag   -0.41901    0.15910   -1.05742
  1 Ag    0.24922    0.22871   -0.86526
  2 Ir    0.49651   -0.16552    0.02653
  3 Ir   -0.09524    1.23083    1.37730
  4 Ir    0.40237    0.40786    0.89687
  5 Ir   -0.31623   -0.02368    1.22973
  6 Ir   -1.71248   -0.50765    0.71384
  7 Ag   -0.12392   -0.33918   -0.95885
  8 Pt    1.07609   -0.38357    0.49422
  9 Ag    0.15294    0.00666    0.17947
 10 Ir   -0.01327   -0.45459    1.04679
 11 Ir   -0.63292   -0.81652   -0.53264
 12 Ir    0.40224    0.11147    0.20418
 13 Ag   -0.00888   -0.05018    0.16594
 14 Ag    0.07364    0.08242    0.13723
 15 Pt   -0.13993   -0.02901   -0.52783
 16 Ru    0.66910    0.49038   -1.36854
 17 Ir    0.10008    0.25605   -1.25592
 18 Ir    0.00247    0.01759    0.00486
 19 Pt   -0.01469    0.01459    0.00545
 20 Pt    0.00664   -0.01039    0.01126
 21 Ag   -0.00556    0.00437    0.00992
 22 Ag   -0.00273   -0.01033   -0.00648
 23 Ag   -0.00392    0.00367   -0.00616
 24 Pt   -0.00136    0.00531    0.01415
 25 Ag   -0.00794   -0.00309    0.01015
 26 Ir    0.00304   -0.00375    0.00087
 27 Ru   -0.02801   -0.01992   -0.00049
 28 Ir   -0.02037   -0.00408    0.02197
 29 Ir   -0.00573   -0.01943   -0.00116
 30 Ir    0.00750    0.00982   -0.00981
 31 Ir    0.01055    0.03151    0.03293
 32 Pt   -0.02021    0.01851   -0.00134
 33 Ag   -0.00682   -0.03494    0.01495
 34 Ir   -0.02342   -0.00589    0.00383
 35 Ru   -0.01037    0.00311   -0.00351
 36 Ir   -0.03132   -0.02952   -0.00026
 37 Ir   -0.01378   -0.00641    0.01691
 38 Pt   -0.00154   -0.01970    0.01203
 39 Ag   -0.00126   -0.04479   -0.00719
 40 Ir   -0.00272   -0.00754    0.00614
 41 Pt   -0.02020   -0.00688   -0.00336
 42 Ir    0.02022    0.00049   -0.02270
 43 Ir   -0.01993   -0.00031   -0.02682
 44 Ag   -0.01354   -0.03555   -0.00703
 45 O    -0.01797   -0.08015   -0.04157

Timing:                                      incl.     excl.
-------------------------------------------------------------------
Density initialized from wave functions:    33.560    33.559   0.2% |
 Symmetrize density:                         0.001     0.001   0.0% |
Forces:                                    189.182   189.182   1.1% |
Hamiltonian:                                27.743     0.109   0.0% |
 Atomic:                                     6.918     3.458   0.0% |
  XC Correction:                             3.460     3.460   0.0% |
 Calculate atomic Hamiltonians:             10.062    10.062   0.1% |
 Communicate:                                0.198     0.198   0.0% |
 Initialize Hamiltonian:                     0.000     0.000   0.0% |
 Poisson:                                    0.071     0.071   0.0% |
 XC 3D grid:                                10.385    10.385   0.1% |
LCAO initialization:                        46.831     2.473   0.0% |
 LCAO eigensolver:                           5.018     0.002   0.0% |
  Calculate projections:                     0.048     0.048   0.0% |
  DenseAtomicCorrection:                     0.071     0.071   0.0% |
  Distribute overlap matrix:                 0.181     0.181   0.0% |
  Orbital Layouts:                           0.333     0.333   0.0% |
  Potential matrix:                          4.334     4.334   0.0% |
  Sum over cells:                            0.048     0.048   0.0% |
 LCAO to grid:                              37.683    37.683   0.2% |
 Set positions (LCAO WFS):                   1.657     0.644   0.0% |
  Basic WFS set positions:                   0.002     0.002   0.0% |
  Basis functions set positions:             0.000     0.000   0.0% |
  P tci:                                     0.428     0.428   0.0% |
  ST tci:                                    0.436     0.436   0.0% |
  mktci:                                     0.147     0.147   0.0% |
PWDescriptor:                                0.033     0.033   0.0% |
Redistribute:                                0.076     0.076   0.0% |
SCF-cycle:                               17403.875   691.088   3.9% |-|
 Davidson:                               15324.034  3739.280  21.0% |-------|
  Apply H:                                2369.201  2270.725  12.8% |----|
   HMM T:                                   98.476    98.476   0.6% |
  Subspace diag:                          2229.011     0.085   0.0% |
   calc_h_matrix:                         1206.781   417.676   2.3% ||
    Apply H:                               789.105   756.195   4.3% |-|
     HMM T:                                 32.910    32.910   0.2% |
   diagonalize:                             36.484    36.484   0.2% |
   rotate_psi:                             985.661   985.661   5.5% |-|
  calc. matrices:                         4411.117  2826.513  15.9% |-----|
   Apply H:                               1584.604  1518.651   8.5% |--|
    HMM T:                                  65.953    65.953   0.4% |
  diagonalize:                             596.124   596.124   3.4% ||
  rotate_psi:                             1979.301  1979.301  11.1% |---|
 Density:                                  711.869     0.016   0.0% |
  Atomic density matrices:                   4.739     4.739   0.0% |
  Mix:                                     275.289   275.289   1.5% ||
  Multipole moments:                         0.302     0.302   0.0% |
  Pseudo density:                          431.523   431.508   2.4% ||
   Symmetrize density:                       0.015     0.015   0.0% |
 Hamiltonian:                              610.219     2.483   0.0% |
  Atomic:                                  145.589    68.310   0.4% |
   XC Correction:                           77.279    77.279   0.4% |
  Calculate atomic Hamiltonians:           222.276   222.276   1.3% ||
  Communicate:                               2.834     2.834   0.0% |
  Poisson:                                   1.642     1.642   0.0% |
  XC 3D grid:                              235.394   235.394   1.3% ||
 Orthonormalize:                            66.666     0.006   0.0% |
  calc_s_matrix:                             9.234     9.234   0.1% |
  inverse-cholesky:                          0.890     0.890   0.0% |
  projections:                              35.105    35.105   0.2% |
  rotate_psi_s:                             21.431    21.431   0.1% |
Set symmetry:                                0.001     0.001   0.0% |
Other:                                      80.678    80.678   0.5% |
-------------------------------------------------------------------
Total:                                             17781.980 100.0%

Date: Fri Mar  4 00:48:44 2022
