
  ___ ___ ___ _ _ _  
 |   |   |_  | | | | 
 | | | | | . | | | | 
 |__ |  _|___|_____|  1.5.1
 |___|_|             

User:   clausen@node437.cluster
Date:   Thu Mar  3 14:34:44 2022
Arch:   x86_64
Pid:    37634
Python: 3.6.12
gpaw:   /software/kemi/gpaw/1.5.1/gpaw
_gpaw:  /software/kemi/gpaw/1.5.1/bin/gpaw-python
ase:    /software/kemi/ase/3.17.0/ase (version 3.17.0)
numpy:  /opt/rh/rh-python36/root/usr/lib64/python3.6/site-packages/numpy (version 1.13.1)
scipy:  /opt/rh/rh-python36/root/usr/lib64/python3.6/site-packages/scipy (version 0.19.1)
units:  Angstrom and eV
cores:  16

Input parameters:
  kpts: [4 4 1]
  mode: {ecut: 400.0,
         gammacentered: False,
         name: pw}
  xc: RPBE

System changes: positions, numbers, cell, pbc, initial_charges, initial_magmoms 

Initialize ...

Pd-setup:
  name: Palladium
  id: 6da19bfba079f22767af9506641940b9
  Z: 46
  valence: 16
  core: 30
  charge: 0.0
  file: /software/kemi/gpaw-setups/0.9.20000/Pd.RPBE.gz
  cutoffs: 1.19(comp), 2.38(filt), 2.28(core), lmax=2
  valence states:
                energy  radius
    5s(0.00)    -3.225   1.228
    4p(6.00)   -51.131   1.360
    5p(0.00)    -0.373   1.360
    4d(10.00)    -3.964   1.228
    *s          23.987   1.228
    *d          23.247   1.228

  Using partial waves for Pd as LCAO basis

Ir-setup:
  name: Iridium
  id: 73b603359d1d5397a85ae3c2440f9033
  Z: 77
  valence: 15
  core: 62
  charge: 0.0
  file: /software/kemi/gpaw-setups/0.9.20000/Ir.RPBE.gz
  cutoffs: 1.26(comp), 2.40(filt), 2.36(core), lmax=2
  valence states:
                energy  radius
    6s(2.00)    -6.219   1.296
    5p(6.00)   -54.684   1.328
    6p(0.00)    -1.215   1.328
    5d(7.00)    -7.118   1.286
    *s          20.992   1.296
    *d          20.093   1.286

  Using partial waves for Ir as LCAO basis

Ru-setup:
  name: Ruthenium
  id: 76477906e28f51dc1b29884d53556fe9
  Z: 44
  valence: 16
  core: 28
  charge: 0.0
  file: /software/kemi/gpaw-setups/0.9.20000/Ru.RPBE.gz
  cutoffs: 1.23(comp), 2.16(filt), 1.30(core), lmax=2
  valence states:
                energy  radius
    4s(2.00)   -76.255   1.281
    5s(1.00)    -4.126   1.281
    4p(6.00)   -46.371   1.286
    5p(0.00)    -0.913   1.286
    4d(7.00)    -5.146   1.254
    *d          22.066   1.254

  Using partial waves for Ru as LCAO basis

Pt-setup:
  name: Platinum
  id: f04f522592575c47ad794f6b4a415b4b
  Z: 78
  valence: 16
  core: 62
  charge: 0.0
  file: /software/kemi/gpaw-setups/0.9.20000/Pt.RPBE.gz
  cutoffs: 1.29(comp), 2.26(filt), 2.26(core), lmax=2
  valence states:
                energy  radius
    6s(1.00)    -5.516   1.307
    5p(6.00)   -55.971   1.371
    6p(0.00)    -0.856   1.371
    5d(9.00)    -6.087   1.307
    *s          21.695   1.307
    *d          21.125   1.307

  Using partial waves for Pt as LCAO basis

Ag-setup:
  name: Silver
  id: c05e55bab2c3858b3f9398f6d75cb77c
  Z: 47
  valence: 17
  core: 30
  charge: 0.0
  file: /software/kemi/gpaw-setups/0.9.20000/Ag.RPBE.gz
  cutoffs: 1.25(comp), 2.35(filt), 2.19(core), lmax=2
  valence states:
                energy  radius
    5s(1.00)    -4.277   1.286
    4p(6.00)   -58.523   1.328
    5p(0.00)    -0.755   1.328
    4d(10.00)    -7.386   1.180
    *s          22.934   1.286
    *d          19.826   1.180

  Using partial waves for Ag as LCAO basis

O-setup:
  name: Oxygen
  id: 08071ca1eed670e7821b24b7eb4d558c
  Z: 8
  valence: 6
  core: 2
  charge: 0.0
  file: /software/kemi/gpaw-setups/0.9.20000/O.RPBE.gz
  cutoffs: 0.67(comp), 1.17(filt), 0.83(core), lmax=2
  valence states:
                energy  radius
    2s(2.00)   -24.041   0.688
    2p(4.00)    -8.984   0.598
    *s           3.170   0.688
    *p          18.228   0.598
    *d           0.000   0.619

  Using partial waves for O as LCAO basis

Reference energy: -12877847.605335

Spin-paired calculation

Occupation numbers:
  Fermi-Dirac: width=0.1000 eV

Convergence criteria:
  Maximum total energy change: 0.0005 eV / electron
  Maximum integral of absolute density change: 0.0001 electrons
  Maximum integral of absolute eigenstate change: 4e-08 eV^2
  Maximum number of iterations: 333

Symmetries present (total): 1

  ( 1  0  0)
  ( 0  1  0)
  ( 0  0  1)

16 k-points: 4 x 4 x 1 Monkhorst-Pack grid
8 k-points in the irreducible part of the Brillouin zone
       k-points in crystal coordinates                weights
   0:     0.12500000   -0.37500000    0.00000000          2/16
   1:     0.12500000   -0.12500000    0.00000000          2/16
   2:     0.12500000    0.12500000    0.00000000          2/16
   3:     0.12500000    0.37500000    0.00000000          2/16
   4:     0.37500000   -0.37500000    0.00000000          2/16
   5:     0.37500000   -0.12500000    0.00000000          2/16
   6:     0.37500000    0.12500000    0.00000000          2/16
   7:     0.37500000    0.37500000    0.00000000          2/16

Wave functions: Plane wave expansion
  Cutoff energy: 400.000 eV
  Number of coefficients (min, max): 32894, 32940
  Pulay-stress correction: 0.000000 eV/Ang^3 (de/decut=0.000000)
  Using FFTW library
  ScaLapack parameters: grid=1x1, blocksize=None
  Wavefunction extrapolation:
    Improved wavefunction reuse through dual PAW basis 

Eigensolver
   Davidson(niter=2, smin=None, normalize=True) 

Densities:
  Coarse grid: 35*35*135 grid
  Fine grid: 70*70*270 grid
  Total Charge: 0.000000 

Density mixing:
  Method: separate
  Backend: pulay
  Linear mixing parameter: 0.05
  Mixing with 5 old densities
  Damping of long wave oscillations: 50 

Hamiltonian:
  XC and Coulomb potentials evaluated on a 70*70*270 grid
  Using the RPBE Exchange-Correlation functional
 

XC parameters: RPBE with 2 nearest neighbor stencil

Memory estimate:
  Process memory now: 148.41 MiB
  Calculator: 549.89 MiB
    Density: 51.27 MiB
      Arrays: 16.41 MiB
      Localized functions: 28.50 MiB
      Mixer: 6.36 MiB
    Hamiltonian: 11.63 MiB
      Arrays: 10.73 MiB
      XC: 0.00 MiB
      Poisson: 0.00 MiB
      vbar: 0.90 MiB
    Wavefunctions: 487.00 MiB
      Arrays psit_nG: 220.15 MiB
      Eigensolver: 251.95 MiB
      Projections: 2.75 MiB
      Projectors: 5.53 MiB
      PW-descriptor: 6.62 MiB

Total number of cores used: 16
Parallelization over k-points: 8
Domain decomposition: 1 x 1 x 2

Number of atoms: 46
Number of atomic orbitals: 550
Number of bands in calculation: 438
Bands to converge: occupied states only
Number of valence electrons: 723

... initialized

Initializing position-dependent things.

Density initialized from atomic densities
Creating initial wave functions:
  438 bands from LCAO basis set

                                             
                                             
                                             
                                             
                                             
                                             
                  Ag          O              
                         Ir    Ir            
            Pd      Pd     Ir                
                   Ru     Pd     Ir          
        Ir    Pt    PAg    Pd                
                                             
        Ir     Pd    IAg    Ir     Pt        
                Ag     Ru     Pd             
                                             
           Pt     Ag    PPd    Ir            
                                             
            Pt     Pt    PPt    Ru           
       Ag     Ag     Ag                      
              Ru    Ir     Pt                
         Pd    Ir     Ru                     
                                             
                                             
                                             
                                             
                                             

Positions:
   0 Pd     0.000000    1.624086   10.000000    ( 0.0000,  0.0000,  0.0000)
   1 Ir     2.812999    1.624086   10.000000    ( 0.0000,  0.0000,  0.0000)
   2 Ru     5.625998    1.624086   10.000000    ( 0.0000,  0.0000,  0.0000)
   3 Ru     1.406500    4.060215   10.000000    ( 0.0000,  0.0000,  0.0000)
   4 Ir     4.219499    4.060215   10.000000    ( 0.0000,  0.0000,  0.0000)
   5 Pt     7.032498    4.060215   10.000000    ( 0.0000,  0.0000,  0.0000)
   6 Pd     2.812999    6.496343   10.000000    ( 0.0000,  0.0000,  0.0000)
   7 Pd     5.625998    6.496343   10.000000    ( 0.0000,  0.0000,  0.0000)
   8 Ru     8.438997    6.496343   10.000000    ( 0.0000,  0.0000,  0.0000)
   9 Ag     0.000000    0.000000   12.296804    ( 0.0000,  0.0000,  0.0000)
  10 Ag     2.812999    0.000000   12.296804    ( 0.0000,  0.0000,  0.0000)
  11 Ag     5.625998    0.000000   12.296804    ( 0.0000,  0.0000,  0.0000)
  12 Pt     1.406500    2.436129   12.296804    ( 0.0000,  0.0000,  0.0000)
  13 Pt     4.219499    2.436129   12.296804    ( 0.0000,  0.0000,  0.0000)
  14 Pt     7.032498    2.436129   12.296804    ( 0.0000,  0.0000,  0.0000)
  15 Ru     2.812999    4.872257   12.296804    ( 0.0000,  0.0000,  0.0000)
  16 Pt     5.625998    4.872257   12.296804    ( 0.0000,  0.0000,  0.0000)
  17 Ir     8.438997    4.872257   12.296804    ( 0.0000,  0.0000,  0.0000)
  18 Pt     1.331112    0.739375   14.657283    ( 0.0000,  0.0000,  0.0000)
  19 Ag     4.181622    0.793852   14.645499    ( 0.0000,  0.0000,  0.0000)
  20 Pd     7.001587    0.862206   14.620346    ( 0.0000,  0.0000,  0.0000)
  21 Ag     2.800841    3.198617   14.645984    ( 0.0000,  0.0000,  0.0000)
  22 Ru     5.661352    3.374873   14.464570    ( 0.0000,  0.0000,  0.0000)
  23 Pd     8.454364    3.209063   14.568969    ( 0.0000,  0.0000,  0.0000)
  24 Ir     4.203312    5.613553   14.568997    ( 0.0000,  0.0000,  0.0000)
  25 Ir     7.031881    5.578044   14.561300    ( 0.0000,  0.0000,  0.0000)
  26 Pt     9.857688    5.665883   14.596939    ( 0.0000,  0.0000,  0.0000)
  27 Ir    -0.077764    1.506761   16.938800    ( 0.0000,  0.0000,  0.0000)
  28 Pd     2.746751    1.593087   16.991368    ( 0.0000,  0.0000,  0.0000)
  29 Ag     5.532334    1.594992   16.918159    ( 0.0000,  0.0000,  0.0000)
  30 Pd     1.401555    4.031321   16.973309    ( 0.0000,  0.0000,  0.0000)
  31 Pd     4.186062    4.107308   16.892321    ( 0.0000,  0.0000,  0.0000)
  32 Pd     7.007491    3.969527   16.736476    ( 0.0000,  0.0000,  0.0000)
  33 Ru     2.845276    6.541012   16.753610    ( 0.0000,  0.0000,  0.0000)
  34 Pd     5.662228    6.450069   16.794393    ( 0.0000,  0.0000,  0.0000)
  35 Ir     8.552515    6.378355   16.920371    ( 0.0000,  0.0000,  0.0000)
  36 Ir     0.061963   -0.029589   18.981657    ( 0.0000,  0.0000,  0.0000)
  37 Pt     2.802470   -0.097062   19.141410    ( 0.0000,  0.0000,  0.0000)
  38 Ag     5.661265    0.013033   19.406409    ( 0.0000,  0.0000,  0.0000)
  39 Pd     1.350042    2.376862   19.278970    ( 0.0000,  0.0000,  0.0000)
  40 Pd     4.315258    2.518491   19.256067    ( 0.0000,  0.0000,  0.0000)
  41 Ir     7.173708    2.513849   19.018418    ( 0.0000,  0.0000,  0.0000)
  42 Ag     2.809713    4.893314   19.379442    ( 0.0000,  0.0000,  0.0000)
  43 Ir     5.700233    4.913916   19.039342    ( 0.0000,  0.0000,  0.0000)
  44 Ir     8.278779    4.849064   19.000358    ( 0.0000,  0.0000,  0.0000)
  45 O      8.422624    3.246592   20.706409    ( 0.0000,  0.0000,  0.0000)

Unit cell:
           periodic     x           y           z      points  spacing
  1. axis:    yes    8.465341    0.000000    0.000000    35     0.2095
  2. axis:    yes    4.232670    7.331200    0.000000    35     0.2095
  3. axis:    no     0.000000    0.000000   29.187217   135     0.2162

  Lengths:   8.465341   8.465341  29.187217
  Angles:   90.000000  90.000000  60.000000

Effective grid spacing dv^(1/3) = 0.2221

                     log10-error:    total        iterations:
           time      wfs    density  energy       fermi  poisson
iter:   1  14:37:09  +0.32   +inf  -320.963434    2             
iter:   2  14:38:24  -0.55  -1.17  -407.240736    36            
iter:   3  14:39:39  -0.66  -1.07  -338.319368    36            
iter:   4  14:40:54  -1.31  -1.16  -266.232518    34            
iter:   5  14:42:09  -1.77  -1.36  -245.685727    34            
iter:   6  14:43:25  -2.06  -1.46  -241.961746    4             
iter:   7  14:44:40  -2.18  -1.51  -239.413150    3             
iter:   8  14:45:55  -2.20  -1.58  -236.822901    4             
iter:   9  14:47:10  -1.76  -1.72  -241.124968    3             
iter:  10  14:48:26  -2.28  -1.70  -237.910238    3             
iter:  11  14:49:41  -2.97  -1.86  -235.291806    3             
iter:  12  14:50:57  -3.44  -2.11  -235.211359    3             
iter:  13  14:52:12  -3.61  -2.16  -235.198591    3             
iter:  14  14:53:27  -3.39  -2.21  -235.169148    2             
iter:  15  14:54:42  -3.69  -2.31  -235.107277    3             
iter:  16  14:55:57  -3.66  -2.36  -235.132559    3             
iter:  17  14:57:12  -3.52  -2.38  -235.386778    3             
iter:  18  14:58:27  -3.76  -2.25  -234.965853    2             
iter:  19  14:59:42  -3.91  -2.58  -234.919827    3             
iter:  20  15:00:58  -4.12  -2.70  -234.920302    2             
iter:  21  15:02:13  -4.43  -2.68  -234.896148    3             
iter:  22  15:03:28  -4.25  -2.79  -234.884379    2             
iter:  23  15:04:43  -4.80  -2.84  -234.904815    3             
iter:  24  15:05:59  -4.53  -2.76  -234.876239    2             
iter:  25  15:07:14  -4.73  -2.96  -234.879139    2             
iter:  26  15:08:30  -4.97  -2.97  -234.875504    2             
iter:  27  15:09:45  -5.16  -3.06  -234.877067    3             
iter:  28  15:11:00  -5.48  -3.10  -234.875943    3             
iter:  29  15:12:15  -5.07  -3.10  -234.889171    3             
iter:  30  15:13:29  -5.36  -3.01  -234.872372    3             
iter:  31  15:14:44  -5.72  -3.32  -234.872784    2             
iter:  32  15:15:59  -5.97  -3.30  -234.871032    2             
iter:  33  15:17:14  -6.08  -3.40  -234.871116    2             
iter:  34  15:18:29  -5.88  -3.43  -234.870278    2             
iter:  35  15:19:44  -5.61  -3.43  -234.872393    2             
iter:  36  15:20:59  -6.07  -3.46  -234.869477    2             
iter:  37  15:22:14  -6.20  -3.61  -234.869803    2             
iter:  38  15:23:29  -6.44  -3.54  -234.869161    2             
iter:  39  15:24:44  -6.40  -3.69  -234.869283    2             
iter:  40  15:25:59  -6.72  -3.72  -234.869003    2             
iter:  41  15:27:14  -6.33  -3.73  -234.869590    2             
iter:  42  15:28:29  -6.86  -3.75  -234.868808    2             
iter:  43  15:29:45  -6.70  -3.85  -234.868953    2             
iter:  44  15:31:00  -6.74  -3.77  -234.868724    2             
iter:  45  15:32:15  -7.25  -3.93  -234.868801    2             
iter:  46  15:33:30  -7.40  -3.97  -234.868575    2             
iter:  47  15:34:45  -6.83  -4.06  -234.868763    2             
iter:  48  15:36:01  -6.89  -4.07  -234.868388    2             
iter:  49  15:37:16  -7.19  -4.23  -234.868516    2             
iter:  50  15:38:31  -7.49  -4.12  -234.868487    2             

Converged after 50 iterations.

Dipole moment: (23.850581, 16.175465, -0.228221) |e|*Ang

Energy contributions relative to reference atoms: (reference = -12877847.605335)

Kinetic:       -236.947067
Potential:     +111.505453
External:        +0.000000
XC:            -101.493280
Entropy (-ST):   -2.246656
Local:           -6.810265
--------------------------
Free energy:   -235.991815
Extrapolated:  -234.868487

Fermi level: 0.94568

Showing only first 2 kpts
 Kpt  Band  Eigenvalues  Occupancy
  0   359      0.91439    0.14440
  0   360      0.95388    0.11988
  0   361      0.96170    0.11501
  0   362      0.99442    0.09513

  1   359      0.83860    0.18619
  1   360      0.85362    0.17879
  1   361      0.87028    0.17001
  1   362      0.92357    0.13876



Forces in eV/Ang:
  0 Pd   -0.12327    0.32368   -0.35093
  1 Ir    0.95203    0.68811    0.61145
  2 Ru   -1.08285    0.28844    0.68590
  3 Ru    0.43130    0.29841    1.60676
  4 Ir   -0.56920   -0.78212    1.15085
  5 Pt    0.14332    0.16374    0.05007
  6 Pd   -0.49276   -0.42174   -0.25091
  7 Pd    0.38447   -0.26688   -0.58509
  8 Ru    0.34161   -0.15446    0.54757
  9 Ag   -0.24116   -0.09319    0.04790
 10 Ag   -0.02764   -0.10093    0.04875
 11 Ag    0.07921   -0.16351   -0.13897
 12 Pt    0.08380    0.75648   -0.54019
 13 Pt    0.12267    0.57404   -0.75042
 14 Pt   -0.10338    0.20049   -0.18286
 15 Ru   -0.38736   -0.73538   -0.96602
 16 Pt   -0.43062    0.17383   -0.13424
 17 Ir    0.91066   -0.08575   -1.03614
 18 Pt    0.01672   -0.01920    0.01474
 19 Ag   -0.03088   -0.02725   -0.02419
 20 Pd   -0.02019   -0.05739    0.01815
 21 Ag   -0.00422   -0.01459   -0.00786
 22 Ru   -0.02287   -0.07242    0.00537
 23 Pd   -0.04400   -0.03713    0.06297
 24 Ir    0.01169   -0.02628   -0.01556
 25 Ir   -0.01989    0.04075    0.01815
 26 Pt   -0.01121    0.00448    0.03115
 27 Ir   -0.07311   -0.05812   -0.14289
 28 Pd   -0.14272   -0.00287    0.15847
 29 Ag    0.05620    0.09457    0.13610
 30 Pd    0.01168    0.00999   -0.17144
 31 Pd    0.03740   -0.03584    0.01792
 32 Pd    0.05323   -0.03608    0.07161
 33 Ru   -0.03990   -0.07516    0.00976
 34 Pd    0.00707    0.05038   -0.01875
 35 Ir   -0.03716   -0.16129    0.14342
 36 Ir    0.03581   -0.50878   -0.13611
 37 Pt    0.05667   -0.00505   -0.08560
 38 Ag    0.03081   -0.00459   -0.04115
 39 Pd    0.39773    0.01046    0.32740
 40 Pd   -0.00826   -0.02927   -0.06838
 41 Ir    0.40779    0.03501    1.40670
 42 Ag    0.06075    0.01980   -0.03568
 43 Ir   -0.28430    0.16535   -0.09499
 44 Ir    0.46401   -0.14824    1.18936
 45 O    -0.85411    0.28576   -2.45979

System changes: positions 

Initializing position-dependent things.

Density initialized from wave functions
                                             
                                             
                                             
                                             
                                             
                                             
                  Ag          O              
                         Ir    Ir            
            Pd     RPd    PIr    Ir          
                     Ag                      
        Ir    Pt    Pd     Pd                
               Pd     Ag                     
        Ir           Ir     Ir     Pt        
                Ag     Ru     Pd             
                                             
           Pt     Ag    PPd    Ir            
                                             
            Pt     Pt    PPt    Ru           
       Ag     Ag    IAg    Pt                
                                             
         Pd    Ir     Ru                     
                                             
                                             
                                             
                                             
                                             

Positions:
   0 Pd     0.000000    1.624086   10.000000    ( 0.0000,  0.0000,  0.0000)
   1 Ir     2.812999    1.624086   10.000000    ( 0.0000,  0.0000,  0.0000)
   2 Ru     5.625998    1.624086   10.000000    ( 0.0000,  0.0000,  0.0000)
   3 Ru     1.406500    4.060215   10.000000    ( 0.0000,  0.0000,  0.0000)
   4 Ir     4.219499    4.060215   10.000000    ( 0.0000,  0.0000,  0.0000)
   5 Pt     7.032498    4.060215   10.000000    ( 0.0000,  0.0000,  0.0000)
   6 Pd     2.812999    6.496343   10.000000    ( 0.0000,  0.0000,  0.0000)
   7 Pd     5.625998    6.496343   10.000000    ( 0.0000,  0.0000,  0.0000)
   8 Ru     8.438997    6.496343   10.000000    ( 0.0000,  0.0000,  0.0000)
   9 Ag     0.000000    0.000000   12.296804    ( 0.0000,  0.0000,  0.0000)
  10 Ag     2.812999    0.000000   12.296804    ( 0.0000,  0.0000,  0.0000)
  11 Ag     5.625998    0.000000   12.296804    ( 0.0000,  0.0000,  0.0000)
  12 Pt     1.406500    2.436129   12.296804    ( 0.0000,  0.0000,  0.0000)
  13 Pt     4.219499    2.436129   12.296804    ( 0.0000,  0.0000,  0.0000)
  14 Pt     7.032498    2.436129   12.296804    ( 0.0000,  0.0000,  0.0000)
  15 Ru     2.812999    4.872257   12.296804    ( 0.0000,  0.0000,  0.0000)
  16 Pt     5.625998    4.872257   12.296804    ( 0.0000,  0.0000,  0.0000)
  17 Ir     8.438997    4.872257   12.296804    ( 0.0000,  0.0000,  0.0000)
  18 Pt     1.332389    0.737909   14.658409    ( 0.0000,  0.0000,  0.0000)
  19 Ag     4.179265    0.791771   14.643653    ( 0.0000,  0.0000,  0.0000)
  20 Pd     7.000046    0.857825   14.621732    ( 0.0000,  0.0000,  0.0000)
  21 Ag     2.800518    3.197503   14.645384    ( 0.0000,  0.0000,  0.0000)
  22 Ru     5.659606    3.369344   14.464980    ( 0.0000,  0.0000,  0.0000)
  23 Pd     8.451004    3.206228   14.573776    ( 0.0000,  0.0000,  0.0000)
  24 Ir     4.204205    5.611546   14.567808    ( 0.0000,  0.0000,  0.0000)
  25 Ir     7.030362    5.581155   14.562685    ( 0.0000,  0.0000,  0.0000)
  26 Pt     9.856833    5.666225   14.599318    ( 0.0000,  0.0000,  0.0000)
  27 Ir    -0.083346    1.502324   16.927891    ( 0.0000,  0.0000,  0.0000)
  28 Pd     2.735854    1.592868   17.003468    ( 0.0000,  0.0000,  0.0000)
  29 Ag     5.536626    1.602212   16.928551    ( 0.0000,  0.0000,  0.0000)
  30 Pd     1.402447    4.032083   16.960220    ( 0.0000,  0.0000,  0.0000)
  31 Pd     4.188918    4.104572   16.893689    ( 0.0000,  0.0000,  0.0000)
  32 Pd     7.011555    3.966772   16.741943    ( 0.0000,  0.0000,  0.0000)
  33 Ru     2.842229    6.535274   16.754355    ( 0.0000,  0.0000,  0.0000)
  34 Pd     5.662767    6.453916   16.792961    ( 0.0000,  0.0000,  0.0000)
  35 Ir     8.549677    6.366041   16.931322    ( 0.0000,  0.0000,  0.0000)
  36 Ir     0.064697   -0.068435   18.971265    ( 0.0000,  0.0000,  0.0000)
  37 Pt     2.806797   -0.097447   19.134875    ( 0.0000,  0.0000,  0.0000)
  38 Ag     5.663618    0.012683   19.403268    ( 0.0000,  0.0000,  0.0000)
  39 Pd     1.380409    2.377660   19.303967    ( 0.0000,  0.0000,  0.0000)
  40 Pd     4.314627    2.516256   19.250846    ( 0.0000,  0.0000,  0.0000)
  41 Ir     7.204843    2.516522   19.125821    ( 0.0000,  0.0000,  0.0000)
  42 Ag     2.814351    4.894826   19.376718    ( 0.0000,  0.0000,  0.0000)
  43 Ir     5.678526    4.926541   19.032090    ( 0.0000,  0.0000,  0.0000)
  44 Ir     8.314207    4.837746   19.091167    ( 0.0000,  0.0000,  0.0000)
  45 O      8.357411    3.268409   20.518603    ( 0.0000,  0.0000,  0.0000)

Unit cell:
           periodic     x           y           z      points  spacing
  1. axis:    yes    8.465341    0.000000    0.000000    35     0.2095
  2. axis:    yes    4.232670    7.331200    0.000000    35     0.2095
  3. axis:    no     0.000000    0.000000   29.187217   135     0.2162

  Lengths:   8.465341   8.465341  29.187217
  Angles:   90.000000  90.000000  60.000000

Effective grid spacing dv^(1/3) = 0.2221

                     log10-error:    total        iterations:
           time      wfs    density  energy       fermi  poisson
iter:   1  15:40:19  -1.81   +inf  -243.422645    33            
iter:   2  15:41:33  -1.13  -1.77  -337.624745    36            
iter:   3  15:42:48  -1.33  -1.25  -262.483754    35            
iter:   4  15:44:02  -2.23  -1.54  -237.129264    33            
iter:   5  15:45:16  -2.85  -2.11  -237.633202    3             
iter:   6  15:46:31  -3.03  -2.00  -236.163143    3             
iter:   7  15:47:45  -3.56  -2.28  -235.720958    3             
iter:   8  15:48:59  -3.53  -2.51  -235.555050    3             
iter:   9  15:50:14  -4.01  -2.68  -235.492981    3             
iter:  10  15:51:28  -4.15  -2.82  -235.555780    3             
iter:  11  15:52:43  -3.93  -2.64  -235.463110    2             
iter:  12  15:53:57  -4.03  -2.89  -235.582703    2             
iter:  13  15:55:12  -4.31  -2.54  -235.478392    3             
iter:  14  15:56:27  -4.65  -2.85  -235.440640    3             
iter:  15  15:57:41  -5.04  -3.14  -235.434463    3             
iter:  16  15:58:56  -5.48  -3.27  -235.437870    2             
iter:  17  16:00:10  -5.27  -3.20  -235.432367    3             
iter:  18  16:01:24  -5.45  -3.33  -235.433375    2             
iter:  19  16:02:38  -5.64  -3.30  -235.433609    3             
iter:  20  16:03:52  -5.39  -3.39  -235.430830    3             
iter:  21  16:05:06  -5.29  -3.45  -235.430047    2             
iter:  22  16:06:21  -5.79  -3.73  -235.430769    2             
iter:  23  16:07:35  -6.35  -3.80  -235.430160    2             
iter:  24  16:08:49  -6.38  -3.82  -235.431244    2             
iter:  25  16:10:03  -6.09  -3.68  -235.431286    2             
iter:  26  16:11:17  -6.43  -3.87  -235.429932    2             
iter:  27  16:12:31  -6.57  -3.87  -235.430413    2             
iter:  28  16:13:44  -6.71  -4.07  -235.430378    2             
iter:  29  16:14:58  -7.00  -4.23  -235.430167    2             
iter:  30  16:16:11  -7.21  -4.40  -235.430268    2             
iter:  31  16:17:25  -7.48  -4.29  -235.430203    2             

Converged after 31 iterations.

Dipole moment: (22.346464, 17.672101, -0.092543) |e|*Ang

Energy contributions relative to reference atoms: (reference = -12877847.605335)

Kinetic:       -226.915885
Potential:     +102.416648
External:        +0.000000
XC:            -102.928442
Entropy (-ST):   -2.231669
Local:           -6.886688
--------------------------
Free energy:   -236.546037
Extrapolated:  -235.430203

Fermi level: 1.01522

Showing only first 2 kpts
 Kpt  Band  Eigenvalues  Occupancy
  0   359      0.97663    0.14882
  0   360      1.01544    0.12486
  0   361      1.03764    0.11104
  0   362      1.06615    0.09384

  1   359      0.89740    0.19115
  1   360      0.92530    0.17769
  1   361      0.93756    0.17124
  1   362      0.98055    0.14646



Forces in eV/Ang:
  0 Pd   -0.12542    0.32259   -0.35258
  1 Ir    0.95637    0.68670    0.61872
  2 Ru   -1.08467    0.28261    0.68801
  3 Ru    0.42812    0.29951    1.61201
  4 Ir   -0.57098   -0.79325    1.17002
  5 Pt    0.14532    0.16083    0.05467
  6 Pd   -0.49764   -0.42019   -0.24234
  7 Pd    0.38741   -0.26502   -0.57388
  8 Ru    0.34594   -0.14743    0.55475
  9 Ag   -0.24769   -0.09449    0.05538
 10 Ag   -0.02881   -0.10379    0.05940
 11 Ag    0.07993   -0.16876   -0.13303
 12 Pt    0.08017    0.76411   -0.52742
 13 Pt    0.11861    0.57468   -0.75085
 14 Pt   -0.09399    0.19429   -0.16609
 15 Ru   -0.39099   -0.72887   -0.96075
 16 Pt   -0.41741    0.16247   -0.09844
 17 Ir    0.91022   -0.09052   -1.01132
 18 Pt   -0.01427    0.00118   -0.01171
 19 Ag   -0.01084   -0.01356    0.06001
 20 Pd   -0.04936   -0.04858   -0.01305
 21 Ag    0.00017   -0.01898    0.00438
 22 Ru   -0.00986   -0.04136   -0.00183
 23 Pd   -0.03387   -0.02443    0.02624
 24 Ir   -0.00264   -0.02524   -0.02698
 25 Ir   -0.01640   -0.03983    0.05753
 26 Pt   -0.00641   -0.02817    0.01111
 27 Ir   -0.14390   -0.01094    0.17530
 28 Pd   -0.02723    0.00620    0.03931
 29 Ag    0.10121    0.03250    0.15490
 30 Pd   -0.10142    0.00432    0.00890
 31 Pd    0.04567   -0.04309   -0.04365
 32 Pd    0.17596    0.03641    0.36579
 33 Ru   -0.07742   -0.01838   -0.00544
 34 Pd    0.07444   -0.03287   -0.06902
 35 Ir   -0.01487   -0.11373    0.20752
 36 Ir    0.03674   -0.21678   -0.14292
 37 Pt    0.18290   -0.16523   -0.07806
 38 Ag    0.04995    0.03585   -0.05562
 39 Pd    0.83300   -0.37857   -0.26056
 40 Pd    0.11588   -0.03840   -0.02742
 41 Ir   -0.69242   -0.68570   -0.34222
 42 Ag    0.00678   -0.02280   -0.03555
 43 Ir    0.01928    0.10882   -0.02606
 44 Ir   -0.01561    0.48557    0.02793
 45 O    -0.46910    0.56936   -0.03117

System changes: positions 

Initializing position-dependent things.

Density initialized from wave functions
                                             
                                             
                                             
                                             
                                             
                                             
                  Ag          O              
                         Ir    Ir            
             Pd    RPd    PIr    Ir          
                     Ag                      
        Ir    Pt    Pd     Pd                
        Ir     Pd     Ag                     
                     Ir     Ir     Pt        
                Ag      Ru    Pd             
                                             
           Pt     Ag    PPd    Ir            
                                             
             Pt    Pt    PPt    Ru           
        Ag    Ag    IAg    Pt                
                                             
         Pd    Ir     Ru                     
                                             
                                             
                                             
                                             
                                             

Positions:
   0 Pd     0.000000    1.624086   10.000000    ( 0.0000,  0.0000,  0.0000)
   1 Ir     2.812999    1.624086   10.000000    ( 0.0000,  0.0000,  0.0000)
   2 Ru     5.625998    1.624086   10.000000    ( 0.0000,  0.0000,  0.0000)
   3 Ru     1.406500    4.060215   10.000000    ( 0.0000,  0.0000,  0.0000)
   4 Ir     4.219499    4.060215   10.000000    ( 0.0000,  0.0000,  0.0000)
   5 Pt     7.032498    4.060215   10.000000    ( 0.0000,  0.0000,  0.0000)
   6 Pd     2.812999    6.496343   10.000000    ( 0.0000,  0.0000,  0.0000)
   7 Pd     5.625998    6.496343   10.000000    ( 0.0000,  0.0000,  0.0000)
   8 Ru     8.438997    6.496343   10.000000    ( 0.0000,  0.0000,  0.0000)
   9 Ag     0.000000    0.000000   12.296804    ( 0.0000,  0.0000,  0.0000)
  10 Ag     2.812999    0.000000   12.296804    ( 0.0000,  0.0000,  0.0000)
  11 Ag     5.625998    0.000000   12.296804    ( 0.0000,  0.0000,  0.0000)
  12 Pt     1.406500    2.436129   12.296804    ( 0.0000,  0.0000,  0.0000)
  13 Pt     4.219499    2.436129   12.296804    ( 0.0000,  0.0000,  0.0000)
  14 Pt     7.032498    2.436129   12.296804    ( 0.0000,  0.0000,  0.0000)
  15 Ru     2.812999    4.872257   12.296804    ( 0.0000,  0.0000,  0.0000)
  16 Pt     5.625998    4.872257   12.296804    ( 0.0000,  0.0000,  0.0000)
  17 Ir     8.438997    4.872257   12.296804    ( 0.0000,  0.0000,  0.0000)
  18 Pt     1.331410    0.737466   14.657636    ( 0.0000,  0.0000,  0.0000)
  19 Ag     4.177240    0.789572   14.649126    ( 0.0000,  0.0000,  0.0000)
  20 Pd     6.994365    0.851130   14.620921    ( 0.0000,  0.0000,  0.0000)
  21 Ag     2.800412    3.195118   14.645604    ( 0.0000,  0.0000,  0.0000)
  22 Ru     5.657917    3.362952   14.464949    ( 0.0000,  0.0000,  0.0000)
  23 Pd     8.446220    3.202619   14.578332    ( 0.0000,  0.0000,  0.0000)
  24 Ir     4.204277    5.608173   14.564570    ( 0.0000,  0.0000,  0.0000)
  25 Ir     7.028087    5.578249   14.569148    ( 0.0000,  0.0000,  0.0000)
  26 Pt     9.855842    5.663454   14.601379    ( 0.0000,  0.0000,  0.0000)
  27 Ir    -0.100325    1.499487   16.941755    ( 0.0000,  0.0000,  0.0000)
  28 Pd     2.728851    1.593422   17.012179    ( 0.0000,  0.0000,  0.0000)
  29 Ag     5.548708    1.608342   16.948516    ( 0.0000,  0.0000,  0.0000)
  30 Pd     1.392338    4.032822   16.956097    ( 0.0000,  0.0000,  0.0000)
  31 Pd     4.194724    4.099078   16.889717    ( 0.0000,  0.0000,  0.0000)
  32 Pd     7.031254    3.969464   16.781746    ( 0.0000,  0.0000,  0.0000)
  33 Ru     2.833077    6.531170   16.754081    ( 0.0000,  0.0000,  0.0000)
  34 Pd     5.670646    6.452009   16.785297    ( 0.0000,  0.0000,  0.0000)
  35 Ir     8.547052    6.349578   16.956925    ( 0.0000,  0.0000,  0.0000)
  36 Ir     0.069536   -0.105734   18.952534    ( 0.0000,  0.0000,  0.0000)
  37 Pt     2.827313   -0.114624   19.124313    ( 0.0000,  0.0000,  0.0000)
  38 Ag     5.669671    0.016243   19.396325    ( 0.0000,  0.0000,  0.0000)
  39 Pd     1.477950    2.338953   19.286741    ( 0.0000,  0.0000,  0.0000)
  40 Pd     4.326327    2.511438   19.246010    ( 0.0000,  0.0000,  0.0000)
  41 Ir     7.145473    2.446885   19.131912    ( 0.0000,  0.0000,  0.0000)
  42 Ag     2.816836    4.893058   19.372005    ( 0.0000,  0.0000,  0.0000)
  43 Ir     5.672154    4.942617   19.026611    ( 0.0000,  0.0000,  0.0000)
  44 Ir     8.326241    4.883429   19.129014    ( 0.0000,  0.0000,  0.0000)
  45 O      8.283955    3.335488   20.443070    ( 0.0000,  0.0000,  0.0000)

Unit cell:
           periodic     x           y           z      points  spacing
  1. axis:    yes    8.465341    0.000000    0.000000    35     0.2095
  2. axis:    yes    4.232670    7.331200    0.000000    35     0.2095
  3. axis:    no     0.000000    0.000000   29.187217   135     0.2162

  Lengths:   8.465341   8.465341  29.187217
  Angles:   90.000000  90.000000  60.000000

Effective grid spacing dv^(1/3) = 0.2221

                     log10-error:    total        iterations:
           time      wfs    density  energy       fermi  poisson
iter:   1  16:19:14  -1.77   +inf  -246.920832    4             
iter:   2  16:20:28  -0.53  -1.63  -498.443548    38            
iter:   3  16:21:42  -1.32  -1.02  -254.949666    38            
iter:   4  16:22:56  -1.95  -1.64  -237.971279    37            
iter:   5  16:24:10  -2.69  -2.08  -235.947443    3             
iter:   6  16:25:24  -3.44  -2.49  -235.751067    3             
iter:   7  16:26:37  -3.63  -2.62  -235.674799    2             
iter:   8  16:27:51  -3.69  -2.58  -236.003859    2             
iter:   9  16:29:05  -4.05  -2.32  -235.593228    3             
iter:  10  16:30:19  -4.35  -2.83  -235.570870    3             
iter:  11  16:31:33  -4.28  -2.87  -235.580368    3             
iter:  12  16:32:47  -4.74  -2.91  -235.555930    3             
iter:  13  16:34:01  -4.54  -3.08  -235.551114    3             
iter:  14  16:35:15  -4.74  -3.22  -235.619659    2             
iter:  15  16:36:28  -4.84  -2.71  -235.550393    3             
iter:  16  16:37:42  -5.29  -3.28  -235.547278    3             
iter:  17  16:38:56  -5.50  -3.32  -235.551366    2             
iter:  18  16:40:09  -5.49  -3.24  -235.545914    2             
iter:  19  16:41:23  -5.71  -3.46  -235.545964    2             
iter:  20  16:42:38  -5.75  -3.54  -235.548886    2             
iter:  21  16:43:51  -5.97  -3.32  -235.545742    2             
iter:  22  16:45:06  -5.79  -3.57  -235.544642    2             
iter:  23  16:46:20  -5.97  -3.71  -235.546658    2             
iter:  24  16:47:34  -6.03  -3.67  -235.544908    2             
iter:  25  16:48:49  -6.49  -3.80  -235.544983    2             
iter:  26  16:50:03  -6.52  -3.99  -235.545217    2             
iter:  27  16:51:16  -6.75  -3.88  -235.544939    2             
iter:  28  16:52:29  -6.63  -3.88  -235.544637    2             
iter:  29  16:53:43  -6.94  -3.94  -235.545228    2             
iter:  30  16:54:57  -6.89  -4.12  -235.544863    2             
iter:  31  16:56:10  -7.20  -3.95  -235.544952    2             
iter:  32  16:57:24  -7.15  -4.18  -235.544962    2             
iter:  33  16:58:38  -7.36  -4.16  -235.544954    2             
iter:  34  16:59:49  -7.49  -4.02  -235.544852    2             

Converged after 34 iterations.

Dipole moment: (16.860593, 19.426887, -0.071740) |e|*Ang

Energy contributions relative to reference atoms: (reference = -12877847.605335)

Kinetic:       -225.961750
Potential:     +101.631425
External:        +0.000000
XC:            -103.195953
Entropy (-ST):   -2.234984
Local:           -6.901082
--------------------------
Free energy:   -236.662344
Extrapolated:  -235.544852

Fermi level: 1.02633

Showing only first 2 kpts
 Kpt  Band  Eigenvalues  Occupancy
  0   359      0.99523    0.14428
  0   360      1.02783    0.12406
  0   361      1.05456    0.10747
  0   362      1.07687    0.09407

  1   359      0.90708    0.19180
  1   360      0.93939    0.17615
  1   361      0.95007    0.17048
  1   362      0.98275    0.15181



Forces in eV/Ang:
  0 Pd   -0.12495    0.32376   -0.35489
  1 Ir    0.96235    0.68816    0.62279
  2 Ru   -1.08229    0.28439    0.68833
  3 Ru    0.42921    0.29303    1.60825
  4 Ir   -0.56889   -0.79358    1.17467
  5 Pt    0.14792    0.16087    0.05193
  6 Pd   -0.49819   -0.42091   -0.24659
  7 Pd    0.38682   -0.26605   -0.57503
  8 Ru    0.34279   -0.14798    0.55650
  9 Ag   -0.24869   -0.09162    0.05324
 10 Ag   -0.02523   -0.11128    0.07520
 11 Ag    0.06867   -0.17258   -0.12614
 12 Pt    0.07260    0.76633   -0.51630
 13 Pt    0.11540    0.56297   -0.74695
 14 Pt   -0.08523    0.18593   -0.15351
 15 Ru   -0.40054   -0.72477   -0.95667
 16 Pt   -0.39115    0.16239   -0.06572
 17 Ir    0.90441   -0.10575   -0.99250
 18 Pt   -0.04217    0.02447    0.02548
 19 Ag    0.00095   -0.01987    0.13958
 20 Pd   -0.03365   -0.02153    0.01399
 21 Ag   -0.02212   -0.02495    0.02181
 22 Ru    0.03563    0.00147    0.06299
 23 Pd   -0.05376   -0.00989    0.04122
 24 Ir   -0.01500   -0.01959    0.00057
 25 Ir    0.00082   -0.12861    0.08118
 26 Pt   -0.04432   -0.03747    0.01248
 27 Ir   -0.02740   -0.02052    0.08665
 28 Pd    0.12899   -0.04997   -0.25188
 29 Ag   -0.09420   -0.09406   -0.11825
 30 Pd   -0.02926   -0.07387    0.12356
 31 Pd    0.01919   -0.00806   -0.06347
 32 Pd    0.06714    0.02509    0.05246
 33 Ru   -0.00246   -0.05653   -0.00873
 34 Pd    0.02827   -0.02992   -0.13526
 35 Ir    0.10607    0.17244   -0.15932
 36 Ir    0.01987    0.00348    0.01485
 37 Pt    0.11698   -0.02154    0.03702
 38 Ag    0.06496   -0.04992    0.03560
 39 Pd   -0.22200   -0.09132    0.07854
 40 Pd    0.12770    0.04096    0.06123
 41 Ir    0.33097    0.02078   -0.22050
 42 Ag   -0.03274   -0.10846   -0.00754
 43 Ir   -0.04742    0.00035    0.08847
 44 Ir   -0.33121   -0.24987   -0.08620
 45 O    -0.13778    0.17936    0.27439

System changes: positions 

Initializing position-dependent things.

Density initialized from wave functions
                                             
                                             
                                             
                                             
                                             
                                             
                  Ag          O              
                         Ir    Ir            
             Pd    RPd    PIr    Ir          
                     Ag                      
        Ir    Pt    Pd     Pd                
        Ir     Pd     Ag                     
                     Ir     Ir     Pt        
                Ag      Ru    Pd             
                                             
           Pt     Ag    PPd    Ir            
                                             
             Pt    Pt    PPt    Ru           
        Ag    Ag    IAg    Pt                
                                             
         Pd    Ir     Ru                     
                                             
                                             
                                             
                                             
                                             

Positions:
   0 Pd     0.000000    1.624086   10.000000    ( 0.0000,  0.0000,  0.0000)
   1 Ir     2.812999    1.624086   10.000000    ( 0.0000,  0.0000,  0.0000)
   2 Ru     5.625998    1.624086   10.000000    ( 0.0000,  0.0000,  0.0000)
   3 Ru     1.406500    4.060215   10.000000    ( 0.0000,  0.0000,  0.0000)
   4 Ir     4.219499    4.060215   10.000000    ( 0.0000,  0.0000,  0.0000)
   5 Pt     7.032498    4.060215   10.000000    ( 0.0000,  0.0000,  0.0000)
   6 Pd     2.812999    6.496343   10.000000    ( 0.0000,  0.0000,  0.0000)
   7 Pd     5.625998    6.496343   10.000000    ( 0.0000,  0.0000,  0.0000)
   8 Ru     8.438997    6.496343   10.000000    ( 0.0000,  0.0000,  0.0000)
   9 Ag     0.000000    0.000000   12.296804    ( 0.0000,  0.0000,  0.0000)
  10 Ag     2.812999    0.000000   12.296804    ( 0.0000,  0.0000,  0.0000)
  11 Ag     5.625998    0.000000   12.296804    ( 0.0000,  0.0000,  0.0000)
  12 Pt     1.406500    2.436129   12.296804    ( 0.0000,  0.0000,  0.0000)
  13 Pt     4.219499    2.436129   12.296804    ( 0.0000,  0.0000,  0.0000)
  14 Pt     7.032498    2.436129   12.296804    ( 0.0000,  0.0000,  0.0000)
  15 Ru     2.812999    4.872257   12.296804    ( 0.0000,  0.0000,  0.0000)
  16 Pt     5.625998    4.872257   12.296804    ( 0.0000,  0.0000,  0.0000)
  17 Ir     8.438997    4.872257   12.296804    ( 0.0000,  0.0000,  0.0000)
  18 Pt     1.327728    0.739504   14.659735    ( 0.0000,  0.0000,  0.0000)
  19 Ag     4.177124    0.787666   14.661530    ( 0.0000,  0.0000,  0.0000)
  20 Pd     6.990956    0.848650   14.622038    ( 0.0000,  0.0000,  0.0000)
  21 Ag     2.798516    3.192764   14.647481    ( 0.0000,  0.0000,  0.0000)
  22 Ru     5.660787    3.362457   14.470311    ( 0.0000,  0.0000,  0.0000)
  23 Pd     8.441178    3.201427   14.582287    ( 0.0000,  0.0000,  0.0000)
  24 Ir     4.203009    5.606179   14.564308    ( 0.0000,  0.0000,  0.0000)
  25 Ir     7.027937    5.567026   14.576679    ( 0.0000,  0.0000,  0.0000)
  26 Pt     9.851972    5.660000   14.602643    ( 0.0000,  0.0000,  0.0000)
  27 Ir    -0.104285    1.497459   16.950426    ( 0.0000,  0.0000,  0.0000)
  28 Pd     2.739146    1.589219   16.991584    ( 0.0000,  0.0000,  0.0000)
  29 Ag     5.541844    1.600931   16.940367    ( 0.0000,  0.0000,  0.0000)
  30 Pd     1.388888    4.026603   16.966197    ( 0.0000,  0.0000,  0.0000)
  31 Pd     4.196917    4.097863   16.883937    ( 0.0000,  0.0000,  0.0000)
  32 Pd     7.038854    3.971850   16.790009    ( 0.0000,  0.0000,  0.0000)
  33 Ru     2.831991    6.525952   16.753313    ( 0.0000,  0.0000,  0.0000)
  34 Pd     5.673804    6.449289   16.773046    ( 0.0000,  0.0000,  0.0000)
  35 Ir     8.555830    6.362670   16.945815    ( 0.0000,  0.0000,  0.0000)
  36 Ir     0.071695   -0.109075   18.951994    ( 0.0000,  0.0000,  0.0000)
  37 Pt     2.839235   -0.118092   19.126447    ( 0.0000,  0.0000,  0.0000)
  38 Ag     5.675784    0.012329   19.398689    ( 0.0000,  0.0000,  0.0000)
  39 Pd     1.468385    2.327499   19.291852    ( 0.0000,  0.0000,  0.0000)
  40 Pd     4.338313    2.514463   19.250753    ( 0.0000,  0.0000,  0.0000)
  41 Ir     7.168094    2.442044   19.113968    ( 0.0000,  0.0000,  0.0000)
  42 Ag     2.814295    4.883656   19.370908    ( 0.0000,  0.0000,  0.0000)
  43 Ir     5.667458    4.944205   19.033608    ( 0.0000,  0.0000,  0.0000)
  44 Ir     8.299261    4.866463   19.125485    ( 0.0000,  0.0000,  0.0000)
  45 O      8.265086    3.357190   20.458814    ( 0.0000,  0.0000,  0.0000)

Unit cell:
           periodic     x           y           z      points  spacing
  1. axis:    yes    8.465341    0.000000    0.000000    35     0.2095
  2. axis:    yes    4.232670    7.331200    0.000000    35     0.2095
  3. axis:    no     0.000000    0.000000   29.187217   135     0.2162

  Lengths:   8.465341   8.465341  29.187217
  Angles:   90.000000  90.000000  60.000000

Effective grid spacing dv^(1/3) = 0.2221

                     log10-error:    total        iterations:
           time      wfs    density  energy       fermi  poisson
iter:   1  17:01:37  -2.59   +inf  -237.167798    3             
iter:   2  17:02:51  -1.81  -2.08  -290.328320    36            
iter:   3  17:04:05  -2.11  -1.36  -235.912523    36            
iter:   4  17:05:19  -3.24  -2.43  -235.671930    3             
iter:   5  17:06:33  -4.18  -2.75  -235.639055    3             
iter:   6  17:07:46  -4.45  -2.85  -235.608202    2             
iter:   7  17:09:00  -4.75  -3.16  -235.604564    2             
iter:   8  17:10:13  -5.24  -3.22  -235.606729    2             
iter:   9  17:11:27  -4.97  -3.08  -235.608146    3             
iter:  10  17:12:41  -4.94  -3.17  -235.601252    2             
iter:  11  17:13:55  -5.50  -3.38  -235.599700    2             
iter:  12  17:15:09  -5.83  -3.55  -235.598649    2             
iter:  13  17:16:23  -6.13  -3.63  -235.598343    2             
iter:  14  17:17:37  -5.62  -3.75  -235.597512    2             
iter:  15  17:18:51  -5.97  -3.66  -235.600577    2             
iter:  16  17:20:05  -5.91  -3.52  -235.597563    2             
iter:  17  17:21:19  -6.62  -3.92  -235.597676    2             
iter:  18  17:22:33  -6.78  -4.02  -235.597447    2             
iter:  19  17:23:47  -7.08  -4.09  -235.597547    2             
iter:  20  17:25:01  -7.03  -4.16  -235.597471    2             
iter:  21  17:26:14  -6.43  -4.37  -235.598052    2             
iter:  22  17:27:28  -7.13  -4.08  -235.597418    2             
iter:  23  17:28:42  -7.42  -4.37  -235.597594    2             

Converged after 23 iterations.

Dipole moment: (16.842674, 19.838669, -0.073587) |e|*Ang

Energy contributions relative to reference atoms: (reference = -12877847.605335)

Kinetic:       -224.644485
Potential:     +100.401951
External:        +0.000000
XC:            -103.342597
Entropy (-ST):   -2.228480
Local:           -6.898223
--------------------------
Free energy:   -236.711834
Extrapolated:  -235.597594

Fermi level: 1.02462

Showing only first 2 kpts
 Kpt  Band  Eigenvalues  Occupancy
  0   359      0.99020    0.14630
  0   360      1.02844    0.12262
  0   361      1.04979    0.10935
  0   362      1.07535    0.09396

  1   359      0.90620    0.19143
  1   360      0.93842    0.17577
  1   361      0.94347    0.17311
  1   362      0.98386    0.15013



Forces in eV/Ang:
  0 Pd   -0.12372    0.32314   -0.35481
  1 Ir    0.96247    0.69183    0.62270
  2 Ru   -1.08202    0.28680    0.68746
  3 Ru    0.42930    0.29304    1.60765
  4 Ir   -0.56887   -0.79329    1.17837
  5 Pt    0.14829    0.16037    0.05446
  6 Pd   -0.49623   -0.41926   -0.24333
  7 Pd    0.38536   -0.26389   -0.57463
  8 Ru    0.34340   -0.15225    0.56185
  9 Ag   -0.24769   -0.09156    0.05934
 10 Ag   -0.01895   -0.11883    0.11780
 11 Ag    0.05806   -0.17121   -0.11194
 12 Pt    0.06211    0.76975   -0.50493
 13 Pt    0.11782    0.55563   -0.72381
 14 Pt   -0.08520    0.18748   -0.14662
 15 Ru   -0.39671   -0.73157   -0.95490
 16 Pt   -0.38507    0.14458   -0.04548
 17 Ir    0.89988   -0.11766   -0.98929
 18 Pt   -0.04657    0.00897   -0.03769
 19 Ag   -0.02031   -0.03249   -0.03865
 20 Pd    0.00188   -0.01726    0.01175
 21 Ag   -0.02553    0.00912   -0.01722
 22 Ru    0.00062   -0.01586    0.02746
 23 Pd   -0.01114   -0.03465    0.01134
 24 Ir   -0.02636   -0.01727   -0.01933
 25 Ir    0.02007   -0.03126   -0.02536
 26 Pt   -0.01793   -0.03749   -0.01317
 27 Ir    0.05937   -0.03622   -0.03800
 28 Pd    0.01320   -0.05736   -0.02182
 29 Ag    0.00395    0.01256   -0.03436
 30 Pd   -0.01161   -0.04888    0.10252
 31 Pd    0.02356   -0.00844   -0.02103
 32 Pd   -0.02015   -0.01887   -0.01849
 33 Ru    0.00349   -0.04609   -0.01519
 34 Pd   -0.00151   -0.00482    0.01788
 35 Ir    0.05704   -0.01206   -0.03630
 36 Ir    0.02499   -0.02556    0.03680
 37 Pt    0.03691    0.06350   -0.04714
 38 Ag    0.05548   -0.07362    0.01507
 39 Pd   -0.16085   -0.08043    0.04972
 40 Pd    0.06507    0.02467    0.01507
 41 Ir    0.23780   -0.02817   -0.02614
 42 Ag   -0.04084   -0.09808   -0.00983
 43 Ir   -0.10480    0.04037   -0.00499
 44 Ir   -0.11947   -0.02978   -0.12250
 45 O    -0.10922   -0.03291    0.20448

System changes: positions 

Initializing position-dependent things.

Density initialized from wave functions
                                             
                                             
                                             
                                             
                                             
                                             
                  Ag          O              
                         Ir    Ir            
             Pd    RPd    PIr    Ir          
                     Ag                      
        Ir    Pt    Pd     Pd                
               Pd     Ag                     
        Ir           Ir     Ir     Pt        
                Ag      Ru    Pd             
                                             
           Pt     Ag    PPd    Ir            
                                             
             Pt    Pt    PPt    Ru           
        Ag    Ag    IAg    Pt                
                                             
         Pd    Ir     Ru                     
                                             
                                             
                                             
                                             
                                             

Positions:
   0 Pd     0.000000    1.624086   10.000000    ( 0.0000,  0.0000,  0.0000)
   1 Ir     2.812999    1.624086   10.000000    ( 0.0000,  0.0000,  0.0000)
   2 Ru     5.625998    1.624086   10.000000    ( 0.0000,  0.0000,  0.0000)
   3 Ru     1.406500    4.060215   10.000000    ( 0.0000,  0.0000,  0.0000)
   4 Ir     4.219499    4.060215   10.000000    ( 0.0000,  0.0000,  0.0000)
   5 Pt     7.032498    4.060215   10.000000    ( 0.0000,  0.0000,  0.0000)
   6 Pd     2.812999    6.496343   10.000000    ( 0.0000,  0.0000,  0.0000)
   7 Pd     5.625998    6.496343   10.000000    ( 0.0000,  0.0000,  0.0000)
   8 Ru     8.438997    6.496343   10.000000    ( 0.0000,  0.0000,  0.0000)
   9 Ag     0.000000    0.000000   12.296804    ( 0.0000,  0.0000,  0.0000)
  10 Ag     2.812999    0.000000   12.296804    ( 0.0000,  0.0000,  0.0000)
  11 Ag     5.625998    0.000000   12.296804    ( 0.0000,  0.0000,  0.0000)
  12 Pt     1.406500    2.436129   12.296804    ( 0.0000,  0.0000,  0.0000)
  13 Pt     4.219499    2.436129   12.296804    ( 0.0000,  0.0000,  0.0000)
  14 Pt     7.032498    2.436129   12.296804    ( 0.0000,  0.0000,  0.0000)
  15 Ru     2.812999    4.872257   12.296804    ( 0.0000,  0.0000,  0.0000)
  16 Pt     5.625998    4.872257   12.296804    ( 0.0000,  0.0000,  0.0000)
  17 Ir     8.438997    4.872257   12.296804    ( 0.0000,  0.0000,  0.0000)
  18 Pt     1.319491    0.741526   14.654718    ( 0.0000,  0.0000,  0.0000)
  19 Ag     4.174021    0.782143   14.659975    ( 0.0000,  0.0000,  0.0000)
  20 Pd     6.989978    0.845126   14.624110    ( 0.0000,  0.0000,  0.0000)
  21 Ag     2.794075    3.193313   14.645528    ( 0.0000,  0.0000,  0.0000)
  22 Ru     5.661792    3.359820   14.476164    ( 0.0000,  0.0000,  0.0000)
  23 Pd     8.437781    3.195781   14.585325    ( 0.0000,  0.0000,  0.0000)
  24 Ir     4.198628    5.602872   14.561243    ( 0.0000,  0.0000,  0.0000)
  25 Ir     7.030855    5.558536   14.575502    ( 0.0000,  0.0000,  0.0000)
  26 Pt     9.848009    5.653159   14.601099    ( 0.0000,  0.0000,  0.0000)
  27 Ir    -0.097104    1.491363   16.948206    ( 0.0000,  0.0000,  0.0000)
  28 Pd     2.744459    1.579272   16.981662    ( 0.0000,  0.0000,  0.0000)
  29 Ag     5.540511    1.600463   16.933005    ( 0.0000,  0.0000,  0.0000)
  30 Pd     1.385683    4.017260   16.984979    ( 0.0000,  0.0000,  0.0000)
  31 Pd     4.201294    4.096078   16.878750    ( 0.0000,  0.0000,  0.0000)
  32 Pd     7.038855    3.969936   16.791095    ( 0.0000,  0.0000,  0.0000)
  33 Ru     2.831927    6.517323   16.750762    ( 0.0000,  0.0000,  0.0000)
  34 Pd     5.674846    6.447544   16.771527    ( 0.0000,  0.0000,  0.0000)
  35 Ir     8.567209    6.364827   16.937371    ( 0.0000,  0.0000,  0.0000)
  36 Ir     0.076246   -0.114432   18.956940    ( 0.0000,  0.0000,  0.0000)
  37 Pt     2.849220   -0.110241   19.119859    ( 0.0000,  0.0000,  0.0000)
  38 Ag     5.686240    0.000137   19.401556    ( 0.0000,  0.0000,  0.0000)
  39 Pd     1.443697    2.310451   19.299924    ( 0.0000,  0.0000,  0.0000)
  40 Pd     4.352357    2.519034   19.254501    ( 0.0000,  0.0000,  0.0000)
  41 Ir     7.208586    2.433951   19.102302    ( 0.0000,  0.0000,  0.0000)
  42 Ag     2.807333    4.865803   19.368979    ( 0.0000,  0.0000,  0.0000)
  43 Ir     5.650435    4.951046   19.035099    ( 0.0000,  0.0000,  0.0000)
  44 Ir     8.272268    4.858177   19.105400    ( 0.0000,  0.0000,  0.0000)
  45 O      8.241489    3.361037   20.495856    ( 0.0000,  0.0000,  0.0000)

Unit cell:
           periodic     x           y           z      points  spacing
  1. axis:    yes    8.465341    0.000000    0.000000    35     0.2095
  2. axis:    yes    4.232670    7.331200    0.000000    35     0.2095
  3. axis:    no     0.000000    0.000000   29.187217   135     0.2162

  Lengths:   8.465341   8.465341  29.187217
  Angles:   90.000000  90.000000  60.000000

Effective grid spacing dv^(1/3) = 0.2221

                     log10-error:    total        iterations:
           time      wfs    density  energy       fermi  poisson
iter:   1  17:30:31  -2.50   +inf  -236.167738    3             
iter:   2  17:31:45  -2.48  -2.36  -248.673327    3             
iter:   3  17:32:59  -2.64  -1.61  -236.091865    2             
iter:   4  17:34:13  -3.52  -2.31  -235.754603    3             
iter:   5  17:35:27  -4.25  -2.62  -235.635366    3             
iter:   6  17:36:40  -4.71  -3.09  -235.626037    3             
iter:   7  17:37:54  -5.10  -3.24  -235.623353    2             
iter:   8  17:39:09  -5.07  -3.31  -235.620993    2             
iter:   9  17:40:23  -5.08  -3.34  -235.647929    2             
iter:  10  17:41:37  -5.19  -2.94  -235.622284    2             
iter:  11  17:42:51  -5.37  -3.32  -235.619711    3             
iter:  12  17:44:05  -5.67  -3.39  -235.619272    2             
iter:  13  17:45:19  -5.84  -3.66  -235.618894    2             
iter:  14  17:46:33  -6.31  -3.67  -235.618806    2             
iter:  15  17:47:46  -5.93  -3.77  -235.622694    2             
iter:  16  17:49:00  -6.28  -3.42  -235.619204    2             
iter:  17  17:50:13  -6.71  -3.78  -235.618561    2             
iter:  18  17:51:27  -6.34  -3.87  -235.619342    2             
iter:  19  17:52:41  -6.72  -4.01  -235.618998    2             
iter:  20  17:53:56  -6.71  -4.22  -235.619084    2             
iter:  21  17:55:11  -6.96  -4.24  -235.619078    2             
iter:  22  17:56:25  -7.00  -4.24  -235.618950    2             
iter:  23  17:57:39  -7.01  -3.97  -235.618570    2             
iter:  24  17:58:53  -7.61  -4.36  -235.618911    2             

Converged after 24 iterations.

Dipole moment: (17.086861, 19.994015, -0.087650) |e|*Ang

Energy contributions relative to reference atoms: (reference = -12877847.605335)

Kinetic:       -224.302122
Potential:     +100.077027
External:        +0.000000
XC:            -103.379357
Entropy (-ST):   -2.225441
Local:           -6.901739
--------------------------
Free energy:   -236.731631
Extrapolated:  -235.618911

Fermi level: 1.01756

Showing only first 2 kpts
 Kpt  Band  Eigenvalues  Occupancy
  0   359      0.98024    0.14806
  0   360      1.02249    0.12192
  0   361      1.03869    0.11185
  0   362      1.06884    0.09363

  1   359      0.89969    0.19118
  1   360      0.92616    0.17846
  1   361      0.93377    0.17451
  1   362      0.97890    0.14887



Forces in eV/Ang:
  0 Pd   -0.12193    0.32321   -0.35628
  1 Ir    0.96091    0.69264    0.62046
  2 Ru   -1.08107    0.28856    0.68738
  3 Ru    0.42752    0.29284    1.60055
  4 Ir   -0.56663   -0.79285    1.17571
  5 Pt    0.14912    0.16211    0.05274
  6 Pd   -0.49678   -0.41907   -0.24499
  7 Pd    0.38633   -0.26307   -0.57630
  8 Ru    0.34313   -0.15611    0.56167
  9 Ag   -0.25743   -0.09728    0.04405
 10 Ag   -0.02100   -0.12746    0.11476
 11 Ag    0.05904   -0.17240   -0.10718
 12 Pt    0.05229    0.77068   -0.51077
 13 Pt    0.12198    0.55389   -0.71415
 14 Pt   -0.09394    0.18324   -0.13861
 15 Ru   -0.38887   -0.73563   -0.96400
 16 Pt   -0.38798    0.12040   -0.03098
 17 Ir    0.89444   -0.12821   -0.99089
 18 Pt    0.02094   -0.04898   -0.01701
 19 Ag   -0.02598   -0.00819   -0.07721
 20 Pd   -0.01564   -0.02442   -0.00709
 21 Ag   -0.01201   -0.01596    0.01101
 22 Ru   -0.02763   -0.00360   -0.03789
 23 Pd    0.01665   -0.01691   -0.00356
 24 Ir    0.00393   -0.00661   -0.01001
 25 Ir   -0.00732    0.02010   -0.04126
 26 Pt    0.00185   -0.02034   -0.01203
 27 Ir    0.07014   -0.06079   -0.05398
 28 Pd   -0.03853    0.02259    0.05685
 29 Ag    0.06916    0.01663    0.05099
 30 Pd    0.03340   -0.04936    0.00821
 31 Pd   -0.03733   -0.01652   -0.00016
 32 Pd   -0.04236   -0.02965   -0.03454
 33 Ru    0.00449   -0.02818    0.00293
 34 Pd    0.00090    0.00244   -0.01819
 35 Ir   -0.00611   -0.08935    0.06458
 36 Ir   -0.02625   -0.03858   -0.01077
 37 Pt    0.00805    0.01835   -0.04230
 38 Ag    0.03192   -0.02446   -0.01467
 39 Pd    0.10341   -0.04867    0.02787
 40 Pd    0.03143   -0.02412   -0.01968
 41 Ir   -0.05355   -0.10430    0.15433
 42 Ag   -0.03513   -0.06306   -0.00380
 43 Ir   -0.05489    0.08185   -0.02359
 44 Ir    0.02898   -0.04149    0.14873
 45 O    -0.09052    0.05697   -0.24388

System changes: positions 

Initializing position-dependent things.

Density initialized from wave functions
                                             
                                             
                                             
                                             
                                             
                                             
                  Ag          O              
                         Ir    Ir            
             Pd    RPd    PIr    Ir          
                     Ag                      
        Ir    Pt    Pd     Pd                
               Pd     Ag                     
        Ir           Ir     Ir     Pt        
                Ag      Ru    Pd             
                                             
           Pt     Ag    PPd    Ir            
                                             
             Pt    Pt    PPt    Ru           
       Ag     Ag    IAg    Pt                
                                             
         Pd    Ir     Ru                     
                                             
                                             
                                             
                                             
                                             

Positions:
   0 Pd     0.000000    1.624086   10.000000    ( 0.0000,  0.0000,  0.0000)
   1 Ir     2.812999    1.624086   10.000000    ( 0.0000,  0.0000,  0.0000)
   2 Ru     5.625998    1.624086   10.000000    ( 0.0000,  0.0000,  0.0000)
   3 Ru     1.406500    4.060215   10.000000    ( 0.0000,  0.0000,  0.0000)
   4 Ir     4.219499    4.060215   10.000000    ( 0.0000,  0.0000,  0.0000)
   5 Pt     7.032498    4.060215   10.000000    ( 0.0000,  0.0000,  0.0000)
   6 Pd     2.812999    6.496343   10.000000    ( 0.0000,  0.0000,  0.0000)
   7 Pd     5.625998    6.496343   10.000000    ( 0.0000,  0.0000,  0.0000)
   8 Ru     8.438997    6.496343   10.000000    ( 0.0000,  0.0000,  0.0000)
   9 Ag     0.000000    0.000000   12.296804    ( 0.0000,  0.0000,  0.0000)
  10 Ag     2.812999    0.000000   12.296804    ( 0.0000,  0.0000,  0.0000)
  11 Ag     5.625998    0.000000   12.296804    ( 0.0000,  0.0000,  0.0000)
  12 Pt     1.406500    2.436129   12.296804    ( 0.0000,  0.0000,  0.0000)
  13 Pt     4.219499    2.436129   12.296804    ( 0.0000,  0.0000,  0.0000)
  14 Pt     7.032498    2.436129   12.296804    ( 0.0000,  0.0000,  0.0000)
  15 Ru     2.812999    4.872257   12.296804    ( 0.0000,  0.0000,  0.0000)
  16 Pt     5.625998    4.872257   12.296804    ( 0.0000,  0.0000,  0.0000)
  17 Ir     8.438997    4.872257   12.296804    ( 0.0000,  0.0000,  0.0000)
  18 Pt     1.318923    0.738232   14.652562    ( 0.0000,  0.0000,  0.0000)
  19 Ag     4.171162    0.779969   14.655491    ( 0.0000,  0.0000,  0.0000)
  20 Pd     6.987701    0.841714   14.624057    ( 0.0000,  0.0000,  0.0000)
  21 Ag     2.791919    3.191659   14.646314    ( 0.0000,  0.0000,  0.0000)
  22 Ru     5.660078    3.358593   14.475037    ( 0.0000,  0.0000,  0.0000)
  23 Pd     8.437470    3.192900   14.586448    ( 0.0000,  0.0000,  0.0000)
  24 Ir     4.197872    5.601196   14.559590    ( 0.0000,  0.0000,  0.0000)
  25 Ir     7.030712    5.556641   14.573351    ( 0.0000,  0.0000,  0.0000)
  26 Pt     9.846747    5.649455   14.600088    ( 0.0000,  0.0000,  0.0000)
  27 Ir    -0.091444    1.484758   16.945494    ( 0.0000,  0.0000,  0.0000)
  28 Pd     2.743565    1.578516   16.981719    ( 0.0000,  0.0000,  0.0000)
  29 Ag     5.545543    1.600953   16.935556    ( 0.0000,  0.0000,  0.0000)
  30 Pd     1.386662    4.010488   16.990781    ( 0.0000,  0.0000,  0.0000)
  31 Pd     4.199776    4.093901   16.876612    ( 0.0000,  0.0000,  0.0000)
  32 Pd     7.037606    3.967654   16.791949    ( 0.0000,  0.0000,  0.0000)
  33 Ru     2.831618    6.512334   16.750350    ( 0.0000,  0.0000,  0.0000)
  34 Pd     5.676035    6.446857   16.767547    ( 0.0000,  0.0000,  0.0000)
  35 Ir     8.570157    6.359023   16.940703    ( 0.0000,  0.0000,  0.0000)
  36 Ir     0.075605   -0.120993   18.955991    ( 0.0000,  0.0000,  0.0000)
  37 Pt     2.854769   -0.108638   19.114826    ( 0.0000,  0.0000,  0.0000)
  38 Ag     5.692172   -0.004686   19.400909    ( 0.0000,  0.0000,  0.0000)
  39 Pd     1.451108    2.299140   19.303380    ( 0.0000,  0.0000,  0.0000)
  40 Pd     4.360172    2.518176   19.254105    ( 0.0000,  0.0000,  0.0000)
  41 Ir     7.212048    2.419086   19.109427    ( 0.0000,  0.0000,  0.0000)
  42 Ag     2.802802    4.855579   19.367869    ( 0.0000,  0.0000,  0.0000)
  43 Ir     5.641633    4.960154   19.034228    ( 0.0000,  0.0000,  0.0000)
  44 Ir     8.265680    4.853404   19.114390    ( 0.0000,  0.0000,  0.0000)
  45 O      8.222880    3.373274   20.482904    ( 0.0000,  0.0000,  0.0000)

Unit cell:
           periodic     x           y           z      points  spacing
  1. axis:    yes    8.465341    0.000000    0.000000    35     0.2095
  2. axis:    yes    4.232670    7.331200    0.000000    35     0.2095
  3. axis:    no     0.000000    0.000000   29.187217   135     0.2162

  Lengths:   8.465341   8.465341  29.187217
  Angles:   90.000000  90.000000  60.000000

Effective grid spacing dv^(1/3) = 0.2221

                     log10-error:    total        iterations:
           time      wfs    density  energy       fermi  poisson
iter:   1  18:00:40  -3.11   +inf  -235.922268    3             
iter:   2  18:01:54  -2.51  -2.42  -247.567444    4             
iter:   3  18:03:08  -2.77  -1.65  -235.861133    3             
iter:   4  18:04:21  -3.73  -2.51  -235.670938    3             
iter:   5  18:05:35  -4.83  -2.86  -235.645540    2             
iter:   6  18:06:49  -5.04  -3.11  -235.635834    2             
iter:   7  18:08:03  -5.34  -3.32  -235.634155    2             
iter:   8  18:09:17  -5.89  -3.54  -235.633750    2             
iter:   9  18:10:31  -5.59  -3.40  -235.636335    2             
iter:  10  18:11:44  -5.87  -3.36  -235.632576    2             
iter:  11  18:12:58  -5.80  -3.76  -235.633024    2             
iter:  12  18:14:13  -6.07  -3.65  -235.631610    2             
iter:  13  18:15:27  -6.60  -3.92  -235.632139    2             
iter:  14  18:16:42  -6.70  -3.91  -235.631207    2             
iter:  15  18:17:57  -7.13  -4.07  -235.631706    2             
iter:  16  18:19:12  -7.14  -4.00  -235.631417    2             
iter:  17  18:20:27  -7.17  -4.15  -235.631403    2             
iter:  18  18:21:42  -7.14  -4.35  -235.631236    2             
iter:  19  18:22:57  -7.42  -4.28  -235.631469    2             

Converged after 19 iterations.

Dipole moment: (16.714194, 20.089835, -0.077235) |e|*Ang

Energy contributions relative to reference atoms: (reference = -12877847.605335)

Kinetic:       -222.312543
Potential:      +98.343715
External:        +0.000000
XC:            -103.654304
Entropy (-ST):   -2.222362
Local:           -6.897157
--------------------------
Free energy:   -236.742651
Extrapolated:  -235.631469

Fermi level: 1.02360

Showing only first 2 kpts
 Kpt  Band  Eigenvalues  Occupancy
  0   359      0.98528    0.14866
  0   360      1.02792    0.12230
  0   361      1.04392    0.11234
  0   362      1.07535    0.09336

  1   359      0.90599    0.19106
  1   360      0.93251    0.17829
  1   361      0.93901    0.17492
  1   362      0.98336    0.14981



Forces in eV/Ang:
  0 Pd   -0.12205    0.32509   -0.35386
  1 Ir    0.96207    0.69429    0.62482
  2 Ru   -1.08144    0.28938    0.69357
  3 Ru    0.42714    0.29136    1.60235
  4 Ir   -0.56664   -0.79505    1.18152
  5 Pt    0.15061    0.16148    0.05431
  6 Pd   -0.49771   -0.41963   -0.24210
  7 Pd    0.38727   -0.26415   -0.57400
  8 Ru    0.34296   -0.15616    0.56699
  9 Ag   -0.26128   -0.09823    0.03730
 10 Ag   -0.02599   -0.13180    0.09942
 11 Ag    0.06113   -0.17577   -0.11312
 12 Pt    0.05311    0.77196   -0.51304
 13 Pt    0.11897    0.55774   -0.72009
 14 Pt   -0.09559    0.18100   -0.13671
 15 Ru   -0.38986   -0.74071   -0.96711
 16 Pt   -0.38815    0.11782   -0.03770
 17 Ir    0.89530   -0.13647   -0.99380
 18 Pt    0.02071   -0.03441   -0.01408
 19 Ag   -0.00394   -0.00833   -0.00842
 20 Pd   -0.00432   -0.01238   -0.00295
 21 Ag   -0.00497   -0.01537    0.00658
 22 Ru   -0.01922   -0.00381   -0.02754
 23 Pd    0.00684   -0.01382   -0.00548
 24 Ir   -0.00090   -0.01304   -0.00299
 25 Ir   -0.00627    0.00334   -0.02002
 26 Pt    0.00439   -0.01081    0.00240
 27 Ir    0.03612   -0.01954   -0.03101
 28 Pd    0.01441    0.01086    0.01990
 29 Ag    0.02875   -0.02321    0.01787
 30 Pd   -0.00534   -0.02456    0.00561
 31 Pd   -0.01293   -0.01527    0.01098
 32 Pd   -0.02643   -0.02072    0.00314
 33 Ru   -0.00241   -0.01378    0.00196
 34 Pd    0.00714   -0.01579   -0.01020
 35 Ir   -0.00378   -0.03855    0.02707
 36 Ir   -0.05457    0.01014   -0.01257
 37 Pt    0.03452   -0.02845   -0.02727
 38 Ag   -0.00368   -0.03048   -0.01422
 39 Pd    0.08268   -0.02381    0.02500
 40 Pd    0.04649   -0.01866   -0.01535
 41 Ir   -0.12427   -0.17947   -0.00487
 42 Ag   -0.03654   -0.04465    0.00299
 43 Ir   -0.02196    0.00983   -0.02784
 44 Ir   -0.00050    0.12607   -0.04711
 45 O     0.03173   -0.06130    0.13231

System changes: positions 

Initializing position-dependent things.

Density initialized from wave functions
                                             
                                             
                                             
                                             
                                             
                                             
                 Ag           O              
                         Ir    Ir            
             Pd    RPd    PIr    Ir          
                     Ag                      
        Ir    Pt    Pd     Pd                
               Pd     Ag                     
        Ir           Ir     Ir     Pt        
                Ag      Ru    Pd             
                                             
           Pt     Ag    PPd    Ir            
                                             
             Pt    Pt    PPt    Ru           
       Ag     Ag    IAg    Pt                
                                             
         Pd    Ir     Ru                     
                                             
                                             
                                             
                                             
                                             

Positions:
   0 Pd     0.000000    1.624086   10.000000    ( 0.0000,  0.0000,  0.0000)
   1 Ir     2.812999    1.624086   10.000000    ( 0.0000,  0.0000,  0.0000)
   2 Ru     5.625998    1.624086   10.000000    ( 0.0000,  0.0000,  0.0000)
   3 Ru     1.406500    4.060215   10.000000    ( 0.0000,  0.0000,  0.0000)
   4 Ir     4.219499    4.060215   10.000000    ( 0.0000,  0.0000,  0.0000)
   5 Pt     7.032498    4.060215   10.000000    ( 0.0000,  0.0000,  0.0000)
   6 Pd     2.812999    6.496343   10.000000    ( 0.0000,  0.0000,  0.0000)
   7 Pd     5.625998    6.496343   10.000000    ( 0.0000,  0.0000,  0.0000)
   8 Ru     8.438997    6.496343   10.000000    ( 0.0000,  0.0000,  0.0000)
   9 Ag     0.000000    0.000000   12.296804    ( 0.0000,  0.0000,  0.0000)
  10 Ag     2.812999    0.000000   12.296804    ( 0.0000,  0.0000,  0.0000)
  11 Ag     5.625998    0.000000   12.296804    ( 0.0000,  0.0000,  0.0000)
  12 Pt     1.406500    2.436129   12.296804    ( 0.0000,  0.0000,  0.0000)
  13 Pt     4.219499    2.436129   12.296804    ( 0.0000,  0.0000,  0.0000)
  14 Pt     7.032498    2.436129   12.296804    ( 0.0000,  0.0000,  0.0000)
  15 Ru     2.812999    4.872257   12.296804    ( 0.0000,  0.0000,  0.0000)
  16 Pt     5.625998    4.872257   12.296804    ( 0.0000,  0.0000,  0.0000)
  17 Ir     8.438997    4.872257   12.296804    ( 0.0000,  0.0000,  0.0000)
  18 Pt     1.320655    0.732148   14.649975    ( 0.0000,  0.0000,  0.0000)
  19 Ag     4.168744    0.777302   14.652986    ( 0.0000,  0.0000,  0.0000)
  20 Pd     6.985341    0.837725   14.623947    ( 0.0000,  0.0000,  0.0000)
  21 Ag     2.789607    3.188401   14.647928    ( 0.0000,  0.0000,  0.0000)
  22 Ru     5.657089    3.357347   14.471811    ( 0.0000,  0.0000,  0.0000)
  23 Pd     8.437408    3.189262   14.587164    ( 0.0000,  0.0000,  0.0000)
  24 Ir     4.197171    5.598342   14.558243    ( 0.0000,  0.0000,  0.0000)
  25 Ir     7.029850    5.554419   14.570439    ( 0.0000,  0.0000,  0.0000)
  26 Pt     9.845844    5.645383   14.599911    ( 0.0000,  0.0000,  0.0000)
  27 Ir    -0.083331    1.477589   16.939938    ( 0.0000,  0.0000,  0.0000)
  28 Pd     2.746002    1.578733   16.981088    ( 0.0000,  0.0000,  0.0000)
  29 Ag     5.550810    1.597418   16.937596    ( 0.0000,  0.0000,  0.0000)
  30 Pd     1.386909    4.002077   16.996236    ( 0.0000,  0.0000,  0.0000)
  31 Pd     4.197274    4.090625   16.875900    ( 0.0000,  0.0000,  0.0000)
  32 Pd     7.033885    3.963743   16.792055    ( 0.0000,  0.0000,  0.0000)
  33 Ru     2.831343    6.506502   16.750279    ( 0.0000,  0.0000,  0.0000)
  34 Pd     5.677729    6.444468   16.762015    ( 0.0000,  0.0000,  0.0000)
  35 Ir     8.572965    6.352883   16.943582    ( 0.0000,  0.0000,  0.0000)
  36 Ir     0.068892   -0.124722   18.954243    ( 0.0000,  0.0000,  0.0000)
  37 Pt     2.863370   -0.110519   19.108900    ( 0.0000,  0.0000,  0.0000)
  38 Ag     5.696412   -0.012238   19.399375    ( 0.0000,  0.0000,  0.0000)
  39 Pd     1.460530    2.289437   19.311904    ( 0.0000,  0.0000,  0.0000)
  40 Pd     4.371942    2.515968   19.252732    ( 0.0000,  0.0000,  0.0000)
  41 Ir     7.208309    2.391654   19.116978    ( 0.0000,  0.0000,  0.0000)
  42 Ag     2.795217    4.842272   19.367445    ( 0.0000,  0.0000,  0.0000)
  43 Ir     5.631665    4.967488   19.031400    ( 0.0000,  0.0000,  0.0000)
  44 Ir     8.258492    4.858698   19.117874    ( 0.0000,  0.0000,  0.0000)
  45 O      8.211868    3.375149   20.485004    ( 0.0000,  0.0000,  0.0000)

Unit cell:
           periodic     x           y           z      points  spacing
  1. axis:    yes    8.465341    0.000000    0.000000    35     0.2095
  2. axis:    yes    4.232670    7.331200    0.000000    35     0.2095
  3. axis:    no     0.000000    0.000000   29.187217   135     0.2162

  Lengths:   8.465341   8.465341  29.187217
  Angles:   90.000000  90.000000  60.000000

Effective grid spacing dv^(1/3) = 0.2221

                     log10-error:    total        iterations:
           time      wfs    density  energy       fermi  poisson
iter:   1  18:24:44  -2.94   +inf  -235.932625    3             
iter:   2  18:25:58  -2.56  -2.45  -247.507285    3             
iter:   3  18:27:12  -2.80  -1.65  -235.731203    3             
iter:   4  18:28:26  -3.97  -2.75  -235.659778    3             
iter:   5  18:29:40  -4.82  -2.99  -235.646539    3             
iter:   6  18:30:54  -5.16  -3.33  -235.641814    2             
iter:   7  18:32:08  -5.22  -3.43  -235.640922    2             
iter:   8  18:33:22  -5.28  -3.55  -235.639327    2             
iter:   9  18:34:36  -5.80  -3.60  -235.642390    2             
iter:  10  18:35:50  -5.78  -3.44  -235.638911    2             
iter:  11  18:37:05  -6.18  -3.72  -235.639728    2             
iter:  12  18:38:19  -6.29  -3.71  -235.638807    2             
iter:  13  18:39:33  -6.45  -3.90  -235.638979    2             
iter:  14  18:40:47  -6.68  -3.94  -235.638766    2             
iter:  15  18:42:01  -6.44  -3.98  -235.640486    2             
iter:  16  18:43:15  -6.79  -3.65  -235.638707    2             
iter:  17  18:44:29  -6.90  -4.13  -235.639110    2             
iter:  18  18:45:43  -6.97  -4.12  -235.638645    2             
iter:  19  18:46:56  -7.09  -4.13  -235.638774    2             
iter:  20  18:48:11  -7.28  -4.31  -235.638688    2             
iter:  21  18:49:24  -7.26  -4.36  -235.638851    2             
iter:  22  18:50:38  -7.03  -4.23  -235.638356    2             
iter:  23  18:51:51  -7.06  -3.95  -235.638679    2             
iter:  24  18:53:06  -7.58  -4.58  -235.638502    2             

Converged after 24 iterations.

Dipole moment: (16.825451, 20.210948, -0.078140) |e|*Ang

Energy contributions relative to reference atoms: (reference = -12877847.605335)

Kinetic:       -223.128793
Potential:      +99.069373
External:        +0.000000
XC:            -103.557459
Entropy (-ST):   -2.222827
Local:           -6.910210
--------------------------
Free energy:   -236.749916
Extrapolated:  -235.638502

Fermi level: 1.02291

Showing only first 2 kpts
 Kpt  Band  Eigenvalues  Occupancy
  0   359      0.98475    0.14856
  0   360      1.02751    0.12213
  0   361      1.04099    0.11373
  0   362      1.07480    0.09328

  1   359      0.90504    0.19118
  1   360      0.93232    0.17804
  1   361      0.93777    0.17522
  1   362      0.98122    0.15069



Forces in eV/Ang:
  0 Pd   -0.12237    0.32439   -0.35712
  1 Ir    0.96152    0.69343    0.62052
  2 Ru   -1.08070    0.29012    0.68828
  3 Ru    0.42591    0.29112    1.59733
  4 Ir   -0.56573   -0.79372    1.17795
  5 Pt    0.15250    0.16173    0.05044
  6 Pd   -0.49720   -0.41932   -0.24327
  7 Pd    0.38733   -0.26358   -0.57537
  8 Ru    0.34362   -0.15658    0.56355
  9 Ag   -0.26588   -0.10004    0.02870
 10 Ag   -0.02453   -0.13499    0.08183
 11 Ag    0.05953   -0.18035   -0.11609
 12 Pt    0.05581    0.76831   -0.51766
 13 Pt    0.11158    0.55351   -0.72377
 14 Pt   -0.09482    0.17426   -0.14039
 15 Ru   -0.39283   -0.74601   -0.97168
 16 Pt   -0.39186    0.12346   -0.05859
 17 Ir    0.89686   -0.14157   -0.99723
 18 Pt    0.00399   -0.00378   -0.01353
 19 Ag    0.02120   -0.00785    0.02306
 20 Pd    0.00591   -0.01092   -0.00628
 21 Ag   -0.00076   -0.01181   -0.00824
 22 Ru   -0.00572   -0.01950   -0.00030
 23 Pd   -0.00248   -0.01745   -0.00084
 24 Ir   -0.01507   -0.01709   -0.00490
 25 Ir    0.01478   -0.01613   -0.01535
 26 Pt   -0.00428   -0.00738    0.00740
 27 Ir   -0.00773    0.02509    0.00939
 28 Pd    0.02428   -0.01210    0.02345
 29 Ag    0.00879   -0.04976   -0.01672
 30 Pd   -0.04195   -0.02348    0.01136
 31 Pd   -0.00127   -0.01199    0.01574
 32 Pd   -0.00337   -0.02532    0.03002
 33 Ru   -0.00066   -0.00862   -0.00094
 34 Pd    0.00044   -0.02198    0.03384
 35 Ir    0.00317   -0.02303   -0.01346
 36 Ir   -0.03615    0.00786   -0.02451
 37 Pt   -0.01498    0.00561   -0.01573
 38 Ag   -0.02840   -0.04260    0.00583
 39 Pd    0.01183   -0.02579    0.01588
 40 Pd    0.03834   -0.01928   -0.00216
 41 Ir    0.11975   -0.00079    0.06134
 42 Ag   -0.00665   -0.01829    0.00983
 43 Ir   -0.00787    0.00222   -0.00841
 44 Ir   -0.05320   -0.12929    0.02521
 45 O    -0.00591   -0.07197   -0.07080

System changes: positions 

Initializing position-dependent things.

Density initialized from wave functions
                                             
                                             
                                             
                                             
                                             
                                             
                 Ag           O              
                        Ir     Ir            
             Pd    RPd    PIr    Ir          
                     Ag                      
        Ir   PPt    Pd     Pd                
               Pd     Ag                     
        Ir           Ir     Ir     Pt        
                Ag     Ru     Pd             
                                             
           Pt     Ag    PPd    Ir            
                                             
             Pt    Pt    PPt    Ru           
       Ag     Ag    IAg    Pt                
                                             
         Pd    Ir     Ru                     
                                             
                                             
                                             
                                             
                                             

Positions:
   0 Pd     0.000000    1.624086   10.000000    ( 0.0000,  0.0000,  0.0000)
   1 Ir     2.812999    1.624086   10.000000    ( 0.0000,  0.0000,  0.0000)
   2 Ru     5.625998    1.624086   10.000000    ( 0.0000,  0.0000,  0.0000)
   3 Ru     1.406500    4.060215   10.000000    ( 0.0000,  0.0000,  0.0000)
   4 Ir     4.219499    4.060215   10.000000    ( 0.0000,  0.0000,  0.0000)
   5 Pt     7.032498    4.060215   10.000000    ( 0.0000,  0.0000,  0.0000)
   6 Pd     2.812999    6.496343   10.000000    ( 0.0000,  0.0000,  0.0000)
   7 Pd     5.625998    6.496343   10.000000    ( 0.0000,  0.0000,  0.0000)
   8 Ru     8.438997    6.496343   10.000000    ( 0.0000,  0.0000,  0.0000)
   9 Ag     0.000000    0.000000   12.296804    ( 0.0000,  0.0000,  0.0000)
  10 Ag     2.812999    0.000000   12.296804    ( 0.0000,  0.0000,  0.0000)
  11 Ag     5.625998    0.000000   12.296804    ( 0.0000,  0.0000,  0.0000)
  12 Pt     1.406500    2.436129   12.296804    ( 0.0000,  0.0000,  0.0000)
  13 Pt     4.219499    2.436129   12.296804    ( 0.0000,  0.0000,  0.0000)
  14 Pt     7.032498    2.436129   12.296804    ( 0.0000,  0.0000,  0.0000)
  15 Ru     2.812999    4.872257   12.296804    ( 0.0000,  0.0000,  0.0000)
  16 Pt     5.625998    4.872257   12.296804    ( 0.0000,  0.0000,  0.0000)
  17 Ir     8.438997    4.872257   12.296804    ( 0.0000,  0.0000,  0.0000)
  18 Pt     1.321723    0.725328   14.644722    ( 0.0000,  0.0000,  0.0000)
  19 Ag     4.168081    0.772616   14.652877    ( 0.0000,  0.0000,  0.0000)
  20 Pd     6.983028    0.831307   14.623261    ( 0.0000,  0.0000,  0.0000)
  21 Ag     2.786324    3.183418   14.648480    ( 0.0000,  0.0000,  0.0000)
  22 Ru     5.653237    3.353142   14.469054    ( 0.0000,  0.0000,  0.0000)
  23 Pd     8.436456    3.182291   14.588363    ( 0.0000,  0.0000,  0.0000)
  24 Ir     4.193960    5.592629   14.555587    ( 0.0000,  0.0000,  0.0000)
  25 Ir     7.031032    5.548612   14.565476    ( 0.0000,  0.0000,  0.0000)
  26 Pt     9.843732    5.638860   14.600338    ( 0.0000,  0.0000,  0.0000)
  27 Ir    -0.074933    1.471724   16.935768    ( 0.0000,  0.0000,  0.0000)
  28 Pd     2.752159    1.576168   16.981891    ( 0.0000,  0.0000,  0.0000)
  29 Ag     5.558059    1.587750   16.937556    ( 0.0000,  0.0000,  0.0000)
  30 Pd     1.381287    3.988628   17.006568    ( 0.0000,  0.0000,  0.0000)
  31 Pd     4.195120    4.085162   16.875928    ( 0.0000,  0.0000,  0.0000)
  32 Pd     7.030276    3.956386   16.797694    ( 0.0000,  0.0000,  0.0000)
  33 Ru     2.830611    6.497786   16.749681    ( 0.0000,  0.0000,  0.0000)
  34 Pd     5.680159    6.438807   16.759389    ( 0.0000,  0.0000,  0.0000)
  35 Ir     8.578028    6.343137   16.944981    ( 0.0000,  0.0000,  0.0000)
  36 Ir     0.058195   -0.129367   18.949515    ( 0.0000,  0.0000,  0.0000)
[...]
  26 Pt     9.843612    5.617900   14.601501    ( 0.0000,  0.0000,  0.0000)
  27 Ir    -0.056766    1.460496   16.907106    ( 0.0000,  0.0000,  0.0000)
  28 Pd     2.776307    1.540130   16.992703    ( 0.0000,  0.0000,  0.0000)
  29 Ag     5.574852    1.531779   16.947989    ( 0.0000,  0.0000,  0.0000)
  30 Pd     1.355105    3.942657   17.014604    ( 0.0000,  0.0000,  0.0000)
  31 Pd     4.187287    4.051154   16.883299    ( 0.0000,  0.0000,  0.0000)
  32 Pd     7.008131    3.916574   16.807279    ( 0.0000,  0.0000,  0.0000)
  33 Ru     2.835433    6.464519   16.737126    ( 0.0000,  0.0000,  0.0000)
  34 Pd     5.673799    6.412863   16.757950    ( 0.0000,  0.0000,  0.0000)
  35 Ir     8.551534    6.293413   16.934566    ( 0.0000,  0.0000,  0.0000)
  36 Ir     0.034500   -0.148864   18.939193    ( 0.0000,  0.0000,  0.0000)
  37 Pt     2.851159   -0.167456   19.102294    ( 0.0000,  0.0000,  0.0000)
  38 Ag     5.651518   -0.102815   19.409957    ( 0.0000,  0.0000,  0.0000)
  39 Pd     1.535044    2.230675   19.336948    ( 0.0000,  0.0000,  0.0000)
  40 Pd     4.470221    2.512304   19.264633    ( 0.0000,  0.0000,  0.0000)
  41 Ir     7.283488    2.215906   19.176480    ( 0.0000,  0.0000,  0.0000)
  42 Ag     2.797360    4.782097   19.372371    ( 0.0000,  0.0000,  0.0000)
  43 Ir     5.583009    4.956215   19.044417    ( 0.0000,  0.0000,  0.0000)
  44 Ir     8.187525    4.761153   19.130793    ( 0.0000,  0.0000,  0.0000)
  45 O      8.234835    3.317579   20.489066    ( 0.0000,  0.0000,  0.0000)

Unit cell:
           periodic     x           y           z      points  spacing
  1. axis:    yes    8.465341    0.000000    0.000000    35     0.2095
  2. axis:    yes    4.232670    7.331200    0.000000    35     0.2095
  3. axis:    no     0.000000    0.000000   29.187217   135     0.2162

  Lengths:   8.465341   8.465341  29.187217
  Angles:   90.000000  90.000000  60.000000

Effective grid spacing dv^(1/3) = 0.2221

                     log10-error:    total        iterations:
           time      wfs    density  energy       fermi  poisson
iter:   1  21:03:59  -2.65   +inf  -235.807793    3             
iter:   2  21:05:14  -3.20  -2.59  -237.055799    3             
iter:   3  21:06:28  -3.35  -2.08  -236.109733    2             
iter:   4  21:07:43  -3.89  -2.36  -235.702745    3             
iter:   5  21:08:57  -4.78  -2.88  -235.680010    3             
iter:   6  21:10:11  -5.03  -3.16  -235.676149    2             
iter:   7  21:11:25  -4.84  -3.19  -235.672355    2             
iter:   8  21:12:39  -5.11  -3.47  -235.672264    2             
iter:   9  21:13:52  -5.60  -3.59  -235.673501    2             
iter:  10  21:15:06  -5.58  -3.33  -235.673141    2             
iter:  11  21:16:20  -5.80  -3.44  -235.672891    2             
iter:  12  21:17:34  -6.25  -3.63  -235.671207    2             
iter:  13  21:18:43  -6.49  -3.81  -235.671697    2             
iter:  14  21:19:56  -6.57  -3.86  -235.671655    2             
iter:  15  21:21:09  -6.49  -3.92  -235.671557    2             
iter:  16  21:22:22  -6.67  -3.78  -235.671549    2             
iter:  17  21:23:36  -6.83  -3.91  -235.671979    2             
iter:  18  21:24:49  -6.84  -4.04  -235.671399    2             
iter:  19  21:26:03  -7.13  -4.07  -235.671662    2             
iter:  20  21:27:17  -7.21  -4.26  -235.671621    2             
iter:  21  21:28:31  -7.38  -4.36  -235.671543    2             
iter:  22  21:29:44  -7.31  -4.25  -235.671569    2             
iter:  23  21:30:58  -7.31  -4.26  -235.671880    2             
iter:  24  21:32:11  -7.52  -4.25  -235.671495    2             

Converged after 24 iterations.

Dipole moment: (16.948100, 23.679882, -0.053997) |e|*Ang

Energy contributions relative to reference atoms: (reference = -12877847.605335)

Kinetic:       -220.174192
Potential:      +96.441131
External:        +0.000000
XC:            -103.904951
Entropy (-ST):   -2.207160
Local:           -6.929904
--------------------------
Free energy:   -236.775075
Extrapolated:  -235.671495

Fermi level: 1.03506

Showing only first 2 kpts
 Kpt  Band  Eigenvalues  Occupancy
  0   359      1.00229    0.14530
  0   360      1.03196    0.12694
  0   361      1.05337    0.11359
  0   362      1.09215    0.09026

  1   359      0.92000    0.18991
  1   360      0.93583    0.18239
  1   361      0.95516    0.17244
  1   362      0.99001    0.15270



Forces in eV/Ang:
  0 Pd   -0.12386    0.32601   -0.35932
  1 Ir    0.96186    0.69553    0.61608
  2 Ru   -1.08388    0.29535    0.68922
  3 Ru    0.42048    0.28671    1.59933
  4 Ir   -0.56924   -0.79708    1.17243
  5 Pt    0.15234    0.16228    0.04677
  6 Pd   -0.49752   -0.42087   -0.23735
  7 Pd    0.38748   -0.26377   -0.57136
  8 Ru    0.34385   -0.15280    0.57366
  9 Ag   -0.24649   -0.12714    0.04117
 10 Ag   -0.01023   -0.15865    0.12229
 11 Ag    0.05164   -0.20423   -0.10638
 12 Pt    0.05932    0.75030   -0.52042
 13 Pt    0.10556    0.51889   -0.70211
 14 Pt   -0.09347    0.15086   -0.14595
 15 Ru   -0.38282   -0.77678   -0.97104
 16 Pt   -0.38087    0.07409   -0.02000
 17 Ir    0.88263   -0.19153   -1.00690
 18 Pt    0.00297    0.00185   -0.05815
 19 Ag   -0.00379    0.02245   -0.03891
 20 Pd   -0.03358    0.01601   -0.00189
 21 Ag   -0.00110   -0.01501    0.00868
 22 Ru   -0.00447   -0.00483   -0.02460
 23 Pd    0.02996    0.00485   -0.01498
 24 Ir   -0.00481    0.01101   -0.03629
 25 Ir   -0.00366    0.01703   -0.05765
 26 Pt    0.01293    0.00145   -0.01286
 27 Ir    0.02147   -0.04957    0.08967
 28 Pd   -0.02210   -0.01976    0.02634
 29 Ag    0.00277    0.00506    0.04234
 30 Pd    0.06624    0.02098    0.00695
 31 Pd    0.01056   -0.04797   -0.01542
 32 Pd    0.01327   -0.05437    0.05054
 33 Ru   -0.01470   -0.00308    0.03963
 34 Pd   -0.03124   -0.04501    0.07596
 35 Ir    0.00992    0.00926    0.07245
 36 Ir    0.02980    0.02314   -0.01245
 37 Pt    0.01811   -0.07706   -0.01074
 38 Ag   -0.01542   -0.02126   -0.03136
 39 Pd   -0.00309    0.04028   -0.04099
 40 Pd   -0.03866   -0.06764    0.03772
 41 Ir    0.01424   -0.03118    0.01538
 42 Ag   -0.06431    0.00230   -0.01175
 43 Ir    0.06766    0.08191   -0.05957
 44 Ir    0.00130    0.15976   -0.09106
 45 O    -0.10997   -0.13044    0.06668

System changes: positions 

Initializing position-dependent things.

Density initialized from wave functions
                                             
                                             
                                             
                                             
                                             
                                             
                 Ag           O              
                        Ir     Ir            
             Pd    RPd    PIr    Ir          
                     Ag                      
       Ir    PPt    Pd     Pd                
               Pd     Ag                     
        Ir           Ir     Ir     Pt        
                Ag     Ru     Pd             
                                             
           Pt     Ag    PPd    Ir            
                                             
            Pt     Pt    PPt    Ru           
       Ag     Ag    IAg    Pt                
                                             
         Pd    Ir     Ru                     
                                             
                                             
                                             
                                             
                                             

Positions:
   0 Pd     0.000000    1.624086   10.000000    ( 0.0000,  0.0000,  0.0000)
   1 Ir     2.812999    1.624086   10.000000    ( 0.0000,  0.0000,  0.0000)
   2 Ru     5.625998    1.624086   10.000000    ( 0.0000,  0.0000,  0.0000)
   3 Ru     1.406500    4.060215   10.000000    ( 0.0000,  0.0000,  0.0000)
   4 Ir     4.219499    4.060215   10.000000    ( 0.0000,  0.0000,  0.0000)
   5 Pt     7.032498    4.060215   10.000000    ( 0.0000,  0.0000,  0.0000)
   6 Pd     2.812999    6.496343   10.000000    ( 0.0000,  0.0000,  0.0000)
   7 Pd     5.625998    6.496343   10.000000    ( 0.0000,  0.0000,  0.0000)
   8 Ru     8.438997    6.496343   10.000000    ( 0.0000,  0.0000,  0.0000)
   9 Ag     0.000000    0.000000   12.296804    ( 0.0000,  0.0000,  0.0000)
  10 Ag     2.812999    0.000000   12.296804    ( 0.0000,  0.0000,  0.0000)
  11 Ag     5.625998    0.000000   12.296804    ( 0.0000,  0.0000,  0.0000)
  12 Pt     1.406500    2.436129   12.296804    ( 0.0000,  0.0000,  0.0000)
  13 Pt     4.219499    2.436129   12.296804    ( 0.0000,  0.0000,  0.0000)
  14 Pt     7.032498    2.436129   12.296804    ( 0.0000,  0.0000,  0.0000)
  15 Ru     2.812999    4.872257   12.296804    ( 0.0000,  0.0000,  0.0000)
  16 Pt     5.625998    4.872257   12.296804    ( 0.0000,  0.0000,  0.0000)
  17 Ir     8.438997    4.872257   12.296804    ( 0.0000,  0.0000,  0.0000)
  18 Pt     1.331903    0.706654   14.649353    ( 0.0000,  0.0000,  0.0000)
  19 Ag     4.179899    0.752098   14.663838    ( 0.0000,  0.0000,  0.0000)
  20 Pd     6.994398    0.808281   14.616452    ( 0.0000,  0.0000,  0.0000)
  21 Ag     2.783347    3.162363   14.652353    ( 0.0000,  0.0000,  0.0000)
  22 Ru     5.652440    3.338060   14.472035    ( 0.0000,  0.0000,  0.0000)
  23 Pd     8.429640    3.164392   14.593541    ( 0.0000,  0.0000,  0.0000)
  24 Ir     4.191261    5.570456   14.558755    ( 0.0000,  0.0000,  0.0000)
  25 Ir     7.036451    5.527725   14.572675    ( 0.0000,  0.0000,  0.0000)
  26 Pt     9.841887    5.616765   14.601544    ( 0.0000,  0.0000,  0.0000)
  27 Ir    -0.054081    1.461957   16.908130    ( 0.0000,  0.0000,  0.0000)
  28 Pd     2.776409    1.546699   16.990966    ( 0.0000,  0.0000,  0.0000)
  29 Ag     5.577313    1.534128   16.944574    ( 0.0000,  0.0000,  0.0000)
  30 Pd     1.352966    3.939664   17.019821    ( 0.0000,  0.0000,  0.0000)
  31 Pd     4.186465    4.053402   16.882032    ( 0.0000,  0.0000,  0.0000)
  32 Pd     7.008308    3.917534   16.808383    ( 0.0000,  0.0000,  0.0000)
  33 Ru     2.834577    6.465253   16.738849    ( 0.0000,  0.0000,  0.0000)
  34 Pd     5.676697    6.414578   16.756668    ( 0.0000,  0.0000,  0.0000)
  35 Ir     8.558918    6.295165   16.937127    ( 0.0000,  0.0000,  0.0000)
  36 Ir     0.031445   -0.147147   18.936279    ( 0.0000,  0.0000,  0.0000)
  37 Pt     2.860784   -0.159757   19.096323    ( 0.0000,  0.0000,  0.0000)
  38 Ag     5.656758   -0.102920   19.408337    ( 0.0000,  0.0000,  0.0000)
  39 Pd     1.533505    2.224189   19.341754    ( 0.0000,  0.0000,  0.0000)
  40 Pd     4.471157    2.509309   19.261164    ( 0.0000,  0.0000,  0.0000)
  41 Ir     7.283265    2.218943   19.174821    ( 0.0000,  0.0000,  0.0000)
  42 Ag     2.788445    4.776627   19.372724    ( 0.0000,  0.0000,  0.0000)
  43 Ir     5.580714    4.967505   19.040190    ( 0.0000,  0.0000,  0.0000)
  44 Ir     8.184216    4.769130   19.130590    ( 0.0000,  0.0000,  0.0000)
  45 O      8.225146    3.318934   20.489213    ( 0.0000,  0.0000,  0.0000)

Unit cell:
           periodic     x           y           z      points  spacing
  1. axis:    yes    8.465341    0.000000    0.000000    35     0.2095
  2. axis:    yes    4.232670    7.331200    0.000000    35     0.2095
  3. axis:    no     0.000000    0.000000   29.187217   135     0.2162

  Lengths:   8.465341   8.465341  29.187217
  Angles:   90.000000  90.000000  60.000000

Effective grid spacing dv^(1/3) = 0.2221

                     log10-error:    total        iterations:
           time      wfs    density  energy       fermi  poisson
iter:   1  21:33:57  -3.44   +inf  -235.760763    3             
iter:   2  21:35:11  -3.12  -2.73  -239.115858    3             
iter:   3  21:36:25  -3.34  -1.89  -235.688739    2             
iter:   4  21:37:37  -4.73  -3.09  -235.680225    2             
iter:   5  21:38:49  -5.44  -3.41  -235.675560    3             
iter:   6  21:40:04  -5.87  -3.55  -235.675227    2             
iter:   7  21:41:17  -5.75  -3.70  -235.674267    2             
iter:   8  21:42:30  -5.73  -3.82  -235.674524    2             
iter:   9  21:43:44  -6.16  -3.98  -235.674159    2             
iter:  10  21:44:58  -6.63  -3.91  -235.674770    2             
iter:  11  21:46:11  -6.90  -3.96  -235.674133    2             
iter:  12  21:47:24  -7.02  -4.10  -235.674458    2             
iter:  13  21:48:38  -7.14  -4.12  -235.674184    2             
iter:  14  21:49:52  -7.25  -4.27  -235.674303    2             
iter:  15  21:51:06  -7.57  -4.35  -235.674162    2             

Converged after 15 iterations.

Dipole moment: (17.052988, 23.384673, -0.053966) |e|*Ang

Energy contributions relative to reference atoms: (reference = -12877847.605335)

Kinetic:       -219.345437
Potential:      +95.716996
External:        +0.000000
XC:            -104.014757
Entropy (-ST):   -2.204867
Local:           -6.928530
--------------------------
Free energy:   -236.776596
Extrapolated:  -235.674162

Fermi level: 1.03560

Showing only first 2 kpts
 Kpt  Band  Eigenvalues  Occupancy
  0   359      1.00182    0.14591
  0   360      1.03286    0.12671
  0   361      1.05323    0.11401
  0   362      1.09329    0.08991

  1   359      0.92030    0.19001
  1   360      0.93626    0.18244
  1   361      0.95454    0.17306
  1   362      0.99074    0.15257



Forces in eV/Ang:
  0 Pd   -0.12422    0.32520   -0.35752
  1 Ir    0.96279    0.69400    0.61874
  2 Ru   -1.08280    0.29489    0.68802
  3 Ru    0.42042    0.28637    1.59646
  4 Ir   -0.56680   -0.79727    1.17635
  5 Pt    0.15290    0.16286    0.04824
  6 Pd   -0.49850   -0.41984   -0.23629
  7 Pd    0.38846   -0.26339   -0.56945
  8 Ru    0.34295   -0.15262    0.57521
  9 Ag   -0.25194   -0.12718    0.02321
 10 Ag   -0.00709   -0.15553    0.10667
 11 Ag    0.05003   -0.20418   -0.10716
 12 Pt    0.05714    0.75216   -0.53076
 13 Pt    0.10186    0.51644   -0.70587
 14 Pt   -0.09450    0.14921   -0.14931
 15 Ru   -0.38489   -0.77828   -0.97884
 16 Pt   -0.39182    0.07276   -0.03712
 17 Ir    0.88930   -0.19643   -1.01954
 18 Pt    0.00492   -0.00257   -0.01810
 19 Ag   -0.00741    0.00983   -0.02548
 20 Pd   -0.02053    0.01607    0.01203
 21 Ag    0.00696   -0.00689    0.00955
 22 Ru    0.00465    0.00432   -0.00816
 23 Pd    0.01472    0.01142   -0.00587
 24 Ir    0.01054    0.00689   -0.00277
 25 Ir   -0.00826    0.02596    0.01141
 26 Pt    0.01312    0.00432   -0.00830
 27 Ir    0.00100   -0.05326    0.04114
 28 Pd   -0.01351   -0.03723   -0.00264
 29 Ag   -0.00270    0.01526    0.03771
 30 Pd    0.05978    0.02797   -0.00774
 31 Pd    0.01360   -0.03412   -0.00786
 32 Pd    0.00980   -0.02244    0.02320
 33 Ru    0.00699   -0.00822    0.00496
 34 Pd   -0.01563   -0.02916    0.02012
 35 Ir   -0.04242   -0.00341    0.00809
 36 Ir    0.04395    0.00344    0.02073
 37 Pt   -0.02831   -0.07094    0.02212
 38 Ag   -0.00132    0.00004   -0.00734
 39 Pd   -0.02367    0.05489   -0.02790
 40 Pd   -0.00959   -0.00360    0.03284
 41 Ir   -0.01641   -0.02229   -0.00492
 42 Ag   -0.01088    0.00684   -0.00791
 43 Ir    0.03637   -0.01387   -0.00614
 44 Ir    0.00861    0.05252   -0.03810
 45 O    -0.02774   -0.02213    0.02800

Timing:                                      incl.     excl.
-------------------------------------------------------------------
Density initialized from wave functions:    43.366    43.365   0.2% |
 Symmetrize density:                         0.001     0.001   0.0% |
Forces:                                    245.858   245.858   0.9% |
Hamiltonian:                                38.088     0.117   0.0% |
 Atomic:                                    11.391     5.809   0.0% |
  XC Correction:                             5.581     5.581   0.0% |
 Calculate atomic Hamiltonians:             10.740    10.740   0.0% |
 Communicate:                                0.066     0.066   0.0% |
 Initialize Hamiltonian:                     0.000     0.000   0.0% |
 Poisson:                                    0.088     0.088   0.0% |
 XC 3D grid:                                15.686    15.686   0.1% |
LCAO initialization:                        56.045     4.771   0.0% |
 LCAO eigensolver:                           6.646     0.002   0.0% |
  Calculate projections:                     0.075     0.075   0.0% |
  DenseAtomicCorrection:                     0.072     0.072   0.0% |
  Distribute overlap matrix:                 0.014     0.014   0.0% |
  Orbital Layouts:                           0.466     0.466   0.0% |
  Potential matrix:                          5.963     5.963   0.0% |
  Sum over cells:                            0.053     0.053   0.0% |
 LCAO to grid:                              42.243    42.243   0.2% |
 Set positions (LCAO WFS):                   2.386     0.748   0.0% |
  Basic WFS set positions:                   0.002     0.002   0.0% |
  Basis functions set positions:             0.000     0.000   0.0% |
  P tci:                                     0.742     0.742   0.0% |
  ST tci:                                    0.667     0.667   0.0% |
  mktci:                                     0.225     0.225   0.0% |
PWDescriptor:                                0.036     0.036   0.0% |
Redistribute:                                0.097     0.097   0.0% |
SCF-cycle:                               25693.866   720.673   2.8% ||
 Davidson:                               22946.094  5381.200  20.5% |-------|
  Apply H:                                3510.456  3414.654  13.0% |----|
   HMM T:                                   95.802    95.802   0.4% |
  Subspace diag:                          3294.075     0.101   0.0% |
   calc_h_matrix:                         1888.703   714.560   2.7% ||
    Apply H:                              1174.143  1140.891   4.4% |-|
     HMM T:                                 33.252    33.252   0.1% |
   diagonalize:                             53.251    53.251   0.2% |
   rotate_psi:                            1352.020  1352.020   5.2% |-|
  calc. matrices:                         7138.717  4809.102  18.4% |------|
   Apply H:                               2329.615  2265.784   8.6% |--|
    HMM T:                                  63.830    63.830   0.2% |
  diagonalize:                             945.729   945.729   3.6% ||
  rotate_psi:                             2675.917  2675.917  10.2% |---|
 Density:                                 1018.208     0.016   0.0% |
  Atomic density matrices:                   5.439     5.439   0.0% |
  Mix:                                     324.211   324.211   1.2% |
  Multipole moments:                         0.457     0.457   0.0% |
  Pseudo density:                          688.084   688.065   2.6% ||
   Symmetrize density:                       0.019     0.019   0.0% |
 Hamiltonian:                              913.243     2.807   0.0% |
  Atomic:                                  276.051   142.238   0.5% |
   XC Correction:                          133.812   133.812   0.5% |
  Calculate atomic Hamiltonians:           261.662   261.662   1.0% |
  Communicate:                               1.249     1.249   0.0% |
  Poisson:                                   2.163     2.163   0.0% |
  XC 3D grid:                              369.311   369.311   1.4% ||
 Orthonormalize:                            95.649     0.006   0.0% |
  calc_s_matrix:                            14.693    14.693   0.1% |
  inverse-cholesky:                          0.959     0.959   0.0% |
  projections:                              52.581    52.581   0.2% |
  rotate_psi_s:                             27.410    27.410   0.1% |
Set symmetry:                                0.002     0.002   0.0% |
Other:                                     124.549   124.549   0.5% |
-------------------------------------------------------------------
Total:                                             26201.908 100.0%

Date: Thu Mar  3 21:51:26 2022
