
  ___ ___ ___ _ _ _  
 |   |   |_  | | | | 
 | | | | | . | | | | 
 |__ |  _|___|_____|  1.5.1
 |___|_|             

User:   clausen@node061.cluster
Date:   Thu Mar  3 19:33:23 2022
Arch:   x86_64
Pid:    4360
Python: 3.6.12
gpaw:   /software/kemi/gpaw/1.5.1/gpaw
_gpaw:  /software/kemi/gpaw/1.5.1/bin/gpaw-python
ase:    /software/kemi/ase/3.17.0/ase (version 3.17.0)
numpy:  /opt/rh/rh-python36/root/usr/lib64/python3.6/site-packages/numpy (version 1.13.1)
scipy:  /opt/rh/rh-python36/root/usr/lib64/python3.6/site-packages/scipy (version 0.19.1)
units:  Angstrom and eV
cores:  16

Input parameters:
  kpts: [4 4 1]
  mode: {ecut: 400.0,
         gammacentered: False,
         name: pw}
  xc: RPBE

System changes: positions, numbers, cell, pbc, initial_charges, initial_magmoms 

Initialize ...

Ag-setup:
  name: Silver
  id: c05e55bab2c3858b3f9398f6d75cb77c
  Z: 47
  valence: 17
  core: 30
  charge: 0.0
  file: /software/kemi/gpaw-setups/0.9.20000/Ag.RPBE.gz
  cutoffs: 1.25(comp), 2.35(filt), 2.19(core), lmax=2
  valence states:
                energy  radius
    5s(1.00)    -4.277   1.286
    4p(6.00)   -58.523   1.328
    5p(0.00)    -0.755   1.328
    4d(10.00)    -7.386   1.180
    *s          22.934   1.286
    *d          19.826   1.180

  Using partial waves for Ag as LCAO basis

Ir-setup:
  name: Iridium
  id: 73b603359d1d5397a85ae3c2440f9033
  Z: 77
  valence: 15
  core: 62
  charge: 0.0
  file: /software/kemi/gpaw-setups/0.9.20000/Ir.RPBE.gz
  cutoffs: 1.26(comp), 2.40(filt), 2.36(core), lmax=2
  valence states:
                energy  radius
    6s(2.00)    -6.219   1.296
    5p(6.00)   -54.684   1.328
    6p(0.00)    -1.215   1.328
    5d(7.00)    -7.118   1.286
    *s          20.992   1.296
    *d          20.093   1.286

  Using partial waves for Ir as LCAO basis

Pt-setup:
  name: Platinum
  id: f04f522592575c47ad794f6b4a415b4b
  Z: 78
  valence: 16
  core: 62
  charge: 0.0
  file: /software/kemi/gpaw-setups/0.9.20000/Pt.RPBE.gz
  cutoffs: 1.29(comp), 2.26(filt), 2.26(core), lmax=2
  valence states:
                energy  radius
    6s(1.00)    -5.516   1.307
    5p(6.00)   -55.971   1.371
    6p(0.00)    -0.856   1.371
    5d(9.00)    -6.087   1.307
    *s          21.695   1.307
    *d          21.125   1.307

  Using partial waves for Pt as LCAO basis

Ru-setup:
  name: Ruthenium
  id: 76477906e28f51dc1b29884d53556fe9
  Z: 44
  valence: 16
  core: 28
  charge: 0.0
  file: /software/kemi/gpaw-setups/0.9.20000/Ru.RPBE.gz
  cutoffs: 1.23(comp), 2.16(filt), 1.30(core), lmax=2
  valence states:
                energy  radius
    4s(2.00)   -76.255   1.281
    5s(1.00)    -4.126   1.281
    4p(6.00)   -46.371   1.286
    5p(0.00)    -0.913   1.286
    4d(7.00)    -5.146   1.254
    *d          22.066   1.254

  Using partial waves for Ru as LCAO basis

O-setup:
  name: Oxygen
  id: 08071ca1eed670e7821b24b7eb4d558c
  Z: 8
  valence: 6
  core: 2
  charge: 0.0
  file: /software/kemi/gpaw-setups/0.9.20000/O.RPBE.gz
  cutoffs: 0.67(comp), 1.17(filt), 0.83(core), lmax=2
  valence states:
                energy  radius
    2s(2.00)   -24.041   0.688
    2p(4.00)    -8.984   0.598
    *s           3.170   0.688
    *p          18.228   0.598
    *d           0.000   0.619

  Using partial waves for O as LCAO basis

H-setup:
  name: Hydrogen
  id: ea3f9156a1dc40d47a60fdce8f8bd75d
  Z: 1
  valence: 1
  core: 0
  charge: 0.0
  file: /software/kemi/gpaw-setups/0.9.20000/H.RPBE.gz
  cutoffs: 0.48(comp), 0.85(filt), 0.53(core), lmax=2
  valence states:
                energy  radius
    1s(1.00)    -6.572   0.476
    *s          20.639   0.476
    *p           0.000   0.476

  Using partial waves for H as LCAO basis

Reference energy: -16429291.423757

Spin-paired calculation

Occupation numbers:
  Fermi-Dirac: width=0.1000 eV

Convergence criteria:
  Maximum total energy change: 0.0005 eV / electron
  Maximum integral of absolute density change: 0.0001 electrons
  Maximum integral of absolute eigenstate change: 4e-08 eV^2
  Maximum number of iterations: 333

Symmetries present (total): 1

  ( 1  0  0)
  ( 0  1  0)
  ( 0  0  1)

16 k-points: 4 x 4 x 1 Monkhorst-Pack grid
8 k-points in the irreducible part of the Brillouin zone
       k-points in crystal coordinates                weights
   0:     0.12500000   -0.37500000    0.00000000          2/16
   1:     0.12500000   -0.12500000    0.00000000          2/16
   2:     0.12500000    0.12500000    0.00000000          2/16
   3:     0.12500000    0.37500000    0.00000000          2/16
   4:     0.37500000   -0.37500000    0.00000000          2/16
   5:     0.37500000   -0.12500000    0.00000000          2/16
   6:     0.37500000    0.12500000    0.00000000          2/16
   7:     0.37500000    0.37500000    0.00000000          2/16

Wave functions: Plane wave expansion
  Cutoff energy: 400.000 eV
  Number of coefficients (min, max): 32722, 32776
  Pulay-stress correction: 0.000000 eV/Ang^3 (de/decut=0.000000)
  Using FFTW library
  ScaLapack parameters: grid=1x1, blocksize=None
  Wavefunction extrapolation:
    Improved wavefunction reuse through dual PAW basis 

Eigensolver
   Davidson(niter=2, smin=None, normalize=True) 

Densities:
  Coarse grid: 35*35*135 grid
  Fine grid: 70*70*270 grid
  Total Charge: 0.000000 

Density mixing:
  Method: separate
  Backend: pulay
  Linear mixing parameter: 0.05
  Mixing with 5 old densities
  Damping of long wave oscillations: 50 

Hamiltonian:
  XC and Coulomb potentials evaluated on a 70*70*270 grid
  Using the RPBE Exchange-Correlation functional
 

XC parameters: RPBE with 2 nearest neighbor stencil

Memory estimate:
  Process memory now: 147.59 MiB
  Calculator: 545.08 MiB
    Density: 51.32 MiB
      Arrays: 16.41 MiB
      Localized functions: 28.56 MiB
      Mixer: 6.36 MiB
    Hamiltonian: 11.63 MiB
      Arrays: 10.73 MiB
      XC: 0.00 MiB
      Poisson: 0.00 MiB
      vbar: 0.90 MiB
    Wavefunctions: 482.13 MiB
      Arrays psit_nG: 218.05 MiB
      Eigensolver: 249.57 MiB
      Projections: 2.75 MiB
      Projectors: 5.13 MiB
      PW-descriptor: 6.62 MiB

Total number of cores used: 16
Parallelization over k-points: 8
Domain decomposition: 1 x 1 x 2

Number of atoms: 47
Number of atomic orbitals: 548
Number of bands in calculation: 436
Bands to converge: occupied states only
Number of valence electrons: 719

... initialized

Initializing position-dependent things.

Density initialized from atomic densities
Creating initial wave functions:
  436 bands from LCAO basis set

                                             
                                             
                                             
                                             
                                             
                                             
                                             
                                             
                H              Ag            
              O   Ir    Ir                   
            Ag    AIr     Pt    Ru           
                                             
       Ir    IIr    IPt    Pt                
         Ru    Ir     Ir                     
                     Pt     Ag     Ir        
                Ag     Ag     Ag             
                                             
           Ir    PPt    RPt    Ir            
                                             
            Ir    IAg    AAg    Pt           
       Ag    IIr    IIr    Ir                
                                             
        Ag     Ag     Ir                     
                                             
                                             
                                             
                                             
                                             

Positions:
   0 Ag     0.000000    1.621936   10.000000    ( 0.0000,  0.0000,  0.0000)
   1 Ag     2.809275    1.621936   10.000000    ( 0.0000,  0.0000,  0.0000)
   2 Ir     5.618550    1.621936   10.000000    ( 0.0000,  0.0000,  0.0000)
   3 Ir     1.404638    4.054840   10.000000    ( 0.0000,  0.0000,  0.0000)
   4 Ir     4.213913    4.054840   10.000000    ( 0.0000,  0.0000,  0.0000)
   5 Ir     7.023188    4.054840   10.000000    ( 0.0000,  0.0000,  0.0000)
   6 Ir     2.809275    6.487743   10.000000    ( 0.0000,  0.0000,  0.0000)
   7 Ag     5.618550    6.487743   10.000000    ( 0.0000,  0.0000,  0.0000)
   8 Pt     8.427826    6.487743   10.000000    ( 0.0000,  0.0000,  0.0000)
   9 Ag     0.000000    0.000000   12.293764    ( 0.0000,  0.0000,  0.0000)
  10 Ir     2.809275    0.000000   12.293764    ( 0.0000,  0.0000,  0.0000)
  11 Ir     5.618550    0.000000   12.293764    ( 0.0000,  0.0000,  0.0000)
  12 Ir     1.404638    2.432904   12.293764    ( 0.0000,  0.0000,  0.0000)
  13 Ag     4.213913    2.432904   12.293764    ( 0.0000,  0.0000,  0.0000)
  14 Ag     7.023188    2.432904   12.293764    ( 0.0000,  0.0000,  0.0000)
  15 Pt     2.809275    4.865807   12.293764    ( 0.0000,  0.0000,  0.0000)
  16 Ru     5.618550    4.865807   12.293764    ( 0.0000,  0.0000,  0.0000)
  17 Ir     8.427826    4.865807   12.293764    ( 0.0000,  0.0000,  0.0000)
  18 Ir     1.441638    0.791118   14.593247    ( 0.0000,  0.0000,  0.0000)
  19 Pt     4.193480    0.729862   14.611205    ( 0.0000,  0.0000,  0.0000)
  20 Pt     7.034823    0.803600   14.634811    ( 0.0000,  0.0000,  0.0000)
  21 Ag     2.789574    3.267050   14.608106    ( 0.0000,  0.0000,  0.0000)
  22 Ag     5.614143    3.230616   14.629701    ( 0.0000,  0.0000,  0.0000)
  23 Ag     8.464759    3.239382   14.607930    ( 0.0000,  0.0000,  0.0000)
  24 Pt     4.237230    5.675263   14.599690    ( 0.0000,  0.0000,  0.0000)
  25 Ag     7.020289    5.624637   14.588938    ( 0.0000,  0.0000,  0.0000)
  26 Ir     9.810296    5.749034   14.534386    ( 0.0000,  0.0000,  0.0000)
  27 Ru     0.088724    1.655821   16.925664    ( 0.0000,  0.0000,  0.0000)
  28 Ir     2.745717    1.627778   16.875164    ( 0.0000,  0.0000,  0.0000)
  29 Ir     5.551846    1.597836   16.889230    ( 0.0000,  0.0000,  0.0000)
  30 Ir     1.358794    4.007324   17.013226    ( 0.0000,  0.0000,  0.0000)
  31 Ir     4.198339    3.977911   16.957702    ( 0.0000,  0.0000,  0.0000)
  32 Pt     7.125382    4.056246   16.998429    ( 0.0000,  0.0000,  0.0000)
  33 Ag     2.759687    6.474835   16.802442    ( 0.0000,  0.0000,  0.0000)
  34 Ir     5.663661    6.563267   16.864024    ( 0.0000,  0.0000,  0.0000)
  35 Ru     8.399575    6.483077   16.866623    ( 0.0000,  0.0000,  0.0000)
  36 Ir     0.015859   -0.055829   18.998154    ( 0.0000,  0.0000,  0.0000)
  37 Ir     2.776668   -0.025110   18.984491    ( 0.0000,  0.0000,  0.0000)
  38 Pt     5.623976   -0.052286   19.132338    ( 0.0000,  0.0000,  0.0000)
  39 Ag     1.411190    2.424549   19.550242    ( 0.0000,  0.0000,  0.0000)
  40 Ir     4.228423    2.403175   19.018562    ( 0.0000,  0.0000,  0.0000)
  41 Pt     6.964575    2.313754   19.128521    ( 0.0000,  0.0000,  0.0000)
  42 Ir     2.920544    4.885225   19.043791    ( 0.0000,  0.0000,  0.0000)
  43 Ir     5.524960    4.949858   19.026821    ( 0.0000,  0.0000,  0.0000)
  44 Ag     8.407084    4.876484   19.535850    ( 0.0000,  0.0000,  0.0000)
  45 O      2.776668   -0.025110   21.550242    ( 0.0000,  0.0000,  0.0000)
  46 H      3.426668    0.624890   21.950242    ( 0.0000,  0.0000,  0.0000)

Unit cell:
           periodic     x           y           z      points  spacing
  1. axis:    yes    8.445283    0.000000    0.000000    35     0.2090
  2. axis:    yes    4.222641    7.313829    0.000000    35     0.2090
  3. axis:    no     0.000000    0.000000   29.175054   135     0.2161

  Lengths:   8.445283   8.445283  29.175054
  Angles:   90.000000  90.000000  60.000000

Effective grid spacing dv^(1/3) = 0.2217

                     log10-error:    total        iterations:
           time      wfs    density  energy       fermi  poisson
iter:   1  19:35:33  +0.19   +inf  -300.021332    3             
iter:   2  19:36:36  -1.11  -1.37  -295.539051    37            
iter:   3  19:37:37  -1.37  -1.34  -333.924875    36            
iter:   4  19:38:39  -1.82  -1.24  -279.054851    3             
iter:   5  19:39:41  -2.24  -1.48  -273.957843    27            
iter:   6  19:40:43  -2.36  -1.53  -272.240682    3             
iter:   7  19:41:45  -2.29  -1.58  -269.074873    3             
iter:   8  19:42:45  -2.65  -1.72  -268.367365    3             
iter:   9  19:43:47  -3.26  -1.83  -268.309168    3             
iter:  10  19:44:48  -2.29  -1.85  -269.344066    3             
iter:  11  19:45:49  -2.93  -1.96  -268.218041    3             
iter:  12  19:46:51  -3.45  -2.21  -268.251374    3             
iter:  13  19:47:52  -3.35  -2.27  -268.215464    3             
iter:  14  19:48:54  -3.21  -2.29  -268.153374    3             
iter:  15  19:50:06  -3.49  -2.43  -268.657553    3             
iter:  16  19:51:15  -3.55  -2.20  -268.067199    2             
iter:  17  19:52:17  -3.88  -2.64  -268.038782    2             
iter:  18  19:53:18  -3.94  -2.81  -268.033002    3             
iter:  19  19:54:17  -4.51  -2.93  -268.030363    3             
iter:  20  19:55:23  -4.57  -2.94  -268.028110    2             
iter:  21  19:56:26  -4.25  -2.99  -268.161707    3             
iter:  22  19:57:27  -4.42  -2.55  -268.029345    2             
iter:  23  19:58:29  -4.88  -2.97  -268.026838    2             
iter:  24  19:59:29  -4.97  -3.12  -268.027464    2             
iter:  25  20:00:31  -5.30  -3.31  -268.025492    2             
iter:  26  20:01:33  -5.48  -3.30  -268.027370    2             
iter:  27  20:02:34  -5.12  -3.42  -268.027329    3             
iter:  28  20:03:34  -5.63  -3.49  -268.025973    2             
iter:  29  20:04:35  -5.87  -3.23  -268.024805    2             
iter:  30  20:05:37  -6.46  -3.79  -268.024803    2             
iter:  31  20:06:39  -5.88  -3.90  -268.024658    2             
iter:  32  20:07:41  -6.95  -4.21  -268.024801    2             
iter:  33  20:08:45  -7.24  -4.32  -268.024659    2             
iter:  34  20:09:45  -7.35  -4.39  -268.024760    2             
iter:  35  20:10:46  -7.18  -4.40  -268.024838    2             
iter:  36  20:11:47  -7.76  -4.35  -268.024509    2             

Converged after 36 iterations.

Dipole moment: (23.728703, 19.442733, -0.307510) |e|*Ang

Energy contributions relative to reference atoms: (reference = -16429291.423757)

Kinetic:       -151.314406
Potential:      +93.496002
External:        +0.000000
XC:            -202.826065
Entropy (-ST):   -2.109516
Local:           -6.325282
--------------------------
Free energy:   -269.079267
Extrapolated:  -268.024509

Fermi level: 1.21195

Showing only first 2 kpts
 Kpt  Band  Eigenvalues  Occupancy
  0   357      1.17906    0.14537
  0   358      1.22831    0.11480
  0   359      1.24181    0.10647
  0   360      1.29482    0.07598

  1   357      1.07946    0.19750
  1   358      1.12538    0.17596
  1   359      1.13881    0.16877
  1   360      1.18854    0.13956



Forces in eV/Ang:
  0 Ag   -0.41623    0.16158   -1.06275
  1 Ag    0.24851    0.22718   -0.86706
  2 Ir    0.49757   -0.16852    0.01885
  3 Ir   -0.11303    1.23477    1.39165
  4 Ir    0.41912    0.40051    0.87318
  5 Ir   -0.32971   -0.03798    1.19260
  6 Ir   -1.71233   -0.50607    0.73236
  7 Ag   -0.12053   -0.34413   -0.95642
  8 Pt    1.06333   -0.38662    0.48928
  9 Ag    0.13210    0.01106    0.15991
 10 Ir   -0.02801   -0.40983    0.98549
 11 Ir   -0.63555   -0.78356   -0.52741
 12 Ir    0.38742    0.15279    0.16302
 13 Ag   -0.01556   -0.03198    0.15099
 14 Ag    0.05494    0.08441    0.12716
 15 Pt   -0.14523   -0.04049   -0.67424
 16 Ru    0.63812    0.47442   -1.37236
 17 Ir    0.11300    0.29037   -1.26168
 18 Ir   -0.03871    0.00806    0.03829
 19 Pt    0.01437    0.04472    0.01172
 20 Pt    0.02591    0.01584    0.04915
 21 Ag    0.00556    0.02004    0.03674
 22 Ag    0.02722   -0.00206    0.01099
 23 Ag   -0.00156    0.01501   -0.01536
 24 Pt   -0.03643   -0.03175   -0.02844
 25 Ag   -0.00138   -0.04077    0.00365
 26 Ir    0.06014   -0.07916    0.00816
 27 Ru    0.01235   -0.02673    0.00869
 28 Ir    0.00970   -0.16352    0.09696
 29 Ir   -0.00248   -0.02687    0.00065
 30 Ir   -0.05660    0.00888    0.09603
 31 Ir    0.05063   -0.01297    0.15016
 32 Pt    0.02855    0.02570   -0.00161
 33 Ag   -0.01076   -0.03084   -0.05622
 34 Ir    0.14840    0.00637    0.15905
 35 Ru   -0.06368   -0.02552    0.11549
 36 Ir   -0.17950   -0.03185   -0.05461
 37 Ir    0.12683    0.31776    2.02363
 38 Pt    0.09524    0.02520   -0.07398
 39 Ag   -0.01270   -0.03019    0.08304
 40 Ir    0.04813    0.16529   -0.16486
 41 Pt    0.02059   -0.03165    0.03398
 42 Ir   -0.02950   -0.04216   -0.01927
 43 Ir   -0.22135   -0.19781   -0.15916
 44 Ag    0.01725   -0.07990    0.05083
 45 O     0.17104    0.19973   -1.29494
 46 H    -0.25803   -0.31831   -0.53067

System changes: positions 

Initializing position-dependent things.

Density initialized from wave functions
                                             
                                             
                                             
                                             
                                             
                                             
                                             
                                             
                H              Ag            
              O   Ir    Ir                   
            Ag    AIr     Pt    Ru           
                                             
       Ir    IIr    IPt    Pt                
         Ru    Ir     Ir                     
                     Pt     Ag     Ir        
                Ag     Ag     Ag             
                                             
           Ir    PPt    RPt    Ir            
                                             
            Ir    IAg    AAg    Pt           
       Ag    IIr    IIr    Ir                
                                             
        Ag     Ag     Ir                     
                                             
                                             
                                             
                                             
                                             

Positions:
   0 Ag     0.000000    1.621936   10.000000    ( 0.0000,  0.0000,  0.0000)
   1 Ag     2.809275    1.621936   10.000000    ( 0.0000,  0.0000,  0.0000)
   2 Ir     5.618550    1.621936   10.000000    ( 0.0000,  0.0000,  0.0000)
   3 Ir     1.404638    4.054840   10.000000    ( 0.0000,  0.0000,  0.0000)
   4 Ir     4.213913    4.054840   10.000000    ( 0.0000,  0.0000,  0.0000)
   5 Ir     7.023188    4.054840   10.000000    ( 0.0000,  0.0000,  0.0000)
   6 Ir     2.809275    6.487743   10.000000    ( 0.0000,  0.0000,  0.0000)
   7 Ag     5.618550    6.487743   10.000000    ( 0.0000,  0.0000,  0.0000)
   8 Pt     8.427826    6.487743   10.000000    ( 0.0000,  0.0000,  0.0000)
   9 Ag     0.000000    0.000000   12.293764    ( 0.0000,  0.0000,  0.0000)
  10 Ir     2.809275    0.000000   12.293764    ( 0.0000,  0.0000,  0.0000)
  11 Ir     5.618550    0.000000   12.293764    ( 0.0000,  0.0000,  0.0000)
  12 Ir     1.404638    2.432904   12.293764    ( 0.0000,  0.0000,  0.0000)
  13 Ag     4.213913    2.432904   12.293764    ( 0.0000,  0.0000,  0.0000)
  14 Ag     7.023188    2.432904   12.293764    ( 0.0000,  0.0000,  0.0000)
  15 Pt     2.809275    4.865807   12.293764    ( 0.0000,  0.0000,  0.0000)
  16 Ru     5.618550    4.865807   12.293764    ( 0.0000,  0.0000,  0.0000)
  17 Ir     8.427826    4.865807   12.293764    ( 0.0000,  0.0000,  0.0000)
  18 Ir     1.437866    0.791904   14.596978    ( 0.0000,  0.0000,  0.0000)
  19 Pt     4.194881    0.734220   14.612347    ( 0.0000,  0.0000,  0.0000)
  20 Pt     7.037348    0.805143   14.639600    ( 0.0000,  0.0000,  0.0000)
  21 Ag     2.790116    3.269002   14.611686    ( 0.0000,  0.0000,  0.0000)
  22 Ag     5.616795    3.230416   14.630771    ( 0.0000,  0.0000,  0.0000)
  23 Ag     8.464608    3.240845   14.606433    ( 0.0000,  0.0000,  0.0000)
  24 Pt     4.233680    5.672169   14.596919    ( 0.0000,  0.0000,  0.0000)
  25 Ag     7.020155    5.620664   14.589294    ( 0.0000,  0.0000,  0.0000)
  26 Ir     9.816157    5.741320   14.535181    ( 0.0000,  0.0000,  0.0000)
  27 Ru     0.089928    1.653216   16.926511    ( 0.0000,  0.0000,  0.0000)
  28 Ir     2.746662    1.611843   16.884613    ( 0.0000,  0.0000,  0.0000)
  29 Ir     5.551605    1.595218   16.889293    ( 0.0000,  0.0000,  0.0000)
  30 Ir     1.353279    4.008189   17.022585    ( 0.0000,  0.0000,  0.0000)
  31 Ir     4.203273    3.976647   16.972335    ( 0.0000,  0.0000,  0.0000)
  32 Pt     7.128164    4.058750   16.998272    ( 0.0000,  0.0000,  0.0000)
  33 Ag     2.758639    6.471829   16.796963    ( 0.0000,  0.0000,  0.0000)
  34 Ir     5.678123    6.563887   16.879523    ( 0.0000,  0.0000,  0.0000)
  35 Ru     8.393370    6.480590   16.877877    ( 0.0000,  0.0000,  0.0000)
  36 Ir    -0.001633   -0.058933   18.992832    ( 0.0000,  0.0000,  0.0000)
  37 Ir     2.789027    0.005856   19.181693    ( 0.0000,  0.0000,  0.0000)
  38 Pt     5.633257   -0.049830   19.125129    ( 0.0000,  0.0000,  0.0000)
  39 Ag     1.409953    2.421606   19.558335    ( 0.0000,  0.0000,  0.0000)
  40 Ir     4.233114    2.419282   19.002497    ( 0.0000,  0.0000,  0.0000)
  41 Pt     6.966582    2.310669   19.131832    ( 0.0000,  0.0000,  0.0000)
  42 Ir     2.917669    4.881116   19.041913    ( 0.0000,  0.0000,  0.0000)
  43 Ir     5.503390    4.930581   19.011311    ( 0.0000,  0.0000,  0.0000)
  44 Ag     8.408765    4.868697   19.540803    ( 0.0000,  0.0000,  0.0000)
  45 O      2.793336   -0.005647   21.424051    ( 0.0000,  0.0000,  0.0000)
  46 H      3.401523    0.593871   21.898529    ( 0.0000,  0.0000,  0.0000)

Unit cell:
           periodic     x           y           z      points  spacing
  1. axis:    yes    8.445283    0.000000    0.000000    35     0.2090
  2. axis:    yes    4.222641    7.313829    0.000000    35     0.2090
  3. axis:    no     0.000000    0.000000   29.175054   135     0.2161

  Lengths:   8.445283   8.445283  29.175054
  Angles:   90.000000  90.000000  60.000000

Effective grid spacing dv^(1/3) = 0.2217

                     log10-error:    total        iterations:
           time      wfs    density  energy       fermi  poisson
iter:   1  20:13:18  -1.85   +inf  -275.355873    4             
iter:   2  20:14:21  -1.33  -1.78  -340.078598    32            
iter:   3  20:15:22  -1.34  -1.30  -310.661039    3             
iter:   4  20:16:24  -2.23  -1.43  -269.808145    33            
iter:   5  20:17:26  -2.79  -2.12  -268.826691    4             
iter:   6  20:18:28  -3.98  -2.49  -268.738270    3             
iter:   7  20:19:31  -4.12  -2.62  -268.661062    3             
iter:   8  20:20:33  -3.57  -2.76  -268.581518    2             
iter:   9  20:21:35  -3.79  -2.95  -268.725639    2             
iter:  10  20:22:38  -4.27  -2.47  -268.575075    2             
iter:  11  20:23:40  -4.81  -2.96  -268.559174    3             
iter:  12  20:24:41  -5.10  -3.19  -268.556279    3             
iter:  13  20:25:43  -5.10  -3.21  -268.555271    3             
iter:  14  20:26:45  -5.13  -3.34  -268.554315    2             
iter:  15  20:27:47  -5.44  -3.51  -268.554156    2             
iter:  16  20:28:48  -5.93  -3.27  -268.554805    2             
iter:  17  20:29:51  -6.17  -3.51  -268.552883    2             
iter:  18  20:30:53  -5.83  -3.69  -268.552483    2             
iter:  19  20:31:55  -6.08  -3.69  -268.552260    2             
iter:  20  20:32:58  -6.25  -3.84  -268.552674    2             
iter:  21  20:34:13  -6.74  -3.92  -268.551906    2             
iter:  22  20:35:20  -6.74  -3.93  -268.553019    2             
iter:  23  20:36:21  -6.81  -3.87  -268.552462    2             
iter:  24  20:37:23  -6.78  -4.11  -268.552166    2             
iter:  25  20:38:25  -6.90  -4.13  -268.552225    2             
iter:  26  20:39:26  -7.35  -4.22  -268.552434    2             
iter:  27  20:40:28  -7.51  -4.24  -268.552032    2             

Converged after 27 iterations.

Dipole moment: (22.678449, 16.586831, -0.127359) |e|*Ang

Energy contributions relative to reference atoms: (reference = -16429291.423757)

Kinetic:       -156.002321
Potential:      +97.687698
External:        +0.000000
XC:            -202.821388
Entropy (-ST):   -2.113467
Local:           -6.359287
--------------------------
Free energy:   -269.608766
Extrapolated:  -268.552032

Fermi level: 1.29475

Showing only first 2 kpts
 Kpt  Band  Eigenvalues  Occupancy
  0   357      1.26010    0.14644
  0   358      1.31255    0.11390
  0   359      1.32610    0.10556
  0   360      1.37128    0.07937

  1   357      1.16011    0.19839
  1   358      1.20207    0.17911
  1   359      1.23366    0.16203
  1   360      1.27384    0.13802



Forces in eV/Ang:
  0 Ag   -0.41688    0.15711   -1.06083
  1 Ag    0.24931    0.22753   -0.86437
  2 Ir    0.49564   -0.16809    0.02983
  3 Ir   -0.10150    1.23646    1.40680
  4 Ir    0.42503    0.39676    0.86721
  5 Ir   -0.33280   -0.03364    1.19893
  6 Ir   -1.71207   -0.50547    0.73542
  7 Ag   -0.12067   -0.34411   -0.95450
  8 Pt    1.06711   -0.38973    0.49232
  9 Ag    0.13454    0.02190    0.16338
 10 Ir   -0.02923   -0.41133    1.00279
 11 Ir   -0.64133   -0.78431   -0.51332
 12 Ir    0.38848    0.12863    0.16357
 13 Ag   -0.01578   -0.03022    0.16267
 14 Ag    0.05587    0.07780    0.13164
 15 Pt   -0.13451   -0.03586   -0.63165
 16 Ru    0.64743    0.47438   -1.38688
 17 Ir    0.10681    0.29203   -1.27483
 18 Ir   -0.00473    0.00078    0.09640
 19 Pt   -0.01010   -0.05472    0.07432
 20 Pt    0.01032   -0.00119   -0.01278
 21 Ag    0.00747   -0.04032    0.09436
 22 Ag   -0.01094    0.00668    0.01644
 23 Ag    0.01724   -0.00501    0.00051
 24 Pt    0.02755   -0.00199   -0.00392
 25 Ag    0.00463    0.04787    0.03651
 26 Ir   -0.05711    0.01763    0.05344
 27 Ru    0.09654   -0.08109    0.02924
 28 Ir    0.05292   -0.35139    0.26758
 29 Ir    0.01113   -0.04382   -0.04129
 30 Ir   -0.02653   -0.01398    0.06601
 31 Ir   -0.05915    0.02337   -0.33919
 32 Pt    0.00038    0.04321    0.02032
 33 Ag    0.00469   -0.05872   -0.03972
 34 Ir    0.33514    0.13332    0.57131
 35 Ru   -0.14312    0.14267    0.24840
 36 Ir    0.01086   -0.03468    0.05738
 37 Ir   -0.12181    0.18074    0.75643
 38 Pt    0.02586   -0.02061   -0.00182
 39 Ag   -0.06722    0.05530    0.02295
 40 Ir    0.03074   -0.04482    0.25142
 41 Pt    0.04758    0.03599   -0.00948
 42 Ir   -0.16424    0.01238   -0.03800
 43 Ir    0.06717    0.01251    0.20773
 44 Ag    0.00085   -0.04933   -0.02646
 45 O    -0.65449   -0.66276   -1.89737
 46 H     0.49593    0.40869   -0.22117

System changes: positions 

Initializing position-dependent things.

Density initialized from wave functions
                                             
                                             
                                             
                                             
                                             
                                             
                                             
                                             
                H Ir    Ir     Ag            
            AgO                              
                  AIr     Pt    Ru           
             IIr    IPt     Pt               
       Ir                                    
         Ru    Ir    PIr    Ag     Ir        
                                             
                Ag     Ag     Ag             
           Ir    PPt    RPt    Ir            
                                             
            Ir    IAg    AAg    Pt           
       Ag     Ir     Ir                      
             Ir     Ir     Ir                
        Ag     Ag     Ir                     
                                             
                                             
                                             
                                             
                                             

Positions:
   0 Ag     0.000000    1.621936   10.000000    ( 0.0000,  0.0000,  0.0000)
   1 Ag     2.809275    1.621936   10.000000    ( 0.0000,  0.0000,  0.0000)
   2 Ir     5.618550    1.621936   10.000000    ( 0.0000,  0.0000,  0.0000)
   3 Ir     1.404638    4.054840   10.000000    ( 0.0000,  0.0000,  0.0000)
   4 Ir     4.213913    4.054840   10.000000    ( 0.0000,  0.0000,  0.0000)
   5 Ir     7.023188    4.054840   10.000000    ( 0.0000,  0.0000,  0.0000)
   6 Ir     2.809275    6.487743   10.000000    ( 0.0000,  0.0000,  0.0000)
   7 Ag     5.618550    6.487743   10.000000    ( 0.0000,  0.0000,  0.0000)
   8 Pt     8.427826    6.487743   10.000000    ( 0.0000,  0.0000,  0.0000)
   9 Ag     0.000000    0.000000   12.293764    ( 0.0000,  0.0000,  0.0000)
  10 Ir     2.809275    0.000000   12.293764    ( 0.0000,  0.0000,  0.0000)
  11 Ir     5.618550    0.000000   12.293764    ( 0.0000,  0.0000,  0.0000)
  12 Ir     1.404638    2.432904   12.293764    ( 0.0000,  0.0000,  0.0000)
  13 Ag     4.213913    2.432904   12.293764    ( 0.0000,  0.0000,  0.0000)
  14 Ag     7.023188    2.432904   12.293764    ( 0.0000,  0.0000,  0.0000)
  15 Pt     2.809275    4.865807   12.293764    ( 0.0000,  0.0000,  0.0000)
  16 Ru     5.618550    4.865807   12.293764    ( 0.0000,  0.0000,  0.0000)
  17 Ir     8.427826    4.865807   12.293764    ( 0.0000,  0.0000,  0.0000)
  18 Ir     1.434094    0.792690   14.600709    ( 0.0000,  0.0000,  0.0000)
  19 Pt     4.196282    0.738578   14.613489    ( 0.0000,  0.0000,  0.0000)
  20 Pt     7.039873    0.806686   14.644389    ( 0.0000,  0.0000,  0.0000)
  21 Ag     2.790659    3.270955   14.615267    ( 0.0000,  0.0000,  0.0000)
  22 Ag     5.619448    3.230215   14.631842    ( 0.0000,  0.0000,  0.0000)
  23 Ag     8.464456    3.242308   14.604936    ( 0.0000,  0.0000,  0.0000)
  24 Pt     4.230130    5.669075   14.594147    ( 0.0000,  0.0000,  0.0000)
  25 Ag     7.020021    5.616691   14.589649    ( 0.0000,  0.0000,  0.0000)
  26 Ir     9.822018    5.733606   14.535977    ( 0.0000,  0.0000,  0.0000)
  27 Ru     0.091131    1.650610   16.927358    ( 0.0000,  0.0000,  0.0000)
  28 Ir     2.747608    1.595908   16.894062    ( 0.0000,  0.0000,  0.0000)
  29 Ir     5.551363    1.592600   16.889357    ( 0.0000,  0.0000,  0.0000)
  30 Ir     1.347763    4.009055   17.031943    ( 0.0000,  0.0000,  0.0000)
  31 Ir     4.208206    3.975383   16.986967    ( 0.0000,  0.0000,  0.0000)
  32 Pt     7.130947    4.061254   16.998115    ( 0.0000,  0.0000,  0.0000)
  33 Ag     2.757591    6.468824   16.791485    ( 0.0000,  0.0000,  0.0000)
  34 Ir     5.692584    6.564508   16.895022    ( 0.0000,  0.0000,  0.0000)
  35 Ru     8.387165    6.478103   16.889131    ( 0.0000,  0.0000,  0.0000)
  36 Ir    -0.019125   -0.062037   18.987510    ( 0.0000,  0.0000,  0.0000)
  37 Ir     2.801387    0.036822   19.378894    ( 0.0000,  0.0000,  0.0000)
  38 Pt     5.642537   -0.047375   19.117919    ( 0.0000,  0.0000,  0.0000)
  39 Ag     1.408716    2.418664   19.566427    ( 0.0000,  0.0000,  0.0000)
  40 Ir     4.237804    2.435390   18.986432    ( 0.0000,  0.0000,  0.0000)
  41 Pt     6.968589    2.307585   19.135143    ( 0.0000,  0.0000,  0.0000)
  42 Ir     2.914794    4.877007   19.040034    ( 0.0000,  0.0000,  0.0000)
  43 Ir     5.481820    4.911305   18.995800    ( 0.0000,  0.0000,  0.0000)
  44 Ag     8.410446    4.860911   19.545756    ( 0.0000,  0.0000,  0.0000)
  45 O      2.810003    0.013816   21.297860    ( 0.0000,  0.0000,  0.0000)
  46 H      3.376378    0.562852   21.846815    ( 0.0000,  0.0000,  0.0000)

Unit cell:
           periodic     x           y           z      points  spacing
  1. axis:    yes    8.445283    0.000000    0.000000    35     0.2090
  2. axis:    yes    4.222641    7.313829    0.000000    35     0.2090
  3. axis:    no     0.000000    0.000000   29.175054   135     0.2161

  Lengths:   8.445283   8.445283  29.175054
  Angles:   90.000000  90.000000  60.000000

Effective grid spacing dv^(1/3) = 0.2217

                     log10-error:    total        iterations:
           time      wfs    density  energy       fermi  poisson
iter:   1  20:41:59  -1.85   +inf  -276.573417    4             
iter:   2  20:43:05  -1.22  -1.76  -371.627686    37            
iter:   3  20:44:07  -1.42  -1.23  -287.704689    36            
iter:   4  20:45:10  -2.37  -1.58  -269.283858    36            
iter:   5  20:46:10  -2.95  -2.26  -269.014271    3             
iter:   6  20:47:13  -3.76  -2.35  -268.697617    3             
iter:   7  20:48:16  -3.99  -2.65  -268.629510    3             
iter:   8  20:49:18  -3.75  -2.74  -268.674130    3             
iter:   9  20:50:20  -3.76  -2.51  -268.736107    3             
iter:  10  20:51:22  -4.17  -2.47  -268.566099    3             
iter:  11  20:52:24  -4.29  -2.73  -268.540961    3             
iter:  12  20:53:26  -4.54  -2.82  -268.523893    3             
iter:  13  20:54:28  -4.63  -3.02  -268.515526    3             
iter:  14  20:55:30  -5.51  -3.25  -268.513267    2             
iter:  15  20:56:31  -5.33  -3.25  -268.523237    2             
iter:  16  20:57:33  -5.45  -3.11  -268.511803    2             
iter:  17  20:58:34  -5.41  -3.35  -268.510909    2             
iter:  18  20:59:36  -5.65  -3.55  -268.513809    2             
iter:  19  21:00:39  -5.51  -3.45  -268.512923    3             
iter:  20  21:01:40  -5.92  -3.54  -268.511030    2             
iter:  21  21:02:43  -6.02  -3.75  -268.512726    2             
iter:  22  21:03:45  -6.25  -3.61  -268.511055    2             
iter:  23  21:04:46  -6.59  -3.75  -268.511017    2             
iter:  24  21:05:48  -6.71  -3.91  -268.511700    2             
iter:  25  21:06:51  -6.91  -3.90  -268.511110    2             
iter:  26  21:07:53  -6.73  -4.04  -268.510895    2             
iter:  27  21:08:55  -7.02  -3.90  -268.511077    2             
iter:  28  21:09:58  -7.10  -4.25  -268.510861    2             
iter:  29  21:11:00  -7.01  -4.16  -268.510868    2             
iter:  30  21:12:03  -7.00  -4.34  -268.511192    2             
iter:  31  21:13:05  -7.46  -4.34  -268.510876    2             

Converged after 31 iterations.

Dipole moment: (21.559754, 13.714761, 0.141097) |e|*Ang

Energy contributions relative to reference atoms: (reference = -16429291.423757)

Kinetic:       -146.614917
Potential:      +89.715921
External:        +0.000000
XC:            -204.170602
Entropy (-ST):   -2.128835
Local:           -6.376861
--------------------------
Free energy:   -269.575294
Extrapolated:  -268.510876

Fermi level: 1.41741

Showing only first 2 kpts
 Kpt  Band  Eigenvalues  Occupancy
  0   357      1.38398    0.14570
  0   358      1.42906    0.11773
  0   359      1.44748    0.10635
  0   360      1.48787    0.08270

  1   357      1.28182    0.19877
  1   358      1.31262    0.18509
  1   359      1.36860    0.15492
  1   360      1.38638    0.14424



Forces in eV/Ang:
  0 Ag   -0.41847    0.15365   -1.06070
  1 Ag    0.25102    0.22883   -0.86587
  2 Ir    0.49309   -0.16888    0.03240
  3 Ir   -0.08997    1.23744    1.41684
  4 Ir    0.42617    0.39293    0.85535
  5 Ir   -0.33496   -0.03028    1.19981
  6 Ir   -1.71173   -0.50255    0.72970
  7 Ag   -0.12015   -0.34393   -0.95805
  8 Pt    1.07251   -0.39208    0.48698
  9 Ag    0.13711    0.03199    0.16922
 10 Ir   -0.02494   -0.41832    1.02468
 11 Ir   -0.65074   -0.78956   -0.49927
 12 Ir    0.39668    0.10572    0.17230
 13 Ag   -0.01775   -0.03058    0.17550
 14 Ag    0.05768    0.07077    0.13476
 15 Pt   -0.13021   -0.03333   -0.59245
 16 Ru    0.66110    0.47572   -1.40024
 17 Ir    0.09747    0.30103   -1.28360
 18 Ir    0.01615    0.00661    0.12121
 19 Pt   -0.03124   -0.14685    0.10860
 20 Pt   -0.00651   -0.02489   -0.07081
 21 Ag    0.00717   -0.09411    0.15061
 22 Ag   -0.05092    0.01379    0.03115
 23 Ag    0.04184   -0.02508    0.02494
 24 Pt    0.09508    0.02787    0.01835
 25 Ag    0.00944    0.13482    0.05414
 26 Ir   -0.16039    0.10554    0.07664
 27 Ru    0.17276   -0.12382    0.02509
 28 Ir    0.06067   -0.42255    0.27789
 29 Ir    0.01942   -0.06593   -0.11576
 30 Ir    0.02418   -0.04006    0.02350
 31 Ir   -0.26162    0.06770   -1.04617
 32 Pt   -0.04228    0.05528    0.03795
 33 Ag    0.01752   -0.09457   -0.04017
 34 Ir    0.29704    0.17142    0.56938
 35 Ru   -0.14400    0.25404    0.21939
 36 Ir    0.23133   -0.06929    0.16433
 37 Ir   -0.18494    0.06995   -2.26997
 38 Pt   -0.04617   -0.08624    0.04432
 39 Ag   -0.16588    0.20026   -0.07481
 40 Ir    0.01641   -0.28702    0.73455
 41 Pt    0.06810    0.11981    0.00736
 42 Ir   -0.32102    0.06988    0.01173
 43 Ir    0.41479    0.21493    0.65773
 44 Ag   -0.01917   -0.04439   -0.11953
 45 O    -0.96891   -1.06797    0.48541
 46 H     0.98074    0.82632    0.25565

System changes: positions 

Initializing position-dependent things.

Density initialized from wave functions
                                             
                                             
                                             
                                             
                                             
                                             
                                             
                                             
                H Ir    Ir     Ag            
            AgO                              
                  AIr     Pt    Ru           
             IIr    IPt     Pt               
       Ir                                    
         Ru    Ir    PIr    Ag     Ir        
                                             
                Ag     Ag     Ag             
           Ir    PPt    RPt    Ir            
                                             
            Ir    IAg    AAg    Pt           
                                             
       Ag    IIr    IIr    Ir                
        Ag     Ag     Ir                     
                                             
                                             
                                             
                                             
                                             

Positions:
   0 Ag     0.000000    1.621936   10.000000    ( 0.0000,  0.0000,  0.0000)
   1 Ag     2.809275    1.621936   10.000000    ( 0.0000,  0.0000,  0.0000)
   2 Ir     5.618550    1.621936   10.000000    ( 0.0000,  0.0000,  0.0000)
   3 Ir     1.404638    4.054840   10.000000    ( 0.0000,  0.0000,  0.0000)
   4 Ir     4.213913    4.054840   10.000000    ( 0.0000,  0.0000,  0.0000)
   5 Ir     7.023188    4.054840   10.000000    ( 0.0000,  0.0000,  0.0000)
   6 Ir     2.809275    6.487743   10.000000    ( 0.0000,  0.0000,  0.0000)
   7 Ag     5.618550    6.487743   10.000000    ( 0.0000,  0.0000,  0.0000)
   8 Pt     8.427826    6.487743   10.000000    ( 0.0000,  0.0000,  0.0000)
   9 Ag     0.000000    0.000000   12.293764    ( 0.0000,  0.0000,  0.0000)
  10 Ir     2.809275    0.000000   12.293764    ( 0.0000,  0.0000,  0.0000)
  11 Ir     5.618550    0.000000   12.293764    ( 0.0000,  0.0000,  0.0000)
  12 Ir     1.404638    2.432904   12.293764    ( 0.0000,  0.0000,  0.0000)
  13 Ag     4.213913    2.432904   12.293764    ( 0.0000,  0.0000,  0.0000)
  14 Ag     7.023188    2.432904   12.293764    ( 0.0000,  0.0000,  0.0000)
  15 Pt     2.809275    4.865807   12.293764    ( 0.0000,  0.0000,  0.0000)
  16 Ru     5.618550    4.865807   12.293764    ( 0.0000,  0.0000,  0.0000)
  17 Ir     8.427826    4.865807   12.293764    ( 0.0000,  0.0000,  0.0000)
  18 Ir     1.436022    0.792288   14.598802    ( 0.0000,  0.0000,  0.0000)
  19 Pt     4.195566    0.736351   14.612906    ( 0.0000,  0.0000,  0.0000)
  20 Pt     7.038583    0.805897   14.641941    ( 0.0000,  0.0000,  0.0000)
  21 Ag     2.790382    3.269957   14.613437    ( 0.0000,  0.0000,  0.0000)
  22 Ag     5.618092    3.230318   14.631295    ( 0.0000,  0.0000,  0.0000)
  23 Ag     8.464534    3.241560   14.605701    ( 0.0000,  0.0000,  0.0000)
  24 Pt     4.231944    5.670657   14.595564    ( 0.0000,  0.0000,  0.0000)
  25 Ag     7.020089    5.618721   14.589467    ( 0.0000,  0.0000,  0.0000)
  26 Ir     9.819023    5.737549   14.535570    ( 0.0000,  0.0000,  0.0000)
  27 Ru     0.090516    1.651942   16.926925    ( 0.0000,  0.0000,  0.0000)
  28 Ir     2.747124    1.604053   16.889232    ( 0.0000,  0.0000,  0.0000)
  29 Ir     5.551486    1.593938   16.889324    ( 0.0000,  0.0000,  0.0000)
  30 Ir     1.350582    4.008613   17.027160    ( 0.0000,  0.0000,  0.0000)
  31 Ir     4.205685    3.976029   16.979489    ( 0.0000,  0.0000,  0.0000)
  32 Pt     7.129525    4.059974   16.998195    ( 0.0000,  0.0000,  0.0000)
  33 Ag     2.758127    6.470360   16.794285    ( 0.0000,  0.0000,  0.0000)
  34 Ir     5.685192    6.564191   16.887100    ( 0.0000,  0.0000,  0.0000)
  35 Ru     8.390336    6.479374   16.883379    ( 0.0000,  0.0000,  0.0000)
  36 Ir    -0.010185   -0.060450   18.990231    ( 0.0000,  0.0000,  0.0000)
  37 Ir     2.795070    0.020995   19.278101    ( 0.0000,  0.0000,  0.0000)
  38 Pt     5.637794   -0.048630   19.121604    ( 0.0000,  0.0000,  0.0000)
  39 Ag     1.409348    2.420168   19.562291    ( 0.0000,  0.0000,  0.0000)
  40 Ir     4.235407    2.427157   18.994643    ( 0.0000,  0.0000,  0.0000)
  41 Pt     6.967563    2.309161   19.133451    ( 0.0000,  0.0000,  0.0000)
  42 Ir     2.916264    4.879107   19.040994    ( 0.0000,  0.0000,  0.0000)
  43 Ir     5.492845    4.921157   19.003728    ( 0.0000,  0.0000,  0.0000)
  44 Ag     8.409587    4.864891   19.543225    ( 0.0000,  0.0000,  0.0000)
  45 O      2.801484    0.003868   21.362359    ( 0.0000,  0.0000,  0.0000)
  46 H      3.389230    0.578706   21.873247    ( 0.0000,  0.0000,  0.0000)

Unit cell:
           periodic     x           y           z      points  spacing
  1. axis:    yes    8.445283    0.000000    0.000000    35     0.2090
  2. axis:    yes    4.222641    7.313829    0.000000    35     0.2090
  3. axis:    no     0.000000    0.000000   29.175054   135     0.2161

  Lengths:   8.445283   8.445283  29.175054
  Angles:   90.000000  90.000000  60.000000

Effective grid spacing dv^(1/3) = 0.2217

                     log10-error:    total        iterations:
           time      wfs    density  energy       fermi  poisson
iter:   1  21:14:35  -2.17   +inf  -270.840061    3             
iter:   2  21:15:37  -2.17  -2.09  -287.460233    4             
iter:   3  21:16:39  -2.24  -1.54  -273.824791    3             
iter:   4  21:17:41  -3.02  -1.77  -269.013725    3             
iter:   5  21:18:47  -3.63  -2.55  -268.756234    3             
iter:   6  21:20:03  -3.95  -2.79  -268.704252    3             
iter:   7  21:21:07  -4.63  -2.89  -268.684767    2             
iter:   8  21:22:06  -4.75  -3.03  -268.675729    2             
iter:   9  21:23:05  -4.49  -3.10  -268.715036    2             
iter:  10  21:24:05  -4.48  -2.75  -268.682365    3             
iter:  11  21:25:06  -4.71  -2.86  -268.672629    3             
iter:  12  21:26:07  -5.07  -3.06  -268.659827    3             
iter:  13  21:27:09  -5.86  -3.33  -268.656064    2             
iter:  14  21:28:12  -6.28  -3.56  -268.656003    2             
iter:  15  21:29:14  -6.15  -3.60  -268.655851    2             
iter:  16  21:30:15  -5.79  -3.66  -268.655297    2             
iter:  17  21:31:18  -6.11  -3.42  -268.655948    2             
iter:  18  21:32:20  -6.39  -3.70  -268.654943    2             
iter:  19  21:33:26  -6.52  -3.94  -268.654630    2             
iter:  20  21:34:29  -6.59  -3.77  -268.654908    2             
iter:  21  21:35:32  -6.83  -4.07  -268.654795    2             
iter:  22  21:36:34  -7.22  -4.10  -268.654727    2             
iter:  23  21:37:36  -6.81  -4.01  -268.655570    2             
iter:  24  21:38:38  -6.85  -4.03  -268.655318    2             
iter:  25  21:39:42  -7.37  -4.14  -268.654872    2             
iter:  26  21:40:45  -7.65  -4.36  -268.655112    2             

Converged after 26 iterations.

Dipole moment: (22.138311, 15.179748, -0.010784) |e|*Ang

Energy contributions relative to reference atoms: (reference = -16429291.423757)

Kinetic:       -154.185491
Potential:      +96.158869
External:        +0.000000
XC:            -203.228712
Entropy (-ST):   -2.119542
Local:           -6.340008
--------------------------
Free energy:   -269.714883
Extrapolated:  -268.655112

Fermi level: 1.34810

Showing only first 2 kpts
 Kpt  Band  Eigenvalues  Occupancy
  0   357      1.31346    0.14643
  0   358      1.36453    0.11475
  0   359      1.37872    0.10601
  0   360      1.42258    0.08049

  1   357      1.21258    0.19875
  1   358      1.24937    0.18214
  1   359      1.29340    0.15836
  1   360      1.32303    0.14059



Forces in eV/Ang:
  0 Ag   -0.41929    0.15577   -1.05739
  1 Ag    0.25184    0.22832   -0.86124
  2 Ir    0.49471   -0.16756    0.03520
  3 Ir   -0.09568    1.24297    1.42452
  4 Ir    0.42717    0.39345    0.86863
  5 Ir   -0.33518   -0.03339    1.20472
  6 Ir   -1.71590   -0.50580    0.73692
  7 Ag   -0.12046   -0.34519   -0.95511
  8 Pt    1.07327   -0.39163    0.49401
  9 Ag    0.13622    0.02663    0.16900
 10 Ir   -0.02664   -0.41541    1.01962
 11 Ir   -0.64620   -0.78815   -0.50293
 12 Ir    0.39223    0.11628    0.16969
 13 Ag   -0.01760   -0.03073    0.16875
 14 Ag    0.05736    0.07472    0.13329
 15 Pt   -0.13099   -0.03408   -0.61834
 16 Ru    0.65449    0.47559   -1.39290
 17 Ir    0.10154    0.29841   -1.28005
 18 Ir    0.00478    0.00034    0.11520
 19 Pt   -0.01867   -0.10635    0.09329
 20 Pt    0.00054   -0.01588   -0.03292
 21 Ag    0.00565   -0.07303    0.13535
 22 Ag   -0.03107    0.01039    0.03089
 23 Ag    0.02951   -0.01673    0.01943
 24 Pt    0.06887    0.02001    0.02813
 25 Ag    0.00535    0.09312    0.04689
 26 Ir   -0.11364    0.06898    0.07846
 27 Ru    0.13897   -0.11069    0.02596
 28 Ir    0.05157   -0.42639    0.32526
 29 Ir    0.02102   -0.06333   -0.08076
 30 Ir    0.00800   -0.02813    0.02124
 31 Ir   -0.16118    0.04993   -0.70522
 32 Pt   -0.01927    0.05323    0.02007
 33 Ag    0.01327   -0.07657   -0.05459
 34 Ir    0.35519    0.17995    0.64363
 35 Ru   -0.17139    0.21949    0.28273
 36 Ir    0.13579   -0.05664    0.11683
 37 Ir   -0.20209    0.08871   -0.30936
 38 Pt    0.00758   -0.04429    0.00250
 39 Ag   -0.12384    0.14122   -0.04289
 40 Ir    0.03105   -0.17143    0.47168
 41 Pt    0.04907    0.06901    0.03586
 42 Ir   -0.24495    0.04870    0.04186
 43 Ir    0.25003    0.15015    0.45286
 44 Ag   -0.00574   -0.05983   -0.08448
 45 O    -0.81167   -0.85594   -1.33779
 46 H     0.76971    0.65277   -0.02772

System changes: positions 

Initializing position-dependent things.

Density initialized from wave functions
                                             
                                             
                                             
                                             
                                             
                                             
                                             
                                             
                H Ir    Ir     Ag            
            AgO                              
                  AIr     Pt    Ru           
       Ir    IIr    IPt     Pt               
                                             
         Ru    Ir    PIr    Ag     Ir        
                                             
                Ag     Ag     Ag             
           Ir    PPt    RPt    Ir            
                                             
            Ir    IAg    AAg    Pt           
       Ag     Ir     Ir                      
             Ir     Ir     Ir                
        Ag     Ag     Ir                     
                                             
                                             
                                             
                                             
                                             

Positions:
   0 Ag     0.000000    1.621936   10.000000    ( 0.0000,  0.0000,  0.0000)
   1 Ag     2.809275    1.621936   10.000000    ( 0.0000,  0.0000,  0.0000)
   2 Ir     5.618550    1.621936   10.000000    ( 0.0000,  0.0000,  0.0000)
   3 Ir     1.404638    4.054840   10.000000    ( 0.0000,  0.0000,  0.0000)
   4 Ir     4.213913    4.054840   10.000000    ( 0.0000,  0.0000,  0.0000)
   5 Ir     7.023188    4.054840   10.000000    ( 0.0000,  0.0000,  0.0000)
   6 Ir     2.809275    6.487743   10.000000    ( 0.0000,  0.0000,  0.0000)
   7 Ag     5.618550    6.487743   10.000000    ( 0.0000,  0.0000,  0.0000)
   8 Pt     8.427826    6.487743   10.000000    ( 0.0000,  0.0000,  0.0000)
   9 Ag     0.000000    0.000000   12.293764    ( 0.0000,  0.0000,  0.0000)
  10 Ir     2.809275    0.000000   12.293764    ( 0.0000,  0.0000,  0.0000)
  11 Ir     5.618550    0.000000   12.293764    ( 0.0000,  0.0000,  0.0000)
  12 Ir     1.404638    2.432904   12.293764    ( 0.0000,  0.0000,  0.0000)
  13 Ag     4.213913    2.432904   12.293764    ( 0.0000,  0.0000,  0.0000)
  14 Ag     7.023188    2.432904   12.293764    ( 0.0000,  0.0000,  0.0000)
  15 Pt     2.809275    4.865807   12.293764    ( 0.0000,  0.0000,  0.0000)
  16 Ru     5.618550    4.865807   12.293764    ( 0.0000,  0.0000,  0.0000)
  17 Ir     8.427826    4.865807   12.293764    ( 0.0000,  0.0000,  0.0000)
  18 Ir     1.433499    0.792908   14.609725    ( 0.0000,  0.0000,  0.0000)
  19 Pt     4.195315    0.732179   14.620328    ( 0.0000,  0.0000,  0.0000)
  20 Pt     7.040534    0.805950   14.643257    ( 0.0000,  0.0000,  0.0000)
  21 Ag     2.791189    3.266304   14.625663    ( 0.0000,  0.0000,  0.0000)
  22 Ag     5.617918    3.230896   14.634277    ( 0.0000,  0.0000,  0.0000)
  23 Ag     8.466493    3.241493   14.605932    ( 0.0000,  0.0000,  0.0000)
  24 Pt     4.234094    5.669719   14.595441    ( 0.0000,  0.0000,  0.0000)
  25 Ag     7.020364    5.622255   14.593032    ( 0.0000,  0.0000,  0.0000)
  26 Ir     9.815477    5.736551   14.541687    ( 0.0000,  0.0000,  0.0000)
  27 Ru     0.101194    1.642189   16.929391    ( 0.0000,  0.0000,  0.0000)
  28 Ir     2.751465    1.562010   16.919252    ( 0.0000,  0.0000,  0.0000)
  29 Ir     5.552781    1.587503   16.883697    ( 0.0000,  0.0000,  0.0000)
  30 Ir     1.346965    4.007291   17.035744    ( 0.0000,  0.0000,  0.0000)
  31 Ir     4.198095    3.978580   16.941013    ( 0.0000,  0.0000,  0.0000)
  32 Pt     7.130279    4.065613   16.999486    ( 0.0000,  0.0000,  0.0000)
  33 Ag     2.758264    6.462701   16.786297    ( 0.0000,  0.0000,  0.0000)
  34 Ir     5.721114    6.577308   16.944080    ( 0.0000,  0.0000,  0.0000)
  35 Ru     8.373589    6.492916   16.911778    ( 0.0000,  0.0000,  0.0000)
  36 Ir    -0.013896   -0.066783   18.994409    ( 0.0000,  0.0000,  0.0000)
  37 Ir     2.790232    0.050695   19.405794    ( 0.0000,  0.0000,  0.0000)
  38 Pt     5.645359   -0.049882   19.116316    ( 0.0000,  0.0000,  0.0000)
  39 Ag     1.399707    2.427864   19.565409    ( 0.0000,  0.0000,  0.0000)
  40 Ir     4.241143    2.427315   19.015620    ( 0.0000,  0.0000,  0.0000)
  41 Pt     6.972532    2.311674   19.138480    ( 0.0000,  0.0000,  0.0000)
  42 Ir     2.896870    4.879416   19.042513    ( 0.0000,  0.0000,  0.0000)
  43 Ir     5.494072    4.917102   19.023802    ( 0.0000,  0.0000,  0.0000)
  44 Ag     8.410457    4.854785   19.541040    ( 0.0000,  0.0000,  0.0000)
  45 O      2.757070   -0.041539   21.172713    ( 0.0000,  0.0000,  0.0000)
  46 H      3.424272    0.601078   21.832111    ( 0.0000,  0.0000,  0.0000)

Unit cell:
           periodic     x           y           z      points  spacing
  1. axis:    yes    8.445283    0.000000    0.000000    35     0.2090
  2. axis:    yes    4.222641    7.313829    0.000000    35     0.2090
  3. axis:    no     0.000000    0.000000   29.175054   135     0.2161

  Lengths:   8.445283   8.445283  29.175054
  Angles:   90.000000  90.000000  60.000000

Effective grid spacing dv^(1/3) = 0.2217

                     log10-error:    total        iterations:
           time      wfs    density  energy       fermi  poisson
iter:   1  21:42:17  -1.74   +inf  -270.907356    3             
iter:   2  21:43:18  -2.02  -1.98  -287.498497    36            
iter:   3  21:44:20  -2.09  -1.56  -277.041231    3             
iter:   4  21:45:22  -2.81  -1.65  -268.447358    4             
iter:   5  21:46:24  -4.04  -2.34  -268.144265    3             
iter:   6  21:47:28  -3.85  -2.64  -268.093507    2             
iter:   7  21:48:30  -3.49  -2.61  -268.017148    3             
iter:   8  21:49:32  -3.77  -2.59  -267.947866    3             
iter:   9  21:50:35  -4.46  -2.81  -267.921856    3             
iter:  10  21:51:37  -4.46  -2.92  -267.940814    2             
iter:  11  21:52:39  -4.62  -2.85  -267.943841    2             
iter:  12  21:53:42  -4.67  -2.76  -267.912959    2             
iter:  13  21:54:45  -5.40  -3.17  -267.905182    2             
iter:  14  21:55:47  -5.74  -3.39  -267.905721    3             
iter:  15  21:56:49  -5.90  -3.42  -267.905378    2             
iter:  16  21:57:53  -5.78  -3.53  -267.905588    2             
iter:  17  21:58:56  -5.70  -3.56  -267.905758    2             
iter:  18  21:59:58  -5.99  -3.29  -267.905388    2             
iter:  19  22:00:59  -6.24  -3.73  -267.904247    2             
iter:  20  22:02:14  -6.07  -3.72  -267.905157    2             
iter:  21  22:03:22  -6.18  -3.72  -267.904875    2             
iter:  22  22:04:21  -6.46  -4.00  -267.904587    2             
iter:  23  22:05:10  -6.76  -4.09  -267.904152    2             
iter:  24  22:05:58  -6.82  -3.79  -267.905034    2             
iter:  25  22:07:00  -6.85  -3.95  -267.904254    2             
iter:  26  22:08:02  -6.73  -4.06  -267.904772    2             
iter:  27  22:09:04  -6.67  -4.01  -267.904686    2             
iter:  28  22:10:05  -7.31  -4.13  -267.904466    2             
iter:  29  22:11:08  -7.42  -4.29  -267.904246    2             

Converged after 29 iterations.

Dipole moment: (25.044623, 17.352870, 0.281050) |e|*Ang

Energy contributions relative to reference atoms: (reference = -16429291.423757)

Kinetic:       -147.160073
Potential:      +89.595755
External:        +0.000000
XC:            -202.839421
Entropy (-ST):   -2.137454
Local:           -6.431780
--------------------------
Free energy:   -268.972973
Extrapolated:  -267.904246

Fermi level: 1.48420

Showing only first 2 kpts
 Kpt  Band  Eigenvalues  Occupancy
  0   357      1.45117    0.14546
  0   358      1.48662    0.12349
  0   359      1.51039    0.10873
  0   360      1.55233    0.08399

  1   357      1.34836    0.19888
  1   358      1.37337    0.18795
  1   359      1.44202    0.15098
  1   360      1.45579    0.14264



Forces in eV/Ang:
  0 Ag   -0.41864    0.15270   -1.06289
  1 Ag    0.25090    0.22850   -0.86417
  2 Ir    0.48999   -0.16848    0.03663
  3 Ir   -0.09854    1.23184    1.43150
  4 Ir    0.42931    0.39409    0.85937
  5 Ir   -0.33786   -0.02818    1.19668
  6 Ir   -1.71251   -0.49556    0.73470
  7 Ag   -0.11907   -0.34512   -0.95572
  8 Pt    1.07774   -0.39281    0.48974
  9 Ag    0.15259    0.03071    0.19618
 10 Ir   -0.02372   -0.42130    1.04028
 11 Ir   -0.66132   -0.79044   -0.48707
 12 Ir    0.42929    0.09397    0.22350
 13 Ag   -0.02597   -0.03465    0.20384
 14 Ag    0.05578    0.07654    0.14395
 15 Pt   -0.14088   -0.03675   -0.55071
 16 Ru    0.66881    0.48246   -1.38739
 17 Ir    0.08611    0.30686   -1.27248
 18 Ir   -0.02014   -0.00332    0.12032
 19 Pt   -0.02613   -0.06237    0.03855
 20 Pt    0.01685   -0.03545   -0.05247
 21 Ag   -0.05244   -0.12193    0.05698
 22 Ag    0.01501   -0.01015   -0.03999
 23 Ag    0.01729   -0.01012    0.04580
 24 Pt    0.08614    0.01794    0.03153
 25 Ag   -0.02623    0.08377    0.09682
 26 Ir   -0.08328    0.02012    0.02066
 27 Ru    0.06214   -0.03932    0.00610
 28 Ir    0.17873   -0.03529    0.19203
 29 Ir   -0.02139    0.06120    0.03852
 30 Ir    0.09110   -0.05262    0.01168
 31 Ir   -0.10710   -0.05330    0.24028
 32 Pt   -0.08357    0.01212    0.05128
 33 Ag    0.05795   -0.05502    0.04333
 34 Ir    0.05397   -0.06774    0.18154
 35 Ru   -0.00794    0.17279    0.13276
 36 Ir   -0.00996   -0.09850    0.20640
 37 Ir   -0.00373    0.08832   -5.89326
 38 Pt    0.01273    0.00581    0.09142
 39 Ag   -0.16187    0.24558   -0.07062
 40 Ir    0.11195    0.14086    0.06677
 41 Pt   -0.04378    0.07735   -0.00153
 42 Ir    0.07700   -0.05267   -0.18092
 43 Ir   -0.11680   -0.13255    0.14324
 44 Ag   -0.01398   -0.03131   -0.09739
 45 O     1.81813    1.75010    7.08433
 46 H    -2.00404   -2.10071   -2.41807

System changes: positions 

Initializing position-dependent things.

Density initialized from wave functions
                                             
                                             
                                             
                                             
                                             
                                             
                                             
                                             
                H Ir    Ir     Ag            
            AgO                              
                  AIr     Pt    Ru           
             IIr    IPt     Pt               
       Ir                                    
         Ru    Ir    PIr    Ag     Ir        
                                             
                Ag     Ag     Ag             
           Ir    PPt    RPt    Ir            
                                             
            Ir    IAg    AAg    Pt           
       Ag     Ir     Ir                      
             Ir     Ir     Ir                
        Ag     Ag     Ir                     
                                             
                                             
                                             
                                             
                                             

Positions:
   0 Ag     0.000000    1.621936   10.000000    ( 0.0000,  0.0000,  0.0000)
   1 Ag     2.809275    1.621936   10.000000    ( 0.0000,  0.0000,  0.0000)
   2 Ir     5.618550    1.621936   10.000000    ( 0.0000,  0.0000,  0.0000)
   3 Ir     1.404638    4.054840   10.000000    ( 0.0000,  0.0000,  0.0000)
   4 Ir     4.213913    4.054840   10.000000    ( 0.0000,  0.0000,  0.0000)
   5 Ir     7.023188    4.054840   10.000000    ( 0.0000,  0.0000,  0.0000)
   6 Ir     2.809275    6.487743   10.000000    ( 0.0000,  0.0000,  0.0000)
   7 Ag     5.618550    6.487743   10.000000    ( 0.0000,  0.0000,  0.0000)
   8 Pt     8.427826    6.487743   10.000000    ( 0.0000,  0.0000,  0.0000)
   9 Ag     0.000000    0.000000   12.293764    ( 0.0000,  0.0000,  0.0000)
  10 Ir     2.809275    0.000000   12.293764    ( 0.0000,  0.0000,  0.0000)
  11 Ir     5.618550    0.000000   12.293764    ( 0.0000,  0.0000,  0.0000)
  12 Ir     1.404638    2.432904   12.293764    ( 0.0000,  0.0000,  0.0000)
  13 Ag     4.213913    2.432904   12.293764    ( 0.0000,  0.0000,  0.0000)
  14 Ag     7.023188    2.432904   12.293764    ( 0.0000,  0.0000,  0.0000)
  15 Pt     2.809275    4.865807   12.293764    ( 0.0000,  0.0000,  0.0000)
  16 Ru     5.618550    4.865807   12.293764    ( 0.0000,  0.0000,  0.0000)
  17 Ir     8.427826    4.865807   12.293764    ( 0.0000,  0.0000,  0.0000)
  18 Ir     1.435476    0.792422   14.601165    ( 0.0000,  0.0000,  0.0000)
  19 Pt     4.195512    0.735448   14.614511    ( 0.0000,  0.0000,  0.0000)
  20 Pt     7.039005    0.805909   14.642226    ( 0.0000,  0.0000,  0.0000)
  21 Ag     2.790556    3.269167   14.616082    ( 0.0000,  0.0000,  0.0000)
  22 Ag     5.618054    3.230443   14.631940    ( 0.0000,  0.0000,  0.0000)
  23 Ag     8.464957    3.241545   14.605751    ( 0.0000,  0.0000,  0.0000)
  24 Pt     4.232409    5.670454   14.595537    ( 0.0000,  0.0000,  0.0000)
  25 Ag     7.020149    5.619486   14.590239    ( 0.0000,  0.0000,  0.0000)
  26 Ir     9.818255    5.737333   14.536893    ( 0.0000,  0.0000,  0.0000)
  27 Ru     0.092826    1.649832   16.927459    ( 0.0000,  0.0000,  0.0000)
  28 Ir     2.748064    1.594957   16.895727    ( 0.0000,  0.0000,  0.0000)
  29 Ir     5.551766    1.592546   16.888107    ( 0.0000,  0.0000,  0.0000)
  30 Ir     1.349800    4.008327   17.029017    ( 0.0000,  0.0000,  0.0000)
  31 Ir     4.204043    3.976581   16.971165    ( 0.0000,  0.0000,  0.0000)
  32 Pt     7.129688    4.061194   16.998475    ( 0.0000,  0.0000,  0.0000)
  33 Ag     2.758156    6.468703   16.792557    ( 0.0000,  0.0000,  0.0000)
  34 Ir     5.692964    6.567028   16.899427    ( 0.0000,  0.0000,  0.0000)
  35 Ru     8.386713    6.482304   16.889523    ( 0.0000,  0.0000,  0.0000)
  36 Ir    -0.010988   -0.061820   18.991135    ( 0.0000,  0.0000,  0.0000)
  37 Ir     2.794023    0.027420   19.305726    ( 0.0000,  0.0000,  0.0000)
  38 Pt     5.639431   -0.048901   19.120460    ( 0.0000,  0.0000,  0.0000)
  39 Ag     1.407262    2.421833   19.562965    ( 0.0000,  0.0000,  0.0000)
  40 Ir     4.236648    2.427191   18.999181    ( 0.0000,  0.0000,  0.0000)
  41 Pt     6.968638    2.309705   19.134539    ( 0.0000,  0.0000,  0.0000)
  42 Ir     2.912068    4.879174   19.041323    ( 0.0000,  0.0000,  0.0000)
  43 Ir     5.493110    4.920280   19.008071    ( 0.0000,  0.0000,  0.0000)
  44 Ag     8.409775    4.862704   19.542752    ( 0.0000,  0.0000,  0.0000)
  45 O      2.791876   -0.005955   21.321331    ( 0.0000,  0.0000,  0.0000)
  46 H      3.396811    0.583546   21.864347    ( 0.0000,  0.0000,  0.0000)

Unit cell:
           periodic     x           y           z      points  spacing
  1. axis:    yes    8.445283    0.000000    0.000000    35     0.2090
  2. axis:    yes    4.222641    7.313829    0.000000    35     0.2090
  3. axis:    no     0.000000    0.000000   29.175054   135     0.2161

  Lengths:   8.445283   8.445283  29.175054
  Angles:   90.000000  90.000000  60.000000

Effective grid spacing dv^(1/3) = 0.2217

                     log10-error:    total        iterations:
           time      wfs    density  energy       fermi  poisson
iter:   1  22:12:38  -1.76   +inf  -271.263084    3             
iter:   2  22:13:42  -2.21  -2.06  -280.652030    34            
iter:   3  22:14:44  -2.37  -1.59  -274.374224    3             
iter:   4  22:15:46  -2.78  -1.76  -269.651172    3             
iter:   5  22:16:47  -3.56  -2.25  -268.923098    3             
iter:   6  22:17:51  -3.86  -2.70  -268.847211    3             
iter:   7  22:18:54  -4.42  -2.76  -268.801192    3             
iter:   8  22:19:56  -3.77  -2.84  -268.739674    3             
iter:   9  22:21:03  -3.99  -2.96  -268.979056    3             
iter:  10  22:22:06  -4.07  -2.41  -268.764044    3             
iter:  11  22:23:07  -4.26  -2.70  -268.744326    3             
iter:  12  22:24:08  -4.85  -2.85  -268.709620    3             
iter:  13  22:25:10  -5.43  -3.22  -268.703982    2             
iter:  14  22:26:13  -6.01  -3.44  -268.704568    2             
iter:  15  22:27:16  -5.83  -3.46  -268.708584    2             
iter:  16  22:28:18  -5.63  -3.28  -268.704603    2             
iter:  17  22:29:22  -5.92  -3.29  -268.704163    3             
iter:  18  22:30:24  -5.90  -3.58  -268.703508    2             
iter:  19  22:31:28  -6.08  -3.70  -268.703299    2             
iter:  20  22:32:30  -6.18  -3.63  -268.703671    2             
iter:  21  22:33:34  -6.25  -3.96  -268.704251    2             
iter:  22  22:34:36  -6.60  -3.83  -268.703134    2             
iter:  23  22:35:39  -6.52  -3.77  -268.703820    2             
iter:  24  22:36:42  -6.98  -3.95  -268.703510    2             
iter:  25  22:37:45  -7.17  -4.16  -268.703274    2             
iter:  26  22:38:47  -7.21  -4.20  -268.703624    2             
iter:  27  22:39:51  -7.14  -4.19  -268.703538    2             
iter:  28  22:40:53  -7.26  -4.26  -268.703110    2             
iter:  29  22:41:57  -7.27  -4.06  -268.703461    2             
iter:  30  22:43:00  -7.47  -4.40  -268.703417    2             

Converged after 30 iterations.

Dipole moment: (22.773673, 15.655547, 0.057665) |e|*Ang

Energy contributions relative to reference atoms: (reference = -16429291.423757)

Kinetic:       -154.962461
Potential:      +96.565815
External:        +0.000000
XC:            -202.908223
Entropy (-ST):   -2.123675
Local:           -6.336711
--------------------------
Free energy:   -269.765255
Extrapolated:  -268.703417

Fermi level: 1.37939

Showing only first 2 kpts
 Kpt  Band  Eigenvalues  Occupancy
  0   357      1.34424    0.14675
  0   358      1.39311    0.11644
  0   359      1.40893    0.10667
  0   360      1.45276    0.08109

  1   357      1.24388    0.19874
  1   358      1.27783    0.18353
  1   359      1.32699    0.15702
  1   360      1.35368    0.14098



Forces in eV/Ang:
  0 Ag   -0.41758    0.15546   -1.05712
  1 Ag    0.25056    0.22814   -0.86088
  2 Ir    0.49351   -0.16815    0.03834
  3 Ir   -0.09652    1.23837    1.42860
  4 Ir    0.42726    0.39366    0.86906
  5 Ir   -0.33464   -0.03128    1.20593
  6 Ir   -1.71439   -0.50353    0.74039
  7 Ag   -0.11900   -0.34505   -0.95190
  8 Pt    1.07151   -0.39137    0.49635
  9 Ag    0.14025    0.02693    0.17417
 10 Ir   -0.02715   -0.41789    1.02396
 11 Ir   -0.64856   -0.79020   -0.49628
 12 Ir    0.39964    0.11151    0.18284
 13 Ag   -0.01961   -0.03024    0.17934
 14 Ag    0.05734    0.07554    0.13739
 15 Pt   -0.13165   -0.03376   -0.59544
 16 Ru    0.65618    0.47709   -1.38945
 17 Ir    0.09839    0.30046   -1.27450
 18 Ir    0.00375   -0.00224    0.12217
 19 Pt   -0.02250   -0.09619    0.08303
 20 Pt    0.00101   -0.01951   -0.03821
 21 Ag   -0.00703   -0.08665    0.11840
 22 Ag   -0.02055    0.00568    0.01272
 23 Ag    0.02633   -0.01388    0.02375
 24 Pt    0.07726    0.02233    0.03043
 25 Ag   -0.00258    0.09247    0.06053
 26 Ir   -0.11079    0.05849    0.06639
 27 Ru    0.11638   -0.08998    0.02176
 28 Ir    0.08104   -0.32753    0.29000
 29 Ir    0.01170   -0.02569   -0.05368
 30 Ir    0.02391   -0.03480    0.01655
 31 Ir   -0.14354    0.01812   -0.45602
 32 Pt   -0.03241    0.03737    0.02748
 33 Ag    0.02248   -0.07098   -0.03232
 34 Ir    0.28174    0.12243    0.52992
 35 Ru   -0.12176    0.19716    0.24075
 36 Ir    0.10736   -0.06009    0.12317
 37 Ir   -0.17240    0.06818   -0.95007
 38 Pt    0.00684   -0.03921    0.01656
 39 Ag   -0.13240    0.16389   -0.05282
 40 Ir    0.04218   -0.09136    0.35780
 41 Pt    0.03499    0.07256    0.00893
 42 Ir   -0.16075    0.02004   -0.03331
 43 Ir    0.16058    0.08276    0.35738
 44 Ag   -0.00571   -0.05443   -0.09682
 45 O     0.11712    0.08891    0.27640
 46 H    -0.20678   -0.31156   -0.85468

System changes: positions 

Initializing position-dependent things.

Density initialized from wave functions
                                             
                                             
                                             
                                             
                                             
                                             
                                             
                                             
                H Ir    Ir     Ag            
            AgO                              
                  AIr     Pt    Ru           
       Ir    IIr    IPt     Pt               
                                             
         Ru    Ir    PIr    Ag     Ir        
                                             
                Ag     Ag     Ag             
           Ir    PPt    RPt    Ir            
                                             
            Ir    IAg    AAg    Pt           
       Ag     Ir     Ir                      
             Ir     Ir     Ir                
        Ag     Ag     Ir                     
                                             
                                             
                                             
                                             
                                             

Positions:
   0 Ag     0.000000    1.621936   10.000000    ( 0.0000,  0.0000,  0.0000)
   1 Ag     2.809275    1.621936   10.000000    ( 0.0000,  0.0000,  0.0000)
   2 Ir     5.618550    1.621936   10.000000    ( 0.0000,  0.0000,  0.0000)
   3 Ir     1.404638    4.054840   10.000000    ( 0.0000,  0.0000,  0.0000)
   4 Ir     4.213913    4.054840   10.000000    ( 0.0000,  0.0000,  0.0000)
   5 Ir     7.023188    4.054840   10.000000    ( 0.0000,  0.0000,  0.0000)
   6 Ir     2.809275    6.487743   10.000000    ( 0.0000,  0.0000,  0.0000)
   7 Ag     5.618550    6.487743   10.000000    ( 0.0000,  0.0000,  0.0000)
   8 Pt     8.427826    6.487743   10.000000    ( 0.0000,  0.0000,  0.0000)
   9 Ag     0.000000    0.000000   12.293764    ( 0.0000,  0.0000,  0.0000)
  10 Ir     2.809275    0.000000   12.293764    ( 0.0000,  0.0000,  0.0000)
  11 Ir     5.618550    0.000000   12.293764    ( 0.0000,  0.0000,  0.0000)
  12 Ir     1.404638    2.432904   12.293764    ( 0.0000,  0.0000,  0.0000)
  13 Ag     4.213913    2.432904   12.293764    ( 0.0000,  0.0000,  0.0000)
  14 Ag     7.023188    2.432904   12.293764    ( 0.0000,  0.0000,  0.0000)
  15 Pt     2.809275    4.865807   12.293764    ( 0.0000,  0.0000,  0.0000)
  16 Ru     5.618550    4.865807   12.293764    ( 0.0000,  0.0000,  0.0000)
  17 Ir     8.427826    4.865807   12.293764    ( 0.0000,  0.0000,  0.0000)
  18 Ir     1.434664    0.792484   14.616449    ( 0.0000,  0.0000,  0.0000)
  19 Pt     4.193457    0.725522   14.624764    ( 0.0000,  0.0000,  0.0000)
  20 Pt     7.039962    0.804244   14.639521    ( 0.0000,  0.0000,  0.0000)
  21 Ag     2.790206    3.260069   14.631410    ( 0.0000,  0.0000,  0.0000)
  22 Ag     5.616327    3.231140   14.634183    ( 0.0000,  0.0000,  0.0000)
  23 Ag     8.468034    3.240364   14.607908    ( 0.0000,  0.0000,  0.0000)
  24 Pt     4.239996    5.671952   14.598086    ( 0.0000,  0.0000,  0.0000)
  25 Ag     7.019981    5.628897   14.597081    ( 0.0000,  0.0000,  0.0000)
  26 Ir     9.807304    5.741759   14.545138    ( 0.0000,  0.0000,  0.0000)
  27 Ru     0.107246    1.638046   16.930364    ( 0.0000,  0.0000,  0.0000)
  28 Ir     2.757132    1.549362   16.933361    ( 0.0000,  0.0000,  0.0000)
  29 Ir     5.553251    1.587842   16.881292    ( 0.0000,  0.0000,  0.0000)
  30 Ir     1.350363    4.004727   17.034194    ( 0.0000,  0.0000,  0.0000)
  31 Ir     4.188646    3.978969   16.917592    ( 0.0000,  0.0000,  0.0000)
  32 Pt     7.127156    4.066729   17.001446    ( 0.0000,  0.0000,  0.0000)
  33 Ag     2.760208    6.459326   16.786463    ( 0.0000,  0.0000,  0.0000)
  34 Ir     5.732180    6.582734   16.968702    ( 0.0000,  0.0000,  0.0000)
  35 Ru     8.369381    6.504853   16.922198    ( 0.0000,  0.0000,  0.0000)
  36 Ir    -0.003780   -0.069764   19.003499    ( 0.0000,  0.0000,  0.0000)
  37 Ir     2.777508    0.046220   19.276138    ( 0.0000,  0.0000,  0.0000)
  38 Pt     5.643366   -0.052740   19.119641    ( 0.0000,  0.0000,  0.0000)
  39 Ag     1.391666    2.439362   19.559781    ( 0.0000,  0.0000,  0.0000)
  40 Ir     4.242876    2.420223   19.037849    ( 0.0000,  0.0000,  0.0000)
  41 Pt     6.973690    2.317010   19.137292    ( 0.0000,  0.0000,  0.0000)
  42 Ir     2.890560    4.880756   19.038501    ( 0.0000,  0.0000,  0.0000)
  43 Ir     5.506485    4.924900   19.046467    ( 0.0000,  0.0000,  0.0000)
  44 Ag     8.409678    4.853643   19.533456    ( 0.0000,  0.0000,  0.0000)
  45 O      2.790357   -0.010166   21.274900    ( 0.0000,  0.0000,  0.0000)
  46 H      3.386131    0.558453   21.766170    ( 0.0000,  0.0000,  0.0000)

Unit cell:
           periodic     x           y           z      points  spacing
  1. axis:    yes    8.445283    0.000000    0.000000    35     0.2090
  2. axis:    yes    4.222641    7.313829    0.000000    35     0.2090
  3. axis:    no     0.000000    0.000000   29.175054   135     0.2161

  Lengths:   8.445283   8.445283  29.175054
  Angles:   90.000000  90.000000  60.000000

Effective grid spacing dv^(1/3) = 0.2217

                     log10-error:    total        iterations:
           time      wfs    density  energy       fermi  poisson
iter:   1  22:44:33  -1.87   +inf  -279.368868    4             
iter:   2  22:45:35  -0.98  -1.67  -440.502046    37            
iter:   3  22:46:37  -1.45  -1.12  -274.176226    36            
iter:   4  22:47:52  -2.29  -1.82  -269.189858    35            
iter:   5  22:48:55  -3.76  -2.37  -268.932293    3             
iter:   6  22:49:55  -3.99  -2.64  -268.937419    3             
iter:   7  22:50:56  -4.06  -2.57  -268.885108    3             
iter:   8  22:51:56  -4.00  -2.68  -268.820816    3             
iter:   9  22:52:59  -4.15  -2.99  -268.809841    3             
iter:  10  22:54:00  -4.46  -3.12  -268.823705    3             
iter:  11  22:55:03  -4.92  -2.86  -268.805501    3             
iter:  12  22:56:03  -4.94  -3.19  -268.812348    3             
iter:  13  22:57:04  -5.31  -3.15  -268.802730    2             
iter:  14  22:58:08  -5.67  -3.21  -268.801343    2             
iter:  15  22:59:13  -5.78  -3.40  -268.801604    2             
iter:  16  23:00:16  -5.79  -3.51  -268.800968    2             
iter:  17  23:01:18  -5.86  -3.40  -268.802646    2             
iter:  18  23:02:21  -5.67  -3.50  -268.805332    3             
iter:  19  23:03:24  -5.99  -3.40  -268.800657    2             
iter:  20  23:04:26  -6.27  -3.66  -268.800898    2             
iter:  21  23:05:28  -6.45  -3.87  -268.801440    2             
iter:  22  23:06:30  -6.44  -3.86  -268.800594    2             
iter:  23  23:07:33  -6.67  -3.92  -268.801456    2             
iter:  24  23:08:34  -6.61  -3.87  -268.801733    2             
iter:  25  23:09:35  -6.80  -3.83  -268.800557    2             
iter:  26  23:10:38  -6.86  -4.09  -268.800737    2             
iter:  27  23:11:41  -7.11  -4.26  -268.801186    2             
iter:  28  23:12:42  -7.40  -4.08  -268.800828    2             
iter:  29  23:13:44  -7.63  -4.27  -268.801077    2             

Converged after 29 iterations.

Dipole moment: (24.974187, 15.736473, 0.050788) |e|*Ang

Energy contributions relative to reference atoms: (reference = -16429291.423757)

Kinetic:       -156.618728
Potential:      +98.321166
External:        +0.000000
XC:            -203.093322
Entropy (-ST):   -2.126755
Local:           -6.346816
--------------------------
Free energy:   -269.864455
Extrapolated:  -268.801077

Fermi level: 1.37578

Showing only first 2 kpts
 Kpt  Band  Eigenvalues  Occupancy
  0   357      1.34258    0.14556
  0   358      1.38194    0.12115
  0   359      1.40144    0.10905
  0   360      1.44785    0.08181

  1   357      1.24150    0.19824
  1   358      1.27675    0.18229
  1   359      1.31960    0.15922
  1   360      1.35292    0.13923



Forces in eV/Ang:
  0 Ag   -0.41440    0.15487   -1.06337
  1 Ag    0.24710    0.22738   -0.86115
  2 Ir    0.49173   -0.16838    0.04363
  3 Ir   -0.11044    1.22821    1.45177
  4 Ir    0.42886    0.39621    0.88103
  5 Ir   -0.33217   -0.03614    1.19755
  6 Ir   -1.71687   -0.49542    0.74648
  7 Ag   -0.12012   -0.34129   -0.95491
  8 Pt    1.07424   -0.39263    0.49889
  9 Ag    0.16418    0.03085    0.21413
 10 Ir   -0.02321   -0.42084    1.04323
 11 Ir   -0.66647   -0.78877   -0.47206
 12 Ir    0.43621    0.08980    0.25257
 13 Ag   -0.03182   -0.03832    0.22059
 14 Ag    0.05686    0.07915    0.15221
 15 Pt   -0.14896   -0.04434   -0.54186
 16 Ru    0.66743    0.48630   -1.35770
 17 Ir    0.08458    0.31232   -1.24493
 18 Ir   -0.02972   -0.01870    0.11729
 19 Pt    0.00000    0.03872   -0.01012
 20 Pt    0.02281   -0.02861    0.01636
 21 Ag   -0.06466   -0.09799   -0.01002
 22 Ag    0.05764   -0.02281   -0.06580
 23 Ag   -0.02153    0.01219    0.05491
 24 Pt    0.01917   -0.01857    0.04148
 25 Ag   -0.03562   -0.00537    0.11537
 26 Ir    0.01309   -0.05661   -0.00169
 27 Ru   -0.04239    0.02860    0.03611
 28 Ir    0.19245    0.23555    0.17778
 29 Ir   -0.00803    0.09944    0.15165
 30 Ir    0.06393   -0.05133    0.00256
 31 Ir    0.07488   -0.10323    0.84987
 32 Pt   -0.03430   -0.01253    0.02954
 33 Ag    0.05422    0.01371    0.06033
 34 Ir   -0.07385   -0.22510    0.05235
 35 Ru    0.12467    0.00930    0.11337
 36 Ir   -0.16029   -0.01151    0.16081
 37 Ir   -0.00908   -0.04402   -0.81150
 38 Pt    0.09080    0.07099    0.04735
 39 Ag   -0.05635    0.09311    0.00775
 40 Ir    0.11495    0.25439   -0.38088
 41 Pt   -0.10385   -0.00530   -0.00459
 42 Ir    0.22638   -0.08471   -0.15776
 43 Ir   -0.32904   -0.23573   -0.17779
 44 Ag   -0.04942    0.06428   -0.03243
 45 O    -1.16411   -1.09430   -0.81373
 46 H     1.02263    0.86202    0.33944

System changes: positions 

Initializing position-dependent things.

Density initialized from wave functions
                                             
                                             
                                             
                                             
                                             
                                             
                                             
                               Ag            
                H Ir    Ir                   
            AgO           Ir    Ru           
                  AIr     Pt                 
       Ir    IIr    IPt     Pt               
                                             
         Ru    Ir     Ir    Ag     Ir        
                Ag     Ag     Ag             
                                             
           Ir    PPt    RPt    Ir            
                                             
            Ir    IAg    AAg    Pt           
       Ag     Ir     Ir                      
             Ir     Ir     Ir                
        Ag     Ag     Ir                     
                                             
                                             
                                             
                                             
                                             

Positions:
   0 Ag     0.000000    1.621936   10.000000    ( 0.0000,  0.0000,  0.0000)
   1 Ag     2.809275    1.621936   10.000000    ( 0.0000,  0.0000,  0.0000)
   2 Ir     5.618550    1.621936   10.000000    ( 0.0000,  0.0000,  0.0000)
   3 Ir     1.404638    4.054840   10.000000    ( 0.0000,  0.0000,  0.0000)
   4 Ir     4.213913    4.054840   10.000000    ( 0.0000,  0.0000,  0.0000)
   5 Ir     7.023188    4.054840   10.000000    ( 0.0000,  0.0000,  0.0000)
   6 Ir     2.809275    6.487743   10.000000    ( 0.0000,  0.0000,  0.0000)
   7 Ag     5.618550    6.487743   10.000000    ( 0.0000,  0.0000,  0.0000)
   8 Pt     8.427826    6.487743   10.000000    ( 0.0000,  0.0000,  0.0000)
   9 Ag     0.000000    0.000000   12.293764    ( 0.0000,  0.0000,  0.0000)
  10 Ir     2.809275    0.000000   12.293764    ( 0.0000,  0.0000,  0.0000)
  11 Ir     5.618550    0.000000   12.293764    ( 0.0000,  0.0000,  0.0000)
  12 Ir     1.404638    2.432904   12.293764    ( 0.0000,  0.0000,  0.0000)
  13 Ag     4.213913    2.432904   12.293764    ( 0.0000,  0.0000,  0.0000)
  14 Ag     7.023188    2.432904   12.293764    ( 0.0000,  0.0000,  0.0000)
  15 Pt     2.809275    4.865807   12.293764    ( 0.0000,  0.0000,  0.0000)
  16 Ru     5.618550    4.865807   12.293764    ( 0.0000,  0.0000,  0.0000)
  17 Ir     8.427826    4.865807   12.293764    ( 0.0000,  0.0000,  0.0000)
  18 Ir     1.431852    0.790899   14.638569    ( 0.0000,  0.0000,  0.0000)
[...]
  29 Ir     5.559608    1.586219   16.886680    ( 0.0000,  0.0000,  0.0000)
  30 Ir     1.345326    3.963440   17.031760    ( 0.0000,  0.0000,  0.0000)
  31 Ir     4.183361    3.965108   16.952591    ( 0.0000,  0.0000,  0.0000)
  32 Pt     7.124684    4.051723   17.006936    ( 0.0000,  0.0000,  0.0000)
  33 Ag     2.732894    6.435860   16.777955    ( 0.0000,  0.0000,  0.0000)
  34 Ir     5.682223    6.538709   16.928440    ( 0.0000,  0.0000,  0.0000)
  35 Ru     8.364630    6.487690   16.943805    ( 0.0000,  0.0000,  0.0000)
  36 Ir    -0.056877   -0.090255   19.000709    ( 0.0000,  0.0000,  0.0000)
  37 Ir     2.736211    0.020257   19.106948    ( 0.0000,  0.0000,  0.0000)
  38 Pt     5.633395   -0.053547   19.131078    ( 0.0000,  0.0000,  0.0000)
  39 Ag     1.354801    2.439391   19.571584    ( 0.0000,  0.0000,  0.0000)
  40 Ir     4.234696    2.426842   19.017121    ( 0.0000,  0.0000,  0.0000)
  41 Pt     6.946292    2.314265   19.152048    ( 0.0000,  0.0000,  0.0000)
  42 Ir     2.875435    4.861042   19.040691    ( 0.0000,  0.0000,  0.0000)
  43 Ir     5.462008    4.893635   19.034740    ( 0.0000,  0.0000,  0.0000)
  44 Ag     8.389829    4.862903   19.536083    ( 0.0000,  0.0000,  0.0000)
  45 O      2.653986    0.023862   21.109748    ( 0.0000,  0.0000,  0.0000)
  46 H      3.499340    0.405709   21.463691    ( 0.0000,  0.0000,  0.0000)

Unit cell:
           periodic     x           y           z      points  spacing
  1. axis:    yes    8.445283    0.000000    0.000000    35     0.2090
  2. axis:    yes    4.222641    7.313829    0.000000    35     0.2090
  3. axis:    no     0.000000    0.000000   29.175054   135     0.2161

  Lengths:   8.445283   8.445283  29.175054
  Angles:   90.000000  90.000000  60.000000

Effective grid spacing dv^(1/3) = 0.2217

                     log10-error:    total        iterations:
           time      wfs    density  energy       fermi  poisson
iter:   1  02:37:58  -3.08   +inf  -269.253727    3             
iter:   2  02:39:00  -3.20  -2.56  -269.762461    3             
iter:   3  02:40:02  -3.47  -2.24  -269.812021    3             
iter:   4  02:41:04  -4.03  -2.21  -269.098528    3             
iter:   5  02:42:05  -5.20  -3.32  -269.095307    2             
iter:   6  02:43:07  -5.57  -3.46  -269.094081    2             
iter:   7  02:44:09  -5.29  -3.55  -269.092230    2             
iter:   8  02:45:10  -5.43  -3.52  -269.092295    2             
iter:   9  02:46:11  -5.30  -3.53  -269.115222    2             
iter:  10  02:47:13  -5.49  -3.01  -269.092044    2             
iter:  11  02:48:15  -6.27  -3.68  -269.092459    2             
iter:  12  02:49:16  -6.59  -3.89  -269.092584    2             
iter:  13  02:50:17  -6.88  -4.06  -269.092173    2             
iter:  14  02:51:19  -6.94  -4.15  -269.092583    2             
iter:  15  02:52:21  -7.21  -4.19  -269.092693    2             
iter:  16  02:53:23  -7.32  -4.16  -269.091967    2             
iter:  17  02:54:25  -7.25  -4.06  -269.092429    2             
iter:  18  02:55:27  -7.24  -4.47  -269.092453    2             
iter:  19  02:56:28  -7.70  -4.57  -269.092227    2             

Converged after 19 iterations.

Dipole moment: (27.299090, 13.291053, 0.021718) |e|*Ang

Energy contributions relative to reference atoms: (reference = -16429291.423757)

Kinetic:       -148.040928
Potential:      +90.551411
External:        +0.000000
XC:            -204.215255
Entropy (-ST):   -2.099878
Local:           -6.337515
--------------------------
Free energy:   -270.142166
Extrapolated:  -269.092227

Fermi level: 1.36993

Showing only first 2 kpts
 Kpt  Band  Eigenvalues  Occupancy
  0   357      1.33835    0.14457
  0   358      1.38527    0.11543
  0   359      1.40250    0.10482
  0   360      1.44348    0.08099

  1   357      1.23345    0.19913
  1   358      1.27686    0.17930
  1   359      1.30471    0.16438
  1   360      1.33289    0.14789



Forces in eV/Ang:
  0 Ag   -0.41774    0.15822   -1.06466
  1 Ag    0.24744    0.22764   -0.85989
  2 Ir    0.49301   -0.17614    0.03307
  3 Ir   -0.11883    1.22735    1.41987
  4 Ir    0.41207    0.40661    0.88770
  5 Ir   -0.32978   -0.03390    1.17890
  6 Ir   -1.71286   -0.49619    0.72533
  7 Ag   -0.12005   -0.34477   -0.95417
  8 Pt    1.06957   -0.39442    0.49228
  9 Ag    0.16477    0.01549    0.21488
 10 Ir   -0.02902   -0.42582    1.09242
 11 Ir   -0.65921   -0.77956   -0.46873
 12 Ir    0.43971    0.09171    0.22619
 13 Ag   -0.02666   -0.05062    0.21749
 14 Ag    0.06705    0.06993    0.15123
 15 Pt   -0.11375   -0.08223   -0.60318
 16 Ru    0.69202    0.48730   -1.33062
 17 Ir    0.05669    0.29351   -1.22656
 18 Ir   -0.03191   -0.01141   -0.00076
 19 Pt   -0.00923    0.00332    0.00140
 20 Pt   -0.02039    0.00138   -0.00251
 21 Ag   -0.00939   -0.01861    0.01337
 22 Ag   -0.01750    0.00895   -0.00611
 23 Ag   -0.01992    0.00775   -0.01687
 24 Pt   -0.00246   -0.01625   -0.02483
 25 Ag   -0.00263   -0.01054   -0.01441
 26 Ir   -0.02063   -0.01084   -0.01831
 27 Ru   -0.02106   -0.00840    0.01217
 28 Ir   -0.01607    0.00546   -0.01298
 29 Ir    0.00523   -0.01088    0.02216
 30 Ir    0.02718    0.01288    0.03177
 31 Ir   -0.00300    0.01091    0.02126
 32 Pt   -0.03390   -0.02139    0.01063
 33 Ag    0.01953    0.00201    0.07959
 34 Ir   -0.00597   -0.00807   -0.02186
 35 Ru    0.01081    0.00262   -0.02396
 36 Ir   -0.02637    0.01509   -0.01952
 37 Ir    0.01994    0.03874   -0.00547
 38 Pt    0.01023   -0.00094   -0.00387
 39 Ag   -0.00021   -0.00756   -0.01088
 40 Ir   -0.01980   -0.03885   -0.02027
 41 Pt    0.00179   -0.01261    0.00999
 42 Ir   -0.04091   -0.03247   -0.06812
 43 Ir    0.00868   -0.02135    0.01335
 44 Ag   -0.04040    0.00301   -0.03146
 45 O     0.16595    0.05077    0.15153
 46 H    -0.11248   -0.12981   -0.05610

System changes: positions 

Initializing position-dependent things.

Density initialized from wave functions
                                             
                                             
                                             
                                             
                                             
                                             
                                             
                               Ag            
              O H Ir    Ir                   
            Ag     Ir     Pt    Ru           
                  Ag                         
       Ir    IIr    IPt     Pt               
                                             
         Ru    Ir     Ir    Ag     Ir        
                Ag     Ag     Ag             
                                             
           Ir     Pt    RPt    Ir            
                                             
            Ir     Ag    AAg    Pt           
       Ag     Ir    IIr    Ir                
                                             
         Ag    Ag     Ir                     
                                             
                                             
                                             
                                             
                                             

Positions:
   0 Ag     0.000000    1.621936   10.000000    ( 0.0000,  0.0000,  0.0000)
   1 Ag     2.809275    1.621936   10.000000    ( 0.0000,  0.0000,  0.0000)
   2 Ir     5.618550    1.621936   10.000000    ( 0.0000,  0.0000,  0.0000)
   3 Ir     1.404638    4.054840   10.000000    ( 0.0000,  0.0000,  0.0000)
   4 Ir     4.213913    4.054840   10.000000    ( 0.0000,  0.0000,  0.0000)
   5 Ir     7.023188    4.054840   10.000000    ( 0.0000,  0.0000,  0.0000)
   6 Ir     2.809275    6.487743   10.000000    ( 0.0000,  0.0000,  0.0000)
   7 Ag     5.618550    6.487743   10.000000    ( 0.0000,  0.0000,  0.0000)
   8 Pt     8.427826    6.487743   10.000000    ( 0.0000,  0.0000,  0.0000)
   9 Ag     0.000000    0.000000   12.293764    ( 0.0000,  0.0000,  0.0000)
  10 Ir     2.809275    0.000000   12.293764    ( 0.0000,  0.0000,  0.0000)
  11 Ir     5.618550    0.000000   12.293764    ( 0.0000,  0.0000,  0.0000)
  12 Ir     1.404638    2.432904   12.293764    ( 0.0000,  0.0000,  0.0000)
  13 Ag     4.213913    2.432904   12.293764    ( 0.0000,  0.0000,  0.0000)
  14 Ag     7.023188    2.432904   12.293764    ( 0.0000,  0.0000,  0.0000)
  15 Pt     2.809275    4.865807   12.293764    ( 0.0000,  0.0000,  0.0000)
  16 Ru     5.618550    4.865807   12.293764    ( 0.0000,  0.0000,  0.0000)
  17 Ir     8.427826    4.865807   12.293764    ( 0.0000,  0.0000,  0.0000)
  18 Ir     1.430250    0.778979   14.622161    ( 0.0000,  0.0000,  0.0000)
  19 Pt     4.196702    0.716061   14.626357    ( 0.0000,  0.0000,  0.0000)
  20 Pt     7.042532    0.789728   14.638270    ( 0.0000,  0.0000,  0.0000)
  21 Ag     2.789876    3.240291   14.628774    ( 0.0000,  0.0000,  0.0000)
  22 Ag     5.622275    3.221110   14.626607    ( 0.0000,  0.0000,  0.0000)
  23 Ag     8.465546    3.232809   14.609303    ( 0.0000,  0.0000,  0.0000)
  24 Pt     4.238728    5.654676   14.596189    ( 0.0000,  0.0000,  0.0000)
  25 Ag     7.022697    5.620842   14.609521    ( 0.0000,  0.0000,  0.0000)
  26 Ir     9.813271    5.726401   14.517200    ( 0.0000,  0.0000,  0.0000)
  27 Ru     0.070038    1.618695   16.927041    ( 0.0000,  0.0000,  0.0000)
  28 Ir     2.741770    1.547065   16.927217    ( 0.0000,  0.0000,  0.0000)
  29 Ir     5.556282    1.584405   16.879570    ( 0.0000,  0.0000,  0.0000)
  30 Ir     1.344454    3.956612   17.030230    ( 0.0000,  0.0000,  0.0000)
  31 Ir     4.184677    3.964438   16.951267    ( 0.0000,  0.0000,  0.0000)
  32 Pt     7.120178    4.048153   17.004008    ( 0.0000,  0.0000,  0.0000)
  33 Ag     2.730874    6.430965   16.777328    ( 0.0000,  0.0000,  0.0000)
  34 Ir     5.677537    6.533788   16.926739    ( 0.0000,  0.0000,  0.0000)
  35 Ru     8.362967    6.483403   16.936609    ( 0.0000,  0.0000,  0.0000)
  36 Ir    -0.062049   -0.093873   18.996995    ( 0.0000,  0.0000,  0.0000)
  37 Ir     2.730433    0.019865   19.110411    ( 0.0000,  0.0000,  0.0000)
  38 Pt     5.625635   -0.055825   19.125329    ( 0.0000,  0.0000,  0.0000)
  39 Ag     1.346254    2.435999   19.570922    ( 0.0000,  0.0000,  0.0000)
  40 Ir     4.231110    2.422910   19.012831    ( 0.0000,  0.0000,  0.0000)
  41 Pt     6.942056    2.309515   19.146547    ( 0.0000,  0.0000,  0.0000)
  42 Ir     2.866565    4.854546   19.035847    ( 0.0000,  0.0000,  0.0000)
  43 Ir     5.455596    4.890482   19.035480    ( 0.0000,  0.0000,  0.0000)
  44 Ag     8.376286    4.862388   19.531439    ( 0.0000,  0.0000,  0.0000)
  45 O      2.662440    0.032682   21.115370    ( 0.0000,  0.0000,  0.0000)
  46 H      3.522672    0.379289   21.462929    ( 0.0000,  0.0000,  0.0000)

Unit cell:
           periodic     x           y           z      points  spacing
  1. axis:    yes    8.445283    0.000000    0.000000    35     0.2090
  2. axis:    yes    4.222641    7.313829    0.000000    35     0.2090
  3. axis:    no     0.000000    0.000000   29.175054   135     0.2161

  Lengths:   8.445283   8.445283  29.175054
  Angles:   90.000000  90.000000  60.000000

Effective grid spacing dv^(1/3) = 0.2217

                     log10-error:    total        iterations:
           time      wfs    density  energy       fermi  poisson
iter:   1  02:57:58  -3.23   +inf  -269.184501    3             
iter:   2  02:59:00  -3.24  -2.69  -271.030280    3             
iter:   3  03:00:01  -3.49  -2.00  -269.200047    3             
iter:   4  03:01:03  -4.41  -2.62  -269.100719    3             
iter:   5  03:02:05  -5.54  -3.40  -269.099387    2             
iter:   6  03:03:07  -5.48  -3.48  -269.096494    2             
iter:   7  03:04:09  -5.63  -3.59  -269.096383    2             
iter:   8  03:05:10  -5.84  -3.67  -269.099398    2             
iter:   9  03:06:11  -5.77  -3.55  -269.096717    2             
iter:  10  03:07:13  -6.17  -3.38  -269.096924    2             
iter:  11  03:08:14  -6.31  -3.82  -269.096888    2             
iter:  12  03:09:15  -6.87  -3.99  -269.096188    2             
iter:  13  03:10:17  -7.05  -3.97  -269.096615    2             
iter:  14  03:11:18  -7.10  -4.14  -269.096795    2             
iter:  15  03:12:18  -7.39  -4.11  -269.096168    2             
iter:  16  03:13:19  -7.18  -4.07  -269.096815    2             
iter:  17  03:14:20  -7.28  -4.16  -269.096734    2             
iter:  18  03:15:20  -7.35  -4.27  -269.096339    2             
iter:  19  03:16:36  -7.67  -4.56  -269.096628    2             

Converged after 19 iterations.

Dipole moment: (27.481185, 12.585286, 0.016716) |e|*Ang

Energy contributions relative to reference atoms: (reference = -16429291.423757)

Kinetic:       -147.501528
Potential:      +90.122421
External:        +0.000000
XC:            -204.330566
Entropy (-ST):   -2.097738
Local:           -6.338087
--------------------------
Free energy:   -270.145497
Extrapolated:  -269.096628

Fermi level: 1.36824

Showing only first 2 kpts
 Kpt  Band  Eigenvalues  Occupancy
  0   357      1.33642    0.14472
  0   358      1.38378    0.11531
  0   359      1.40176    0.10424
  0   360      1.44216    0.08079

  1   357      1.23241    0.19887
  1   358      1.27502    0.17938
  1   359      1.30242    0.16471
  1   360      1.33175    0.14756



Forces in eV/Ang:
  0 Ag   -0.41803    0.15801   -1.06510
  1 Ag    0.24807    0.22817   -0.86087
  2 Ir    0.49273   -0.17700    0.03388
  3 Ir   -0.11661    1.22961    1.42412
  4 Ir    0.41227    0.40520    0.88630
  5 Ir   -0.33018   -0.03384    1.17671
  6 Ir   -1.71445   -0.49702    0.72678
  7 Ag   -0.12011   -0.34533   -0.95570
  8 Pt    1.06895   -0.39545    0.49003
  9 Ag    0.16777    0.01745    0.20431
 10 Ir   -0.03828   -0.42664    1.08470
 11 Ir   -0.65948   -0.77092   -0.48713
 12 Ir    0.43953    0.08378    0.22131
 13 Ag   -0.03306   -0.05095    0.20545
 14 Ag    0.06601    0.06595    0.13572
 15 Pt   -0.11688   -0.09152   -0.61158
 16 Ru    0.69101    0.48942   -1.34680
 17 Ir    0.04377    0.29233   -1.24280
 18 Ir   -0.02844   -0.01509   -0.01634
 19 Pt   -0.02703    0.01014    0.00362
 20 Pt   -0.01927    0.00374    0.01590
 21 Ag   -0.01370   -0.01049    0.01876
 22 Ag   -0.01690   -0.00727    0.02504
 23 Ag   -0.00937   -0.00223    0.01271
 24 Pt   -0.00580    0.00220   -0.00004
 25 Ag   -0.01230   -0.01264   -0.01788
 26 Ir    0.00428   -0.01882    0.03619
 27 Ru   -0.01669    0.00608    0.01692
 28 Ir    0.00501   -0.01771    0.01576
 29 Ir    0.00965   -0.02185    0.04987
 30 Ir   -0.00846    0.02103    0.03490
 31 Ir   -0.01970   -0.00756   -0.00504
 32 Pt   -0.01884   -0.01633    0.00437
 33 Ag    0.00044    0.00907    0.03452
 34 Ir    0.03025   -0.00289    0.01094
 35 Ru   -0.00518    0.02084   -0.00264
 36 Ir   -0.02641    0.01434    0.01226
 37 Ir    0.00909    0.04094   -0.03517
 38 Pt    0.02098   -0.00835   -0.00130
 39 Ag    0.00536   -0.00095   -0.00635
 40 Ir   -0.02464   -0.04242   -0.01025
 41 Pt   -0.00779   -0.01664    0.03000
 42 Ir   -0.01785   -0.01310   -0.03974
 43 Ir    0.01052   -0.01272    0.02217
 44 Ag   -0.01305   -0.00976   -0.03347
 45 O     0.02521   -0.00856    0.03922
 46 H    -0.02986   -0.08466   -0.02590

Timing:                                      incl.     excl.
-------------------------------------------------------------------
Density initialized from wave functions:    63.287    63.286   0.2% |
 Symmetrize density:                         0.001     0.001   0.0% |
Forces:                                    288.977   288.977   1.0% |
Hamiltonian:                                47.907     0.209   0.0% |
 Atomic:                                    12.296     7.532   0.0% |
  XC Correction:                             4.764     4.764   0.0% |
 Calculate atomic Hamiltonians:             19.951    19.951   0.1% |
 Communicate:                                0.732     0.732   0.0% |
 Initialize Hamiltonian:                     0.002     0.002   0.0% |
 Poisson:                                    0.103     0.103   0.0% |
 XC 3D grid:                                14.614    14.614   0.1% |
LCAO initialization:                        61.958     2.813   0.0% |
 LCAO eigensolver:                           6.288     0.003   0.0% |
  Calculate projections:                     0.058     0.058   0.0% |
  DenseAtomicCorrection:                     0.065     0.065   0.0% |
  Distribute overlap matrix:                 1.980     1.980   0.0% |
  Orbital Layouts:                           0.509     0.509   0.0% |
  Potential matrix:                          3.618     3.618   0.0% |
  Sum over cells:                            0.057     0.057   0.0% |
 LCAO to grid:                              51.088    51.088   0.2% |
 Set positions (LCAO WFS):                   1.770     1.133   0.0% |
  Basic WFS set positions:                   0.002     0.002   0.0% |
  Basis functions set positions:             0.000     0.000   0.0% |
  P tci:                                     0.222     0.222   0.0% |
  ST tci:                                    0.272     0.272   0.0% |
  mktci:                                     0.141     0.141   0.0% |
PWDescriptor:                                0.038     0.038   0.0% |
Redistribute:                                0.124     0.124   0.0% |
SCF-cycle:                               27225.409  1535.741   5.5% |-|
 Davidson:                               23162.559  5406.220  19.4% |-------|
  Apply H:                                3969.419  3842.655  13.8% |-----|
   HMM T:                                  126.763   126.763   0.5% |
  Subspace diag:                          3386.279     0.156   0.0% |
   calc_h_matrix:                         1941.667   611.092   2.2% ||
    Apply H:                              1330.576  1287.180   4.6% |-|
     HMM T:                                 43.396    43.396   0.2% |
   diagonalize:                            100.684   100.684   0.4% |
   rotate_psi:                            1343.772  1343.772   4.8% |-|
  calc. matrices:                         6795.124  4211.248  15.1% |-----|
   Apply H:                               2583.877  2500.965   9.0% |---|
    HMM T:                                  82.912    82.912   0.3% |
  diagonalize:                            1114.340  1114.340   4.0% |-|
  rotate_psi:                             2491.177  2491.177   9.0% |---|
 Density:                                 1333.598     0.029   0.0% |
  Atomic density matrices:                   8.753     8.753   0.0% |
  Mix:                                     552.873   552.873   2.0% ||
  Multipole moments:                         0.448     0.448   0.0% |
  Pseudo density:                          771.495   771.462   2.8% ||
   Symmetrize density:                       0.033     0.033   0.0% |
 Hamiltonian:                             1101.127     4.586   0.0% |
  Atomic:                                  257.391   144.395   0.5% |
   XC Correction:                          112.997   112.997   0.4% |
  Calculate atomic Hamiltonians:           456.178   456.178   1.6% ||
  Communicate:                              35.214    35.214   0.1% |
  Poisson:                                   2.195     2.195   0.0% |
  XC 3D grid:                              345.562   345.562   1.2% |
 Orthonormalize:                            92.383     0.010   0.0% |
  calc_s_matrix:                            12.243    12.243   0.0% |
  inverse-cholesky:                          2.935     2.935   0.0% |
  projections:                              51.276    51.276   0.2% |
  rotate_psi_s:                             25.920    25.920   0.1% |
Set symmetry:                                0.002     0.002   0.0% |
Other:                                     123.832   123.832   0.4% |
-------------------------------------------------------------------
Total:                                             27811.534 100.0%

Date: Fri Mar  4 03:16:54 2022
