
  ___ ___ ___ _ _ _  
 |   |   |_  | | | | 
 | | | | | . | | | | 
 |__ |  _|___|_____|  1.5.1
 |___|_|             

User:   clausen@node433.cluster
Date:   Thu Mar  3 20:03:24 2022
Arch:   x86_64
Pid:    29874
Python: 3.6.12
gpaw:   /software/kemi/gpaw/1.5.1/gpaw
_gpaw:  /software/kemi/gpaw/1.5.1/bin/gpaw-python
ase:    /software/kemi/ase/3.17.0/ase (version 3.17.0)
numpy:  /opt/rh/rh-python36/root/usr/lib64/python3.6/site-packages/numpy (version 1.13.1)
scipy:  /opt/rh/rh-python36/root/usr/lib64/python3.6/site-packages/scipy (version 0.19.1)
units:  Angstrom and eV
cores:  16

Input parameters:
  kpts: [4 4 1]
  mode: {ecut: 400.0,
         gammacentered: False,
         name: pw}
  xc: RPBE

System changes: positions, numbers, cell, pbc, initial_charges, initial_magmoms 

Initialize ...

Ag-setup:
  name: Silver
  id: c05e55bab2c3858b3f9398f6d75cb77c
  Z: 47
  valence: 17
  core: 30
  charge: 0.0
  file: /software/kemi/gpaw-setups/0.9.20000/Ag.RPBE.gz
  cutoffs: 1.25(comp), 2.35(filt), 2.19(core), lmax=2
  valence states:
                energy  radius
    5s(1.00)    -4.277   1.286
    4p(6.00)   -58.523   1.328
    5p(0.00)    -0.755   1.328
    4d(10.00)    -7.386   1.180
    *s          22.934   1.286
    *d          19.826   1.180

  Using partial waves for Ag as LCAO basis

Ir-setup:
  name: Iridium
  id: 73b603359d1d5397a85ae3c2440f9033
  Z: 77
  valence: 15
  core: 62
  charge: 0.0
  file: /software/kemi/gpaw-setups/0.9.20000/Ir.RPBE.gz
  cutoffs: 1.26(comp), 2.40(filt), 2.36(core), lmax=2
  valence states:
                energy  radius
    6s(2.00)    -6.219   1.296
    5p(6.00)   -54.684   1.328
    6p(0.00)    -1.215   1.328
    5d(7.00)    -7.118   1.286
    *s          20.992   1.296
    *d          20.093   1.286

  Using partial waves for Ir as LCAO basis

Pt-setup:
  name: Platinum
  id: f04f522592575c47ad794f6b4a415b4b
  Z: 78
  valence: 16
  core: 62
  charge: 0.0
  file: /software/kemi/gpaw-setups/0.9.20000/Pt.RPBE.gz
  cutoffs: 1.29(comp), 2.26(filt), 2.26(core), lmax=2
  valence states:
                energy  radius
    6s(1.00)    -5.516   1.307
    5p(6.00)   -55.971   1.371
    6p(0.00)    -0.856   1.371
    5d(9.00)    -6.087   1.307
    *s          21.695   1.307
    *d          21.125   1.307

  Using partial waves for Pt as LCAO basis

Ru-setup:
  name: Ruthenium
  id: 76477906e28f51dc1b29884d53556fe9
  Z: 44
  valence: 16
  core: 28
  charge: 0.0
  file: /software/kemi/gpaw-setups/0.9.20000/Ru.RPBE.gz
  cutoffs: 1.23(comp), 2.16(filt), 1.30(core), lmax=2
  valence states:
                energy  radius
    4s(2.00)   -76.255   1.281
    5s(1.00)    -4.126   1.281
    4p(6.00)   -46.371   1.286
    5p(0.00)    -0.913   1.286
    4d(7.00)    -5.146   1.254
    *d          22.066   1.254

  Using partial waves for Ru as LCAO basis

O-setup:
  name: Oxygen
  id: 08071ca1eed670e7821b24b7eb4d558c
  Z: 8
  valence: 6
  core: 2
  charge: 0.0
  file: /software/kemi/gpaw-setups/0.9.20000/O.RPBE.gz
  cutoffs: 0.67(comp), 1.17(filt), 0.83(core), lmax=2
  valence states:
                energy  radius
    2s(2.00)   -24.041   0.688
    2p(4.00)    -8.984   0.598
    *s           3.170   0.688
    *p          18.228   0.598
    *d           0.000   0.619

  Using partial waves for O as LCAO basis

Reference energy: -16429278.754816

Spin-paired calculation

Occupation numbers:
  Fermi-Dirac: width=0.1000 eV

Convergence criteria:
  Maximum total energy change: 0.0005 eV / electron
  Maximum integral of absolute density change: 0.0001 electrons
  Maximum integral of absolute eigenstate change: 4e-08 eV^2
  Maximum number of iterations: 333

Symmetries present (total): 1

  ( 1  0  0)
  ( 0  1  0)
  ( 0  0  1)

16 k-points: 4 x 4 x 1 Monkhorst-Pack grid
8 k-points in the irreducible part of the Brillouin zone
       k-points in crystal coordinates                weights
   0:     0.12500000   -0.37500000    0.00000000          2/16
   1:     0.12500000   -0.12500000    0.00000000          2/16
   2:     0.12500000    0.12500000    0.00000000          2/16
   3:     0.12500000    0.37500000    0.00000000          2/16
   4:     0.37500000   -0.37500000    0.00000000          2/16
   5:     0.37500000   -0.12500000    0.00000000          2/16
   6:     0.37500000    0.12500000    0.00000000          2/16
   7:     0.37500000    0.37500000    0.00000000          2/16

Wave functions: Plane wave expansion
  Cutoff energy: 400.000 eV
  Number of coefficients (min, max): 32722, 32776
  Pulay-stress correction: 0.000000 eV/Ang^3 (de/decut=0.000000)
  Using FFTW library
  ScaLapack parameters: grid=1x1, blocksize=None
  Wavefunction extrapolation:
    Improved wavefunction reuse through dual PAW basis 

Eigensolver
   Davidson(niter=2, smin=None, normalize=True) 

Densities:
  Coarse grid: 35*35*135 grid
  Fine grid: 70*70*270 grid
  Total Charge: 0.000000 

Density mixing:
  Method: separate
  Backend: pulay
  Linear mixing parameter: 0.05
  Mixing with 5 old densities
  Damping of long wave oscillations: 50 

Hamiltonian:
  XC and Coulomb potentials evaluated on a 70*70*270 grid
  Using the RPBE Exchange-Correlation functional
 

XC parameters: RPBE with 2 nearest neighbor stencil

Memory estimate:
  Process memory now: 155.20 MiB
  Calculator: 540.22 MiB
    Density: 48.12 MiB
      Arrays: 16.41 MiB
      Localized functions: 25.35 MiB
      Mixer: 6.36 MiB
    Hamiltonian: 11.50 MiB
      Arrays: 10.73 MiB
      XC: 0.00 MiB
      Poisson: 0.00 MiB
      vbar: 0.77 MiB
    Wavefunctions: 480.60 MiB
      Arrays psit_nG: 217.55 MiB
      Eigensolver: 248.94 MiB
      Projections: 2.73 MiB
      Projectors: 4.75 MiB
      PW-descriptor: 6.62 MiB

Total number of cores used: 16
Parallelization over k-points: 8
Domain decomposition: 1 x 1 x 2

Number of atoms: 46
Number of atomic orbitals: 547
Number of bands in calculation: 435
Bands to converge: occupied states only
Number of valence electrons: 718

... initialized

Initializing position-dependent things.

Density initialized from atomic densities
Creating initial wave functions:
  435 bands from LCAO basis set

                                             
                                             
                                             
                                             
                                             
                                             
                               Ag            
                  Ir    Ir                   
            Ag    O                          
                  AIr     Pt    Ru           
       Ir    IIr    IPt    Pt                
                                             
         Ru    Ir    PIr    Ag     Ir        
                Ag     Ag     Ag             
                                             
           Ir    PPt    RPt    Ir            
                                             
            Ir    IAg    AAg    Pt           
       Ag     Ir     Ir                      
             Ir     Ir     Ir                
        Ag     Ag     Ir                     
                                             
                                             
                                             
                                             
                                             

Positions:
   0 Ag     0.000000    1.621936   10.000000    ( 0.0000,  0.0000,  0.0000)
   1 Ag     2.809275    1.621936   10.000000    ( 0.0000,  0.0000,  0.0000)
   2 Ir     5.618550    1.621936   10.000000    ( 0.0000,  0.0000,  0.0000)
   3 Ir     1.404638    4.054840   10.000000    ( 0.0000,  0.0000,  0.0000)
   4 Ir     4.213913    4.054840   10.000000    ( 0.0000,  0.0000,  0.0000)
   5 Ir     7.023188    4.054840   10.000000    ( 0.0000,  0.0000,  0.0000)
   6 Ir     2.809275    6.487743   10.000000    ( 0.0000,  0.0000,  0.0000)
   7 Ag     5.618550    6.487743   10.000000    ( 0.0000,  0.0000,  0.0000)
   8 Pt     8.427826    6.487743   10.000000    ( 0.0000,  0.0000,  0.0000)
   9 Ag     0.000000    0.000000   12.293764    ( 0.0000,  0.0000,  0.0000)
  10 Ir     2.809275    0.000000   12.293764    ( 0.0000,  0.0000,  0.0000)
  11 Ir     5.618550    0.000000   12.293764    ( 0.0000,  0.0000,  0.0000)
  12 Ir     1.404638    2.432904   12.293764    ( 0.0000,  0.0000,  0.0000)
  13 Ag     4.213913    2.432904   12.293764    ( 0.0000,  0.0000,  0.0000)
  14 Ag     7.023188    2.432904   12.293764    ( 0.0000,  0.0000,  0.0000)
  15 Pt     2.809275    4.865807   12.293764    ( 0.0000,  0.0000,  0.0000)
  16 Ru     5.618550    4.865807   12.293764    ( 0.0000,  0.0000,  0.0000)
  17 Ir     8.427826    4.865807   12.293764    ( 0.0000,  0.0000,  0.0000)
  18 Ir     1.441638    0.791118   14.593247    ( 0.0000,  0.0000,  0.0000)
  19 Pt     4.193480    0.729862   14.611205    ( 0.0000,  0.0000,  0.0000)
  20 Pt     7.034823    0.803600   14.634811    ( 0.0000,  0.0000,  0.0000)
  21 Ag     2.789574    3.267050   14.608106    ( 0.0000,  0.0000,  0.0000)
  22 Ag     5.614143    3.230616   14.629701    ( 0.0000,  0.0000,  0.0000)
  23 Ag     8.464759    3.239382   14.607930    ( 0.0000,  0.0000,  0.0000)
  24 Pt     4.237230    5.675263   14.599690    ( 0.0000,  0.0000,  0.0000)
  25 Ag     7.020289    5.624637   14.588938    ( 0.0000,  0.0000,  0.0000)
  26 Ir     9.810296    5.749034   14.534386    ( 0.0000,  0.0000,  0.0000)
  27 Ru     0.088724    1.655821   16.925664    ( 0.0000,  0.0000,  0.0000)
  28 Ir     2.745717    1.627778   16.875164    ( 0.0000,  0.0000,  0.0000)
  29 Ir     5.551846    1.597836   16.889230    ( 0.0000,  0.0000,  0.0000)
  30 Ir     1.358794    4.007324   17.013226    ( 0.0000,  0.0000,  0.0000)
  31 Ir     4.198339    3.977911   16.957702    ( 0.0000,  0.0000,  0.0000)
  32 Pt     7.125382    4.056246   16.998429    ( 0.0000,  0.0000,  0.0000)
  33 Ag     2.759687    6.474835   16.802442    ( 0.0000,  0.0000,  0.0000)
  34 Ir     5.663661    6.563267   16.864024    ( 0.0000,  0.0000,  0.0000)
  35 Ru     8.399575    6.483077   16.866623    ( 0.0000,  0.0000,  0.0000)
  36 Ir     0.015859   -0.055829   18.998154    ( 0.0000,  0.0000,  0.0000)
  37 Ir     2.776668   -0.025110   18.984491    ( 0.0000,  0.0000,  0.0000)
  38 Pt     5.623976   -0.052286   19.132338    ( 0.0000,  0.0000,  0.0000)
  39 Ag     1.411190    2.424549   19.550242    ( 0.0000,  0.0000,  0.0000)
  40 Ir     4.228423    2.403175   19.018562    ( 0.0000,  0.0000,  0.0000)
  41 Pt     6.964575    2.313754   19.128521    ( 0.0000,  0.0000,  0.0000)
  42 Ir     2.920544    4.885225   19.043791    ( 0.0000,  0.0000,  0.0000)
  43 Ir     5.524960    4.949858   19.026821    ( 0.0000,  0.0000,  0.0000)
  44 Ag     8.407084    4.876484   19.535850    ( 0.0000,  0.0000,  0.0000)
  45 O      4.209689    0.775260   20.850242    ( 0.0000,  0.0000,  0.0000)

Unit cell:
           periodic     x           y           z      points  spacing
  1. axis:    yes    8.445283    0.000000    0.000000    35     0.2090
  2. axis:    yes    4.222641    7.313829    0.000000    35     0.2090
  3. axis:    no     0.000000    0.000000   29.175054   135     0.2161

  Lengths:   8.445283   8.445283  29.175054
  Angles:   90.000000  90.000000  60.000000

Effective grid spacing dv^(1/3) = 0.2217

                     log10-error:    total        iterations:
           time      wfs    density  energy       fermi  poisson
iter:   1  20:05:55  +0.17   +inf  -295.394998    3             
iter:   2  20:07:09  -1.10  -1.37  -296.204423    36            
iter:   3  20:08:24  -1.37  -1.31  -326.715100    35            
iter:   4  20:09:38  -1.76  -1.26  -274.546216    3             
iter:   5  20:10:50  -2.26  -1.49  -269.036942    37            
iter:   6  20:12:05  -2.58  -1.55  -267.266541    2             
iter:   7  20:13:18  -2.21  -1.60  -265.095960    3             
iter:   8  20:14:32  -2.30  -1.75  -264.163759    3             
iter:   9  20:15:46  -2.66  -1.95  -264.425430    3             
iter:  10  20:17:00  -2.87  -2.06  -264.877610    3             
iter:  11  20:18:14  -3.19  -2.04  -264.692366    3             
iter:  12  20:19:28  -3.48  -2.11  -264.608782    3             
iter:  13  20:20:44  -3.64  -2.16  -264.316766    3             
iter:  14  20:21:57  -3.62  -2.25  -264.289127    3             
iter:  15  20:23:11  -3.65  -2.34  -264.259370    2             
iter:  16  20:24:23  -3.78  -2.40  -264.250608    3             
iter:  17  20:25:36  -3.88  -2.42  -264.381226    3             
iter:  18  20:26:51  -3.67  -2.34  -264.253381    3             
iter:  19  20:28:05  -4.00  -2.44  -264.140338    3             
iter:  20  20:29:20  -3.93  -2.62  -264.108130    2             
iter:  21  20:30:33  -4.37  -2.70  -264.094982    3             
iter:  22  20:31:47  -4.46  -2.74  -264.089347    3             
iter:  23  20:33:02  -4.47  -2.77  -264.118477    3             
iter:  24  20:34:18  -4.31  -2.70  -264.099478    3             
iter:  25  20:35:30  -4.65  -2.77  -264.088383    3             
iter:  26  20:36:45  -4.87  -2.89  -264.085757    2             
iter:  27  20:38:00  -5.31  -2.97  -264.081328    2             
iter:  28  20:39:17  -5.51  -3.03  -264.081108    2             
iter:  29  20:40:32  -5.44  -3.08  -264.088949    3             
iter:  30  20:41:48  -5.47  -3.02  -264.078831    2             
iter:  31  20:43:03  -5.43  -3.10  -264.081445    2             
iter:  32  20:44:19  -5.51  -3.17  -264.080013    3             
iter:  33  20:45:35  -5.68  -3.21  -264.076198    2             
iter:  34  20:46:51  -5.65  -3.30  -264.077052    2             
iter:  35  20:48:07  -5.85  -3.34  -264.079521    2             
iter:  36  20:49:22  -6.02  -3.30  -264.075650    2             
iter:  37  20:50:37  -5.71  -3.39  -264.077640    2             
iter:  38  20:51:52  -6.01  -3.39  -264.077813    2             
iter:  39  20:53:07  -5.86  -3.41  -264.075444    2             
iter:  40  20:54:21  -6.12  -3.53  -264.076421    2             
iter:  41  20:55:35  -6.32  -3.54  -264.076882    2             
iter:  42  20:56:51  -6.36  -3.53  -264.075179    2             
iter:  43  20:58:05  -6.22  -3.60  -264.075588    2             
iter:  44  20:59:17  -6.24  -3.67  -264.075919    2             
iter:  45  21:00:30  -6.29  -3.70  -264.074329    2             
iter:  46  21:01:43  -6.87  -3.73  -264.074925    2             
iter:  47  21:02:58  -7.07  -3.86  -264.074840    2             
iter:  48  21:04:14  -7.15  -3.89  -264.074402    2             
iter:  49  21:05:29  -6.92  -3.84  -264.074612    2             
iter:  50  21:06:44  -6.99  -3.95  -264.074718    2             
iter:  51  21:08:00  -7.28  -3.97  -264.074401    2             
iter:  52  21:09:18  -7.21  -3.95  -264.075266    2             
iter:  53  21:10:34  -7.23  -4.02  -264.074798    2             
iter:  54  21:11:52  -7.55  -4.22  -264.074585    2             

Converged after 54 iterations.

Dipole moment: (22.645034, 17.851441, -0.287336) |e|*Ang

Energy contributions relative to reference atoms: (reference = -16429278.754816)

Kinetic:       -158.253762
Potential:     +100.319203
External:        +0.000000
XC:            -198.838319
Entropy (-ST):   -2.092693
Local:           -6.255361
--------------------------
Free energy:   -265.120932
Extrapolated:  -264.074585

Fermi level: 1.21550

Showing only first 2 kpts
 Kpt  Band  Eigenvalues  Occupancy
  0   357      1.22347    0.12002
  0   358      1.25252    0.10212
  0   359      1.29686    0.07678
  0   360      1.32210    0.06404

  1   357      1.10669    0.18700
  1   358      1.14203    0.16896
  1   359      1.17721    0.14864
  1   360      1.20376    0.13233



Forces in eV/Ang:
  0 Ag   -0.41116    0.15352   -1.06522
  1 Ag    0.24514    0.22129   -0.87141
  2 Ir    0.49940   -0.16969    0.02931
  3 Ir   -0.11722    1.22707    1.38593
  4 Ir    0.42090    0.40632    0.86641
  5 Ir   -0.32415   -0.02950    1.20123
  6 Ir   -1.70451   -0.50272    0.72614
  7 Ag   -0.12407   -0.33418   -0.95987
  8 Pt    1.05557   -0.38555    0.48552
  9 Ag    0.12394    0.01674    0.14089
 10 Ir   -0.03538   -0.40306    0.98444
 11 Ir   -0.62974   -0.76513   -0.54895
 12 Ir    0.37200    0.14565    0.15348
 13 Ag   -0.01177   -0.02920    0.15572
 14 Ag    0.05220    0.08713    0.13350
 15 Pt   -0.12935   -0.04964   -0.63183
 16 Ru    0.63948    0.44359   -1.39047
 17 Ir    0.09919    0.27999   -1.25851
 18 Ir    0.01554    0.00078    0.07636
 19 Pt    0.00572    0.05253    0.00356
 20 Pt    0.03322   -0.00090    0.07128
 21 Ag    0.01392    0.01777    0.04246
 22 Ag    0.01646    0.02335    0.00081
 23 Ag   -0.00871    0.02021   -0.02077
 24 Pt   -0.05675    0.05373   -0.19040
 25 Ag   -0.00645   -0.05970    0.00650
 26 Ir    0.00068   -0.05938    0.05203
 27 Ru   -0.05913    0.00529    0.06159
 28 Ir   -0.03618   -0.00780   -0.08569
 29 Ir    0.01108    0.06457   -0.14800
 30 Ir   -0.05254   -0.00499    0.06689
 31 Ir    0.01479   -0.13788    0.24984
 32 Pt    0.00143   -0.00271   -0.01315
 33 Ag   -0.06569    0.00145    0.08085
 34 Ir    0.15428    0.05152    0.33488
 35 Ru    0.07189   -0.08772   -0.20373
 36 Ir   -0.02446   -0.07788   -0.08958
 37 Ir    0.61472    0.37799    1.23992
 38 Pt   -0.39626    0.06801    1.11021
 39 Ag   -0.08338    0.03751    0.00431
 40 Ir   -0.20992   -0.67235    1.08658
 41 Pt    0.31948    0.11411   -0.02402
 42 Ir    0.02413   -0.00646   -0.08347
 43 Ir   -0.08013   -0.04361   -0.02206
 44 Ag   -0.02206   -0.18482   -0.01866
 45 O    -0.33940    0.11275   -3.26928

System changes: positions 

Initializing position-dependent things.

Density initialized from wave functions
                                             
                                             
                                             
                                             
                                             
                                             
                               Ag            
                  Ir    Ir                   
            Ag    OIr     Pt    Ru           
                  Ag                         
       Ir    IIr    IPt    Pt                
                                             
         Ru    Ir    PIr    Ag     Ir        
                Ag     Ag     Ag             
                                             
           Ir    PPt    RPt    Ir            
                                             
            Ir    IAg    AAg    Pt           
       Ag     Ir     Ir                      
             Ir     Ir     Ir                
        Ag     Ag     Ir                     
                                             
                                             
                                             
                                             
                                             

Positions:
   0 Ag     0.000000    1.621936   10.000000    ( 0.0000,  0.0000,  0.0000)
   1 Ag     2.809275    1.621936   10.000000    ( 0.0000,  0.0000,  0.0000)
   2 Ir     5.618550    1.621936   10.000000    ( 0.0000,  0.0000,  0.0000)
   3 Ir     1.404638    4.054840   10.000000    ( 0.0000,  0.0000,  0.0000)
   4 Ir     4.213913    4.054840   10.000000    ( 0.0000,  0.0000,  0.0000)
   5 Ir     7.023188    4.054840   10.000000    ( 0.0000,  0.0000,  0.0000)
   6 Ir     2.809275    6.487743   10.000000    ( 0.0000,  0.0000,  0.0000)
   7 Ag     5.618550    6.487743   10.000000    ( 0.0000,  0.0000,  0.0000)
   8 Pt     8.427826    6.487743   10.000000    ( 0.0000,  0.0000,  0.0000)
   9 Ag     0.000000    0.000000   12.293764    ( 0.0000,  0.0000,  0.0000)
  10 Ir     2.809275    0.000000   12.293764    ( 0.0000,  0.0000,  0.0000)
  11 Ir     5.618550    0.000000   12.293764    ( 0.0000,  0.0000,  0.0000)
  12 Ir     1.404638    2.432904   12.293764    ( 0.0000,  0.0000,  0.0000)
  13 Ag     4.213913    2.432904   12.293764    ( 0.0000,  0.0000,  0.0000)
  14 Ag     7.023188    2.432904   12.293764    ( 0.0000,  0.0000,  0.0000)
  15 Pt     2.809275    4.865807   12.293764    ( 0.0000,  0.0000,  0.0000)
  16 Ru     5.618550    4.865807   12.293764    ( 0.0000,  0.0000,  0.0000)
  17 Ir     8.427826    4.865807   12.293764    ( 0.0000,  0.0000,  0.0000)
  18 Ir     1.442583    0.791165   14.597890    ( 0.0000,  0.0000,  0.0000)
  19 Pt     4.193828    0.733057   14.611421    ( 0.0000,  0.0000,  0.0000)
  20 Pt     7.036843    0.803545   14.639145    ( 0.0000,  0.0000,  0.0000)
  21 Ag     2.790421    3.268131   14.610687    ( 0.0000,  0.0000,  0.0000)
  22 Ag     5.615144    3.232036   14.629750    ( 0.0000,  0.0000,  0.0000)
  23 Ag     8.464230    3.240611   14.606666    ( 0.0000,  0.0000,  0.0000)
  24 Pt     4.233778    5.678531   14.588111    ( 0.0000,  0.0000,  0.0000)
  25 Ag     7.019897    5.621007   14.589333    ( 0.0000,  0.0000,  0.0000)
  26 Ir     9.810338    5.745423   14.537550    ( 0.0000,  0.0000,  0.0000)
  27 Ru     0.085129    1.656142   16.929409    ( 0.0000,  0.0000,  0.0000)
  28 Ir     2.743517    1.627303   16.869953    ( 0.0000,  0.0000,  0.0000)
  29 Ir     5.552520    1.601762   16.880230    ( 0.0000,  0.0000,  0.0000)
  30 Ir     1.355599    4.007021   17.017294    ( 0.0000,  0.0000,  0.0000)
  31 Ir     4.199239    3.969526   16.972896    ( 0.0000,  0.0000,  0.0000)
  32 Pt     7.125469    4.056081   16.997630    ( 0.0000,  0.0000,  0.0000)
  33 Ag     2.755693    6.474923   16.807359    ( 0.0000,  0.0000,  0.0000)
  34 Ir     5.673044    6.566400   16.884389    ( 0.0000,  0.0000,  0.0000)
  35 Ru     8.403947    6.477743   16.854234    ( 0.0000,  0.0000,  0.0000)
  36 Ir     0.014371   -0.060565   18.992707    ( 0.0000,  0.0000,  0.0000)
  37 Ir     2.814051   -0.002123   19.059894    ( 0.0000,  0.0000,  0.0000)
  38 Pt     5.599878   -0.048150   19.199853    ( 0.0000,  0.0000,  0.0000)
  39 Ag     1.406119    2.426830   19.550504    ( 0.0000,  0.0000,  0.0000)
  40 Ir     4.215657    2.362287   19.084640    ( 0.0000,  0.0000,  0.0000)
  41 Pt     6.984004    2.320693   19.127060    ( 0.0000,  0.0000,  0.0000)
  42 Ir     2.922012    4.884832   19.038715    ( 0.0000,  0.0000,  0.0000)
  43 Ir     5.520088    4.947206   19.025479    ( 0.0000,  0.0000,  0.0000)
  44 Ag     8.405743    4.865244   19.534715    ( 0.0000,  0.0000,  0.0000)
  45 O      4.189049    0.782116   20.651429    ( 0.0000,  0.0000,  0.0000)

Unit cell:
           periodic     x           y           z      points  spacing
  1. axis:    yes    8.445283    0.000000    0.000000    35     0.2090
  2. axis:    yes    4.222641    7.313829    0.000000    35     0.2090
  3. axis:    no     0.000000    0.000000   29.175054   135     0.2161

  Lengths:   8.445283   8.445283  29.175054
  Angles:   90.000000  90.000000  60.000000

Effective grid spacing dv^(1/3) = 0.2217

                     log10-error:    total        iterations:
           time      wfs    density  energy       fermi  poisson
iter:   1  21:13:40  -1.96   +inf  -274.310784    4             
iter:   2  21:14:56  -1.10  -1.74  -399.103279    36            
iter:   3  21:16:13  -1.28  -1.17  -286.114693    37            
iter:   4  21:17:29  -2.40  -1.56  -266.060597    37            
iter:   5  21:18:46  -2.95  -2.17  -265.784029    3             
iter:   6  21:20:03  -3.60  -2.20  -265.094271    3             
iter:   7  21:21:19  -3.86  -2.55  -265.083091    3             
iter:   8  21:22:36  -3.93  -2.52  -265.018558    3             
iter:   9  21:23:54  -3.94  -2.54  -264.930697    3             
iter:  10  21:25:08  -4.21  -2.77  -264.897432    3             
iter:  11  21:26:22  -3.93  -2.88  -264.871468    3             
iter:  12  21:27:35  -4.58  -3.13  -264.871637    3             
iter:  13  21:28:48  -4.99  -3.06  -264.871313    3             
iter:  14  21:30:03  -5.56  -3.19  -264.864371    2             
iter:  15  21:31:17  -5.64  -3.27  -264.865812    2             
iter:  16  21:32:31  -5.19  -3.34  -264.863513    3             
iter:  17  21:33:44  -5.51  -3.49  -264.862550    2             
iter:  18  21:34:58  -5.61  -3.54  -264.862998    2             
iter:  19  21:36:13  -5.89  -3.56  -264.863780    2             
iter:  20  21:37:28  -6.02  -3.63  -264.862778    2             
iter:  21  21:38:43  -6.28  -3.46  -264.863780    2             
iter:  22  21:39:59  -6.62  -3.71  -264.862769    2             
iter:  23  21:41:14  -6.55  -3.79  -264.862384    2             
iter:  24  21:42:30  -6.24  -3.77  -264.862504    2             
iter:  25  21:43:46  -6.42  -4.06  -264.862840    2             
iter:  26  21:45:05  -6.93  -4.03  -264.862179    2             
iter:  27  21:46:24  -6.95  -4.12  -264.862827    2             
iter:  28  21:47:42  -7.33  -4.12  -264.862509    2             
iter:  29  21:49:00  -7.69  -4.38  -264.862340    2             

Converged after 29 iterations.

Dipole moment: (21.937025, 16.793036, -0.134305) |e|*Ang

Energy contributions relative to reference atoms: (reference = -16429278.754816)

Kinetic:       -159.071875
Potential:     +101.012751
External:        +0.000000
XC:            -199.411394
Entropy (-ST):   -2.092864
Local:           -6.345390
--------------------------
Free energy:   -265.908772
Extrapolated:  -264.862340

Fermi level: 1.28995

Showing only first 2 kpts
 Kpt  Band  Eigenvalues  Occupancy
  0   357      1.29364    0.12269
  0   358      1.32285    0.10462
  0   359      1.36239    0.08161
  0   360      1.38841    0.06800

  1   357      1.17491    0.18990
  1   358      1.21602    0.16921
  1   359      1.25435    0.14702
  1   360      1.29123    0.12420



Forces in eV/Ang:
  0 Ag   -0.41414    0.15559   -1.05494
  1 Ag    0.24651    0.22168   -0.86534
  2 Ir    0.50027   -0.16961    0.03821
  3 Ir   -0.09675    1.23266    1.42137
  4 Ir    0.43022    0.40639    0.86243
  5 Ir   -0.32970   -0.02746    1.21143
  6 Ir   -1.71343   -0.50562    0.72884
  7 Ag   -0.12134   -0.33915   -0.95466
  8 Pt    1.05744   -0.38402    0.50029
  9 Ag    0.12479    0.04491    0.13852
 10 Ir   -0.03686   -0.39869    1.00408
 11 Ir   -0.63412   -0.77523   -0.53976
 12 Ir    0.36398    0.12538    0.15029
 13 Ag   -0.01660   -0.03423    0.16036
 14 Ag    0.05533    0.08008    0.13419
 15 Pt   -0.14859   -0.05306   -0.60949
 16 Ru    0.65202    0.44138   -1.40198
 17 Ir    0.11052    0.28172   -1.27498
 18 Ir    0.05887    0.00351    0.14025
 19 Pt    0.00177    0.00706    0.01177
 20 Pt    0.01545   -0.00721    0.08404
 21 Ag    0.01536    0.01468    0.06789
 22 Ag   -0.01314    0.03644    0.01623
 23 Ag    0.00805   -0.01224   -0.00775
 24 Pt   -0.03118    0.05889   -0.08001
 25 Ag   -0.03261    0.01532    0.03308
 26 Ir   -0.03760    0.01881    0.07547
 27 Ru   -0.02708   -0.04258    0.05130
 28 Ir    0.04285   -0.07994    0.00425
 29 Ir   -0.07148    0.09178    0.10056
 30 Ir    0.02210    0.00794    0.05141
 31 Ir    0.02325   -0.34049    0.33292
 32 Pt   -0.08847    0.00858    0.01498
 33 Ag   -0.07302    0.03785    0.16357
 34 Ir    0.24474    0.07240    0.34948
 35 Ru    0.00530    0.03184   -0.07930
 36 Ir   -0.01425   -0.05171    0.04433
 37 Ir    0.11299    0.10335    0.42267
 38 Pt    0.34440   -0.27786    0.35062
 39 Ag   -0.09867    0.03677   -0.03297
 40 Ir   -0.09768   -0.07075    0.16380
 41 Pt    0.12471    0.02065   -0.05347
 42 Ir    0.00026   -0.00705    0.07642
 43 Ir    0.04156   -0.04695    0.08225
 44 Ag   -0.04533   -0.16125   -0.05558
 45 O    -0.56757    0.14364   -1.79689

System changes: positions 

Initializing position-dependent things.

Density initialized from wave functions
                                             
                                             
                                             
                                             
                                             
                                             
                               Ag            
                  Ir    Ir                   
            Ag    OIr     Pt    Ru           
                                             
       Ir    IIr    IPt    Pt                
         Ru                                  
               Ir    PIr    Ag     Ir        
                Ag     Ag     Ag             
                                             
           Ir    PPt    RPt    Ir            
                                             
            Ir    IAg    AAg    Pt           
       Ag    IIr    IIr    Ir                
                                             
        Ag     Ag     Ir                     
                                             
                                             
                                             
                                             
                                             

Positions:
   0 Ag     0.000000    1.621936   10.000000    ( 0.0000,  0.0000,  0.0000)
   1 Ag     2.809275    1.621936   10.000000    ( 0.0000,  0.0000,  0.0000)
   2 Ir     5.618550    1.621936   10.000000    ( 0.0000,  0.0000,  0.0000)
   3 Ir     1.404638    4.054840   10.000000    ( 0.0000,  0.0000,  0.0000)
   4 Ir     4.213913    4.054840   10.000000    ( 0.0000,  0.0000,  0.0000)
   5 Ir     7.023188    4.054840   10.000000    ( 0.0000,  0.0000,  0.0000)
   6 Ir     2.809275    6.487743   10.000000    ( 0.0000,  0.0000,  0.0000)
   7 Ag     5.618550    6.487743   10.000000    ( 0.0000,  0.0000,  0.0000)
   8 Pt     8.427826    6.487743   10.000000    ( 0.0000,  0.0000,  0.0000)
   9 Ag     0.000000    0.000000   12.293764    ( 0.0000,  0.0000,  0.0000)
  10 Ir     2.809275    0.000000   12.293764    ( 0.0000,  0.0000,  0.0000)
  11 Ir     5.618550    0.000000   12.293764    ( 0.0000,  0.0000,  0.0000)
  12 Ir     1.404638    2.432904   12.293764    ( 0.0000,  0.0000,  0.0000)
  13 Ag     4.213913    2.432904   12.293764    ( 0.0000,  0.0000,  0.0000)
  14 Ag     7.023188    2.432904   12.293764    ( 0.0000,  0.0000,  0.0000)
  15 Pt     2.809275    4.865807   12.293764    ( 0.0000,  0.0000,  0.0000)
  16 Ru     5.618550    4.865807   12.293764    ( 0.0000,  0.0000,  0.0000)
  17 Ir     8.427826    4.865807   12.293764    ( 0.0000,  0.0000,  0.0000)
  18 Ir     1.443393    0.791206   14.601869    ( 0.0000,  0.0000,  0.0000)
  19 Pt     4.194126    0.735794   14.611607    ( 0.0000,  0.0000,  0.0000)
  20 Pt     7.038574    0.803498   14.642859    ( 0.0000,  0.0000,  0.0000)
  21 Ag     2.791146    3.269057   14.612899    ( 0.0000,  0.0000,  0.0000)
  22 Ag     5.616002    3.233253   14.629792    ( 0.0000,  0.0000,  0.0000)
  23 Ag     8.463776    3.241663   14.605584    ( 0.0000,  0.0000,  0.0000)
  24 Pt     4.230822    5.681330   14.578191    ( 0.0000,  0.0000,  0.0000)
  25 Ag     7.019561    5.617897   14.589671    ( 0.0000,  0.0000,  0.0000)
  26 Ir     9.810373    5.742330   14.540261    ( 0.0000,  0.0000,  0.0000)
  27 Ru     0.082048    1.656418   16.932619    ( 0.0000,  0.0000,  0.0000)
  28 Ir     2.741632    1.626897   16.865488    ( 0.0000,  0.0000,  0.0000)
  29 Ir     5.553097    1.605126   16.872519    ( 0.0000,  0.0000,  0.0000)
  30 Ir     1.352861    4.006761   17.020779    ( 0.0000,  0.0000,  0.0000)
  31 Ir     4.200009    3.962343   16.985913    ( 0.0000,  0.0000,  0.0000)
  32 Pt     7.125544    4.055940   16.996944    ( 0.0000,  0.0000,  0.0000)
  33 Ag     2.752270    6.474998   16.811572    ( 0.0000,  0.0000,  0.0000)
  34 Ir     5.681082    6.569084   16.901836    ( 0.0000,  0.0000,  0.0000)
  35 Ru     8.407692    6.473173   16.843619    ( 0.0000,  0.0000,  0.0000)
  36 Ir     0.013097   -0.064622   18.988040    ( 0.0000,  0.0000,  0.0000)
  37 Ir     2.846078    0.017571   19.124494    ( 0.0000,  0.0000,  0.0000)
  38 Pt     5.579233   -0.044606   19.257696    ( 0.0000,  0.0000,  0.0000)
  39 Ag     1.401775    2.428785   19.550729    ( 0.0000,  0.0000,  0.0000)
  40 Ir     4.204720    2.327257   19.141252    ( 0.0000,  0.0000,  0.0000)
  41 Pt     7.000649    2.326639   19.125809    ( 0.0000,  0.0000,  0.0000)
  42 Ir     2.923269    4.884495   19.034366    ( 0.0000,  0.0000,  0.0000)
  43 Ir     5.515913    4.944934   19.024329    ( 0.0000,  0.0000,  0.0000)
  44 Ag     8.404593    4.855615   19.533743    ( 0.0000,  0.0000,  0.0000)
  45 O      4.171366    0.787991   20.481097    ( 0.0000,  0.0000,  0.0000)

Unit cell:
           periodic     x           y           z      points  spacing
  1. axis:    yes    8.445283    0.000000    0.000000    35     0.2090
  2. axis:    yes    4.222641    7.313829    0.000000    35     0.2090
  3. axis:    no     0.000000    0.000000   29.175054   135     0.2161

  Lengths:   8.445283   8.445283  29.175054
  Angles:   90.000000  90.000000  60.000000

Effective grid spacing dv^(1/3) = 0.2217

                     log10-error:    total        iterations:
           time      wfs    density  energy       fermi  poisson
iter:   1  21:50:50  -2.02   +inf  -271.203038    4             
iter:   2  21:52:07  -1.44  -1.87  -329.941492    36            
iter:   3  21:53:23  -1.60  -1.31  -282.380681    37            
iter:   4  21:54:39  -2.57  -1.59  -266.137258    37            
iter:   5  21:55:54  -3.14  -2.18  -265.714956    3             
iter:   6  21:57:08  -3.59  -2.26  -265.202446    3             
iter:   7  21:58:24  -3.62  -2.52  -265.018580    3             
iter:   8  21:59:41  -4.02  -2.81  -265.049290    3             
iter:   9  22:00:58  -4.15  -2.60  -265.112439    2             
iter:  10  22:02:14  -4.29  -2.54  -264.967687    3             
iter:  11  22:03:30  -4.07  -2.93  -264.948194    3             
iter:  12  22:04:47  -4.54  -3.03  -264.945375    3             
iter:  13  22:06:04  -4.99  -3.11  -264.938884    3             
iter:  14  22:07:19  -5.63  -3.38  -264.938190    2             
iter:  15  22:08:35  -5.50  -3.32  -264.943647    2             
iter:  16  22:09:50  -5.72  -3.25  -264.937611    2             
iter:  17  22:11:06  -5.98  -3.53  -264.937087    2             
iter:  18  22:12:22  -5.93  -3.57  -264.937929    2             
iter:  19  22:13:37  -5.80  -3.62  -264.938257    2             
iter:  20  22:14:54  -5.89  -3.68  -264.937256    2             
iter:  21  22:16:09  -6.43  -3.66  -264.938061    2             
iter:  22  22:17:25  -6.62  -3.87  -264.937339    2             
iter:  23  22:18:40  -6.64  -3.89  -264.937012    2             
iter:  24  22:19:56  -6.61  -3.85  -264.937263    2             
iter:  25  22:21:12  -7.00  -4.12  -264.937194    2             
iter:  26  22:22:27  -7.09  -4.12  -264.936903    2             
iter:  27  22:23:42  -7.00  -4.06  -264.937291    2             
iter:  28  22:24:58  -7.28  -4.31  -264.937108    2             
iter:  29  22:26:13  -7.47  -4.57  -264.937018    2             

Converged after 29 iterations.

Dipole moment: (21.304935, 15.856257, -0.020764) |e|*Ang

Energy contributions relative to reference atoms: (reference = -16429278.754816)

Kinetic:       -147.997811
Potential:      +91.660132
External:        +0.000000
XC:            -201.178657
Entropy (-ST):   -2.093054
Local:           -6.374155
--------------------------
Free energy:   -265.983545
Extrapolated:  -264.937018

Fermi level: 1.34878

Showing only first 2 kpts
 Kpt  Band  Eigenvalues  Occupancy
  0   357      1.34706    0.12607
  0   358      1.37154    0.11084
  0   359      1.40897    0.08847
  0   360      1.43502    0.07421

  1   357      1.23476    0.18943
  1   358      1.27542    0.16890
  1   359      1.31187    0.14780
  1   360      1.35738    0.11963



Forces in eV/Ang:
  0 Ag   -0.41875    0.15192   -1.04903
  1 Ag    0.24960    0.22195   -0.86642
  2 Ir    0.49905   -0.16828    0.03797
  3 Ir   -0.07544    1.24131    1.44048
  4 Ir    0.43993    0.40881    0.85249
  5 Ir   -0.33718   -0.02279    1.20932
  6 Ir   -1.71432   -0.50662    0.71998
  7 Ag   -0.12039   -0.34340   -0.95687
  8 Pt    1.05642   -0.38269    0.50266
  9 Ag    0.12581    0.07041    0.13146
 10 Ir   -0.03908   -0.40297    1.02061
 11 Ir   -0.63622   -0.78173   -0.53483
 12 Ir    0.35698    0.11246    0.15334
 13 Ag   -0.01831   -0.03336    0.16800
 14 Ag    0.05543    0.07601    0.13658
 15 Pt   -0.16150   -0.05604   -0.59546
 16 Ru    0.66258    0.44233   -1.41496
 17 Ir    0.11631    0.27986   -1.28981
 18 Ir    0.09106    0.00973    0.17818
 19 Pt   -0.00927   -0.02845   -0.01204
 20 Pt    0.00889   -0.00766    0.08221
 21 Ag    0.01536    0.01633    0.08169
 22 Ag   -0.03364    0.05206    0.01565
 23 Ag    0.01969   -0.03884   -0.00374
 24 Pt   -0.00170    0.04805    0.02055
 25 Ag   -0.06098    0.07135    0.04480
 26 Ir   -0.06201    0.07081    0.07828
 27 Ru   -0.00194   -0.09542    0.03643
 28 Ir    0.10192   -0.11406    0.01993
 29 Ir   -0.11404    0.11165    0.22527
 30 Ir    0.09434    0.02921    0.02967
 31 Ir    0.02538   -0.44898    0.26983
 32 Pt   -0.17451    0.03449    0.02478
 33 Ag   -0.06366    0.05885    0.17098
 34 Ir    0.26297    0.04532    0.21464
 35 Ru   -0.06647    0.11231   -0.02597
 36 Ir    0.00054   -0.02365    0.16984
 37 Ir   -1.04842   -0.63426   -0.69587
 38 Pt    1.61803   -0.96767   -0.58277
 39 Ag   -0.13105    0.05638   -0.05216
 40 Ir    0.03621    1.32428   -0.97578
 41 Pt   -0.02399   -0.05178   -0.06607
 42 Ir   -0.03812   -0.01668    0.22271
 43 Ir    0.15232   -0.05172    0.15178
 44 Ag   -0.06005   -0.14563   -0.06470
 45 O    -0.73556    0.25922    0.92585

System changes: positions 

Initializing position-dependent things.

Density initialized from wave functions
                                             
                                             
                                             
                                             
                                             
                                             
                               Ag            
                  Ir    Ir                   
            Ag    OIr     Pt    Ru           
                                             
       Ir    IIr    IPt    Pt                
         Ru                                  
               Ir    PIr    Ag     Ir        
                Ag     Ag     Ag             
                                             
           Ir    PPt    RPt    Ir            
                                             
            Ir    IAg    AAg    Pt           
       Ag    IIr    IIr    Ir                
                                             
        Ag     Ag     Ir                     
                                             
                                             
                                             
                                             
                                             

Positions:
   0 Ag     0.000000    1.621936   10.000000    ( 0.0000,  0.0000,  0.0000)
   1 Ag     2.809275    1.621936   10.000000    ( 0.0000,  0.0000,  0.0000)
   2 Ir     5.618550    1.621936   10.000000    ( 0.0000,  0.0000,  0.0000)
   3 Ir     1.404638    4.054840   10.000000    ( 0.0000,  0.0000,  0.0000)
   4 Ir     4.213913    4.054840   10.000000    ( 0.0000,  0.0000,  0.0000)
   5 Ir     7.023188    4.054840   10.000000    ( 0.0000,  0.0000,  0.0000)
   6 Ir     2.809275    6.487743   10.000000    ( 0.0000,  0.0000,  0.0000)
   7 Ag     5.618550    6.487743   10.000000    ( 0.0000,  0.0000,  0.0000)
   8 Pt     8.427826    6.487743   10.000000    ( 0.0000,  0.0000,  0.0000)
   9 Ag     0.000000    0.000000   12.293764    ( 0.0000,  0.0000,  0.0000)
  10 Ir     2.809275    0.000000   12.293764    ( 0.0000,  0.0000,  0.0000)
  11 Ir     5.618550    0.000000   12.293764    ( 0.0000,  0.0000,  0.0000)
  12 Ir     1.404638    2.432904   12.293764    ( 0.0000,  0.0000,  0.0000)
  13 Ag     4.213913    2.432904   12.293764    ( 0.0000,  0.0000,  0.0000)
  14 Ag     7.023188    2.432904   12.293764    ( 0.0000,  0.0000,  0.0000)
  15 Pt     2.809275    4.865807   12.293764    ( 0.0000,  0.0000,  0.0000)
  16 Ru     5.618550    4.865807   12.293764    ( 0.0000,  0.0000,  0.0000)
  17 Ir     8.427826    4.865807   12.293764    ( 0.0000,  0.0000,  0.0000)
  18 Ir     1.449902    0.791886   14.615392    ( 0.0000,  0.0000,  0.0000)
  19 Pt     4.193589    0.734743   14.610842    ( 0.0000,  0.0000,  0.0000)
  20 Pt     7.039752    0.802958   14.649716    ( 0.0000,  0.0000,  0.0000)
  21 Ag     2.792438    3.270481   14.619227    ( 0.0000,  0.0000,  0.0000)
  22 Ag     5.613978    3.237222   14.630879    ( 0.0000,  0.0000,  0.0000)
  23 Ag     8.464977    3.239346   14.604972    ( 0.0000,  0.0000,  0.0000)
  24 Pt     4.229734    5.685544   14.576340    ( 0.0000,  0.0000,  0.0000)
  25 Ag     7.015270    5.621767   14.592854    ( 0.0000,  0.0000,  0.0000)
  26 Ir     9.806134    5.746168   14.546519    ( 0.0000,  0.0000,  0.0000)
  27 Ru     0.080903    1.649966   16.936170    ( 0.0000,  0.0000,  0.0000)
  28 Ir     2.748000    1.618943   16.865387    ( 0.0000,  0.0000,  0.0000)
  29 Ir     5.545468    1.613886   16.885430    ( 0.0000,  0.0000,  0.0000)
  30 Ir     1.358430    4.008678   17.023959    ( 0.0000,  0.0000,  0.0000)
  31 Ir     4.202003    3.929199   17.008690    ( 0.0000,  0.0000,  0.0000)
  32 Pt     7.113604    4.058259   16.998418    ( 0.0000,  0.0000,  0.0000)
  33 Ag     2.746781    6.479058   16.824679    ( 0.0000,  0.0000,  0.0000)
  34 Ir     5.701752    6.573073   16.922286    ( 0.0000,  0.0000,  0.0000)
  35 Ru     8.404366    6.479371   16.838350    ( 0.0000,  0.0000,  0.0000)
  36 Ir     0.012716   -0.067577   18.998150    ( 0.0000,  0.0000,  0.0000)
  37 Ir     2.784722   -0.019444   19.098012    ( 0.0000,  0.0000,  0.0000)
  38 Pt     5.683383   -0.109787   19.236748    ( 0.0000,  0.0000,  0.0000)
  39 Ag     1.391362    2.433293   19.547226    ( 0.0000,  0.0000,  0.0000)
  40 Ir     4.203609    2.406541   19.092954    ( 0.0000,  0.0000,  0.0000)
  41 Pt     7.004474    2.325042   19.120867    ( 0.0000,  0.0000,  0.0000)
  42 Ir     2.921068    4.883241   19.048206    ( 0.0000,  0.0000,  0.0000)
  43 Ir     5.524985    4.940642   19.034358    ( 0.0000,  0.0000,  0.0000)
  44 Ag     8.400099    4.842466   19.528988    ( 0.0000,  0.0000,  0.0000)
  45 O      4.115125    0.807693   20.488604    ( 0.0000,  0.0000,  0.0000)

Unit cell:
           periodic     x           y           z      points  spacing
  1. axis:    yes    8.445283    0.000000    0.000000    35     0.2090
  2. axis:    yes    4.222641    7.313829    0.000000    35     0.2090
  3. axis:    no     0.000000    0.000000   29.175054   135     0.2161

  Lengths:   8.445283   8.445283  29.175054
  Angles:   90.000000  90.000000  60.000000

Effective grid spacing dv^(1/3) = 0.2217

                     log10-error:    total        iterations:
           time      wfs    density  energy       fermi  poisson
iter:   1  22:27:59  -1.76   +inf  -272.626289    3             
iter:   2  22:29:14  -1.20  -1.73  -406.786520    37            
iter:   3  22:30:30  -1.71  -1.15  -269.102044    37            
iter:   4  22:31:45  -2.32  -1.92  -266.024813    29            
iter:   5  22:33:01  -3.43  -2.19  -265.349763    3             
iter:   6  22:34:17  -3.69  -2.67  -265.274823    2             
iter:   7  22:35:33  -4.07  -2.80  -265.262808    2             
iter:   8  22:36:49  -3.99  -2.76  -265.309673    2             
iter:   9  22:38:06  -4.02  -2.58  -265.225144    3             
iter:  10  22:39:21  -4.34  -2.94  -265.205096    2             
iter:  11  22:40:36  -5.01  -3.25  -265.200853    2             
iter:  12  22:41:52  -5.60  -3.39  -265.199948    2             
iter:  13  22:43:07  -5.36  -3.44  -265.199781    2             
iter:  14  22:44:23  -5.24  -3.40  -265.213377    2             
iter:  15  22:45:39  -5.64  -3.09  -265.199894    2             
iter:  16  22:46:54  -6.11  -3.50  -265.200785    2             
iter:  17  22:48:08  -6.05  -3.62  -265.202417    2             
iter:  18  22:49:22  -5.89  -3.50  -265.201689    2             
iter:  19  22:50:35  -6.09  -3.62  -265.201245    2             
iter:  20  22:51:49  -6.00  -3.76  -265.200189    2             
iter:  21  22:53:02  -6.78  -4.13  -265.199885    2             
iter:  22  22:54:15  -7.22  -4.26  -265.200397    2             
iter:  23  22:55:27  -6.96  -4.08  -265.199798    2             
iter:  24  22:56:41  -7.33  -4.27  -265.199985    2             
iter:  25  22:57:54  -7.79  -4.55  -265.199994    2             

Converged after 25 iterations.

Dipole moment: (24.869266, 20.844499, -0.080150) |e|*Ang

Energy contributions relative to reference atoms: (reference = -16429278.754816)

Kinetic:       -151.408646
Potential:      +94.303644
External:        +0.000000
XC:            -200.678244
Entropy (-ST):   -2.089653
Local:           -6.371921
--------------------------
Free energy:   -266.244821
Extrapolated:  -265.199994

Fermi level: 1.31671

Showing only first 2 kpts
 Kpt  Band  Eigenvalues  Occupancy
  0   357      1.31156    0.12822
  0   358      1.33111    0.11602
  0   359      1.38101    0.08614
  0   360      1.40457    0.07337

  1   357      1.20048    0.19044
  1   358      1.23484    0.17349
  1   359      1.28933    0.14200
  1   360      1.32751    0.11826



Forces in eV/Ang:
  0 Ag   -0.41893    0.15554   -1.05124
  1 Ag    0.24918    0.22282   -0.86573
  2 Ir    0.49994   -0.16860    0.03245
  3 Ir   -0.08358    1.24055    1.44449
  4 Ir    0.44028    0.40883    0.84734
  5 Ir   -0.33669   -0.02633    1.20321
  6 Ir   -1.72169   -0.51180    0.72157
  7 Ag   -0.11968   -0.34628   -0.95330
  8 Pt    1.05901   -0.38585    0.50132
  9 Ag    0.13581    0.09187    0.15105
 10 Ir   -0.03972   -0.40279    1.01517
 11 Ir   -0.62711   -0.78405   -0.52404
 12 Ir    0.37644    0.09806    0.17422
 13 Ag   -0.02751   -0.02868    0.17502
 14 Ag    0.05269    0.06579    0.15445
 15 Pt   -0.17626   -0.05530   -0.58646
 16 Ru    0.64983    0.45676   -1.39198
 17 Ir    0.12155    0.28827   -1.27763
 18 Ir   -0.01514   -0.01783    0.08103
 19 Pt    0.01555    0.01121   -0.04196
 20 Pt   -0.00546   -0.01566    0.06853
 21 Ag    0.01927    0.04807    0.05776
 22 Ag   -0.03156    0.02949    0.02446
 23 Ag    0.00764   -0.01305    0.05194
 24 Pt   -0.03988    0.05361    0.07171
 25 Ag   -0.04644    0.01278    0.02082
 26 Ir    0.00089    0.03905    0.07176
 27 Ru    0.03811   -0.00149   -0.03588
 28 Ir    0.06064   -0.07159    0.05067
 29 Ir   -0.01277   -0.09887    0.18999
 30 Ir   -0.04396   -0.02740   -0.01752
 31 Ir   -0.06165    0.22579   -0.36777
 32 Pt    0.01844   -0.00101   -0.05712
 33 Ag    0.12114   -0.05802   -0.09227
 34 Ir   -0.05691   -0.08074   -0.20161
 35 Ru   -0.00625    0.08754    0.08248
 36 Ir    0.05998   -0.06845    0.16116
 37 Ir    0.18504    0.07948    0.27256
 38 Pt    0.04791    0.03033    0.17291
 39 Ag   -0.01782   -0.01366   -0.03728
 40 Ir    0.00160   -0.30926    0.36406
 41 Pt   -0.13912   -0.15614    0.00712
 42 Ir    0.08556   -0.09131    0.13026
 43 Ir    0.00954   -0.00577    0.12360
 44 Ag   -0.03326    0.01003   -0.03363
 45 O    -0.23323    0.10376   -0.71954

System changes: positions 

Initializing position-dependent things.

Density initialized from wave functions
                                             
                                             
                                             
                                             
                                             
                                             
                               Ag            
                  Ir    Ir                   
            Ag    OIr     Pt    Ru           
                                             
       Ir    IIr    IPt    Pt                
         Ru    Ir     Ir                     
                     Pt     Ag     Ir        
                Ag     Ag     Ag             
                                             
           Ir    PPt    RPt    Ir            
                                             
            Ir    IAg    AAg    Pt           
       Ag    IIr    IIr    Ir                
                                             
        Ag     Ag     Ir                     
                                             
                                             
                                             
                                             
                                             

Positions:
   0 Ag     0.000000    1.621936   10.000000    ( 0.0000,  0.0000,  0.0000)
   1 Ag     2.809275    1.621936   10.000000    ( 0.0000,  0.0000,  0.0000)
   2 Ir     5.618550    1.621936   10.000000    ( 0.0000,  0.0000,  0.0000)
   3 Ir     1.404638    4.054840   10.000000    ( 0.0000,  0.0000,  0.0000)
   4 Ir     4.213913    4.054840   10.000000    ( 0.0000,  0.0000,  0.0000)
   5 Ir     7.023188    4.054840   10.000000    ( 0.0000,  0.0000,  0.0000)
   6 Ir     2.809275    6.487743   10.000000    ( 0.0000,  0.0000,  0.0000)
   7 Ag     5.618550    6.487743   10.000000    ( 0.0000,  0.0000,  0.0000)
   8 Pt     8.427826    6.487743   10.000000    ( 0.0000,  0.0000,  0.0000)
   9 Ag     0.000000    0.000000   12.293764    ( 0.0000,  0.0000,  0.0000)
  10 Ir     2.809275    0.000000   12.293764    ( 0.0000,  0.0000,  0.0000)
  11 Ir     5.618550    0.000000   12.293764    ( 0.0000,  0.0000,  0.0000)
  12 Ir     1.404638    2.432904   12.293764    ( 0.0000,  0.0000,  0.0000)
  13 Ag     4.213913    2.432904   12.293764    ( 0.0000,  0.0000,  0.0000)
  14 Ag     7.023188    2.432904   12.293764    ( 0.0000,  0.0000,  0.0000)
  15 Pt     2.809275    4.865807   12.293764    ( 0.0000,  0.0000,  0.0000)
  16 Ru     5.618550    4.865807   12.293764    ( 0.0000,  0.0000,  0.0000)
  17 Ir     8.427826    4.865807   12.293764    ( 0.0000,  0.0000,  0.0000)
  18 Ir     1.450863    0.790521   14.627579    ( 0.0000,  0.0000,  0.0000)
  19 Pt     4.194807    0.735446   14.606795    ( 0.0000,  0.0000,  0.0000)
  20 Pt     7.039719    0.801354   14.658408    ( 0.0000,  0.0000,  0.0000)
  21 Ag     2.794649    3.275339   14.626726    ( 0.0000,  0.0000,  0.0000)
  22 Ag     5.610438    3.241315   14.633470    ( 0.0000,  0.0000,  0.0000)
  23 Ag     8.466081    3.237375   14.609410    ( 0.0000,  0.0000,  0.0000)
  24 Pt     4.225684    5.691935   14.581909    ( 0.0000,  0.0000,  0.0000)
  25 Ag     7.009557    5.624215   14.595866    ( 0.0000,  0.0000,  0.0000)
  26 Ir     9.804713    5.750972   14.555266    ( 0.0000,  0.0000,  0.0000)
  27 Ru     0.083858    1.647553   16.934273    ( 0.0000,  0.0000,  0.0000)
  28 Ir     2.755675    1.609665   16.869810    ( 0.0000,  0.0000,  0.0000)
  29 Ir     5.541628    1.608161   16.906939    ( 0.0000,  0.0000,  0.0000)
  30 Ir     1.356376    4.006882   17.023589    ( 0.0000,  0.0000,  0.0000)
  31 Ir     4.197172    3.937632   16.983932    ( 0.0000,  0.0000,  0.0000)
  32 Pt     7.111037    4.058985   16.993777    ( 0.0000,  0.0000,  0.0000)
  33 Ag     2.755670    6.475270   16.821108    ( 0.0000,  0.0000,  0.0000)
  34 Ir     5.704139    6.567276   16.911781    ( 0.0000,  0.0000,  0.0000)
  35 Ru     8.402714    6.489345   16.843662    ( 0.0000,  0.0000,  0.0000)
  36 Ir     0.017955   -0.074888   19.016142    ( 0.0000,  0.0000,  0.0000)
  37 Ir     2.780423   -0.024925   19.114731    ( 0.0000,  0.0000,  0.0000)
  38 Pt     5.724104   -0.130060   19.246288    ( 0.0000,  0.0000,  0.0000)
  39 Ag     1.385964    2.433706   19.542631    ( 0.0000,  0.0000,  0.0000)
  40 Ir     4.203098    2.405926   19.109998    ( 0.0000,  0.0000,  0.0000)
  41 Pt     6.993691    2.310550   19.119729    ( 0.0000,  0.0000,  0.0000)
  42 Ir     2.928027    4.874561   19.064742    ( 0.0000,  0.0000,  0.0000)
  43 Ir     5.528958    4.938547   19.049020    ( 0.0000,  0.0000,  0.0000)
  44 Ag     8.395482    4.838482   19.524250    ( 0.0000,  0.0000,  0.0000)
  45 O      4.073763    0.824162   20.422363    ( 0.0000,  0.0000,  0.0000)

Unit cell:
           periodic     x           y           z      points  spacing
  1. axis:    yes    8.445283    0.000000    0.000000    35     0.2090
  2. axis:    yes    4.222641    7.313829    0.000000    35     0.2090
  3. axis:    no     0.000000    0.000000   29.175054   135     0.2161

  Lengths:   8.445283   8.445283  29.175054
  Angles:   90.000000  90.000000  60.000000

Effective grid spacing dv^(1/3) = 0.2217

                     log10-error:    total        iterations:
           time      wfs    density  energy       fermi  poisson
iter:   1  22:59:43  -2.45   +inf  -266.831920    3             
iter:   2  23:00:57  -1.92  -2.10  -304.842437    34            
iter:   3  23:02:10  -2.18  -1.39  -266.386686    3             
iter:   4  23:03:24  -3.13  -2.16  -265.531048    3             
iter:   5  23:04:38  -4.28  -2.43  -265.320207    3             
iter:   6  23:05:51  -4.29  -2.77  -265.287622    2             
iter:   7  23:07:04  -4.66  -2.88  -265.261813    3             
iter:   8  23:08:18  -5.05  -3.12  -265.256866    2             
iter:   9  23:09:31  -4.71  -3.20  -265.275677    2             
iter:  10  23:10:45  -4.90  -2.97  -265.255818    3             
iter:  11  23:12:00  -5.04  -3.13  -265.251511    3             
iter:  12  23:13:11  -5.63  -3.29  -265.249977    2             
iter:  13  23:14:21  -6.18  -3.59  -265.249727    2             
iter:  14  23:15:35  -6.26  -3.57  -265.249601    2             
iter:  15  23:16:49  -6.14  -3.66  -265.251632    2             
iter:  16  23:18:01  -6.30  -3.61  -265.249691    2             
iter:  17  23:19:16  -6.54  -3.74  -265.249690    2             
iter:  18  23:20:31  -6.34  -3.83  -265.250619    2             
iter:  19  23:21:44  -6.65  -3.87  -265.250244    2             
iter:  20  23:22:59  -6.93  -4.07  -265.250094    2             
iter:  21  23:24:13  -7.18  -4.15  -265.250389    2             
iter:  22  23:25:27  -7.07  -4.01  -265.249696    2             
iter:  23  23:26:43  -6.97  -4.23  -265.249606    2             
iter:  24  23:27:58  -7.45  -4.21  -265.249923    2             

Converged after 24 iterations.

Dipole moment: (25.012352, 22.208524, -0.045609) |e|*Ang

Energy contributions relative to reference atoms: (reference = -16429278.754816)

Kinetic:       -150.916861
Potential:      +93.834390
External:        +0.000000
XC:            -200.756913
Entropy (-ST):   -2.095604
Local:           -6.362737
--------------------------
Free energy:   -266.297725
Extrapolated:  -265.249923

Fermi level: 1.33319

Showing only first 2 kpts
 Kpt  Band  Eigenvalues  Occupancy
  0   357      1.32800    0.12825
  0   358      1.34233    0.11929
  0   359      1.39446    0.08786
  0   360      1.41710    0.07543

  1   357      1.22189    0.18817
  1   358      1.25157    0.17336
  1   359      1.31114    0.13873
  1   360      1.34221    0.11937



Forces in eV/Ang:
  0 Ag   -0.41811    0.15423   -1.04724
  1 Ag    0.24775    0.22237   -0.86240
  2 Ir    0.50031   -0.16869    0.04256
  3 Ir   -0.07947    1.24555    1.46016
  4 Ir    0.44011    0.40976    0.86035
  5 Ir   -0.33681   -0.02589    1.21498
  6 Ir   -1.72449   -0.51295    0.72780
  7 Ag   -0.11981   -0.34339   -0.95055
  8 Pt    1.05839   -0.38646    0.50831
  9 Ag    0.14196    0.10391    0.18612
 10 Ir   -0.05074   -0.39582    1.02081
 11 Ir   -0.62836   -0.78482   -0.51234
 12 Ir    0.38587    0.10007    0.19883
 13 Ag   -0.03302   -0.01908    0.18511
 14 Ag    0.05490    0.06052    0.18832
 15 Pt   -0.18426   -0.04450   -0.54971
 16 Ru    0.64646    0.46465   -1.39023
 17 Ir    0.12354    0.28323   -1.23864
 18 Ir   -0.01704    0.02961    0.01338
 19 Pt    0.01260    0.02272    0.03572
 20 Pt   -0.03447    0.05932    0.00954
 21 Ag   -0.04061   -0.00742   -0.02185
 22 Ag    0.01536   -0.04675    0.01834
 23 Ag   -0.00316    0.01418    0.01085
 24 Pt   -0.00692   -0.02033    0.00973
 25 Ag    0.02689   -0.01910   -0.02607
 26 Ir   -0.01004   -0.01943    0.02062
 27 Ru    0.02516    0.00823    0.01952
 28 Ir    0.03359   -0.00092   -0.03664
 29 Ir   -0.03028   -0.06867    0.04662
 30 Ir   -0.00083   -0.00229    0.02476
 31 Ir    0.01188    0.15638    0.19768
 32 Pt    0.00809   -0.03029    0.03140
 33 Ag    0.10161   -0.08740    0.05178
 34 Ir   -0.10083   -0.10632    0.00606
 35 Ru    0.02364    0.05115    0.04582
 36 Ir    0.11063   -0.11873   -0.02124
 37 Ir   -0.20533   -0.17541   -0.03322
 38 Pt   -0.02317   -0.02712    0.12705
 39 Ag   -0.03601   -0.01053   -0.04578
 40 Ir   -0.02640    0.27310   -0.05998
 41 Pt   -0.02686   -0.06662    0.02555
 42 Ir    0.14727   -0.13344   -0.08892
 43 Ir   -0.04896   -0.04874   -0.16612
 44 Ag   -0.00702    0.02032   -0.02902
 45 O     0.22434    0.01235   -0.07382

System changes: positions 

Initializing position-dependent things.

Density initialized from wave functions
                                             
                                             
                                             
                                             
                                             
                                             
                               Ag            
                  Ir    Ir                   
            Ag    OIr     Pt    Ru           
                                             
       Ir    IIr    IPt    Pt                
         Ru    Ir     Ir                     
                     Pt     Ag     Ir        
                Ag     Ag     Ag             
                                             
           Ir    PPt    RPt    Ir            
                                             
            Ir    IAg    AAg    Pt           
       Ag    IIr    IIr    Ir                
                                             
        Ag     Ag     Ir                     
                                             
                                             
                                             
                                             
                                             

Positions:
   0 Ag     0.000000    1.621936   10.000000    ( 0.0000,  0.0000,  0.0000)
   1 Ag     2.809275    1.621936   10.000000    ( 0.0000,  0.0000,  0.0000)
   2 Ir     5.618550    1.621936   10.000000    ( 0.0000,  0.0000,  0.0000)
   3 Ir     1.404638    4.054840   10.000000    ( 0.0000,  0.0000,  0.0000)
   4 Ir     4.213913    4.054840   10.000000    ( 0.0000,  0.0000,  0.0000)
   5 Ir     7.023188    4.054840   10.000000    ( 0.0000,  0.0000,  0.0000)
   6 Ir     2.809275    6.487743   10.000000    ( 0.0000,  0.0000,  0.0000)
   7 Ag     5.618550    6.487743   10.000000    ( 0.0000,  0.0000,  0.0000)
   8 Pt     8.427826    6.487743   10.000000    ( 0.0000,  0.0000,  0.0000)
   9 Ag     0.000000    0.000000   12.293764    ( 0.0000,  0.0000,  0.0000)
  10 Ir     2.809275    0.000000   12.293764    ( 0.0000,  0.0000,  0.0000)
  11 Ir     5.618550    0.000000   12.293764    ( 0.0000,  0.0000,  0.0000)
  12 Ir     1.404638    2.432904   12.293764    ( 0.0000,  0.0000,  0.0000)
  13 Ag     4.213913    2.432904   12.293764    ( 0.0000,  0.0000,  0.0000)
  14 Ag     7.023188    2.432904   12.293764    ( 0.0000,  0.0000,  0.0000)
  15 Pt     2.809275    4.865807   12.293764    ( 0.0000,  0.0000,  0.0000)
  16 Ru     5.618550    4.865807   12.293764    ( 0.0000,  0.0000,  0.0000)
  17 Ir     8.427826    4.865807   12.293764    ( 0.0000,  0.0000,  0.0000)
  18 Ir     1.449525    0.792803   14.633999    ( 0.0000,  0.0000,  0.0000)
  19 Pt     4.196574    0.738033   14.608538    ( 0.0000,  0.0000,  0.0000)
  20 Pt     7.036365    0.806442   14.663051    ( 0.0000,  0.0000,  0.0000)
  21 Ag     2.791644    3.276711   14.627778    ( 0.0000,  0.0000,  0.0000)
  22 Ag     5.610453    3.238490   14.636357    ( 0.0000,  0.0000,  0.0000)
  23 Ag     8.466221    3.237962   14.612374    ( 0.0000,  0.0000,  0.0000)
  24 Pt     4.223220    5.692703   14.585102    ( 0.0000,  0.0000,  0.0000)
  25 Ag     7.009771    5.623288   14.594584    ( 0.0000,  0.0000,  0.0000)
  26 Ir     9.803195    5.751033   14.561003    ( 0.0000,  0.0000,  0.0000)
  27 Ru     0.087544    1.647425   16.935354    ( 0.0000,  0.0000,  0.0000)
  28 Ir     2.762118    1.605690   16.868071    ( 0.0000,  0.0000,  0.0000)
  29 Ir     5.537163    1.598917   16.920407    ( 0.0000,  0.0000,  0.0000)
  30 Ir     1.355259    4.005845   17.025854    ( 0.0000,  0.0000,  0.0000)
  31 Ir     4.196220    3.956923   16.992331    ( 0.0000,  0.0000,  0.0000)
  32 Pt     7.110919    4.056310   16.994787    ( 0.0000,  0.0000,  0.0000)
  33 Ag     2.769431    6.465058   16.824462    ( 0.0000,  0.0000,  0.0000)
  34 Ir     5.695163    6.554405   16.907820    ( 0.0000,  0.0000,  0.0000)
  35 Ru     8.404430    6.498442   16.850301    ( 0.0000,  0.0000,  0.0000)
  36 Ir     0.030969   -0.089634   19.021591    ( 0.0000,  0.0000,  0.0000)
  37 Ir     2.760254   -0.043350   19.120447    ( 0.0000,  0.0000,  0.0000)
  38 Pt     5.737277   -0.140285   19.264270    ( 0.0000,  0.0000,  0.0000)
  39 Ag     1.380217    2.432821   19.536252    ( 0.0000,  0.0000,  0.0000)
  40 Ir     4.200113    2.430200   19.113466    ( 0.0000,  0.0000,  0.0000)
  41 Pt     6.986675    2.297941   19.121783    ( 0.0000,  0.0000,  0.0000)
  42 Ir     2.945433    4.857835   19.062918    ( 0.0000,  0.0000,  0.0000)
  43 Ir     5.525675    4.932926   19.039000    ( 0.0000,  0.0000,  0.0000)
  44 Ag     8.392857    4.838773   19.519439    ( 0.0000,  0.0000,  0.0000)
  45 O      4.078323    0.832266   20.383065    ( 0.0000,  0.0000,  0.0000)

Unit cell:
           periodic     x           y           z      points  spacing
  1. axis:    yes    8.445283    0.000000    0.000000    35     0.2090
  2. axis:    yes    4.222641    7.313829    0.000000    35     0.2090
  3. axis:    no     0.000000    0.000000   29.175054   135     0.2161

  Lengths:   8.445283   8.445283  29.175054
  Angles:   90.000000  90.000000  60.000000

Effective grid spacing dv^(1/3) = 0.2217

                     log10-error:    total        iterations:
           time      wfs    density  energy       fermi  poisson
iter:   1  23:29:46  -2.55   +inf  -267.269958    3             
iter:   2  23:31:01  -1.79  -2.04  -310.936332    30            
iter:   3  23:32:15  -2.18  -1.37  -266.401296    4             
iter:   4  23:33:29  -3.01  -2.16  -265.334312    3             
iter:   5  23:34:44  -4.34  -2.85  -265.335044    3             
iter:   6  23:35:56  -4.77  -2.82  -265.301984    2             
iter:   7  23:37:10  -4.60  -3.06  -265.289800    2             
iter:   8  23:38:24  -4.89  -3.29  -265.286038    2             
iter:   9  23:39:38  -5.46  -3.35  -265.289264    2             
iter:  10  23:40:53  -5.48  -3.34  -265.285110    2             
iter:  11  23:42:07  -5.64  -3.47  -265.285117    2             
iter:  12  23:43:23  -6.01  -3.70  -265.284806    2             
iter:  13  23:44:36  -6.44  -3.80  -265.284856    2             
iter:  14  23:45:50  -6.66  -3.86  -265.284162    2             
iter:  15  23:47:04  -6.64  -3.79  -265.285397    2             
iter:  16  23:48:18  -6.76  -3.78  -265.284387    2             
iter:  17  23:49:31  -6.83  -3.98  -265.284584    2             
iter:  18  23:50:46  -7.09  -4.05  -265.284461    2             
iter:  19  23:52:03  -7.19  -4.17  -265.284552    2             
iter:  20  23:53:18  -7.06  -4.20  -265.284012    2             
iter:  21  23:54:34  -7.28  -4.06  -265.284563    2             
iter:  22  23:55:52  -7.41  -4.21  -265.284247    2             

Converged after 22 iterations.

Dipole moment: (24.327665, 24.074413, -0.027710) |e|*Ang

Energy contributions relative to reference atoms: (reference = -16429278.754816)

Kinetic:       -148.263416
Potential:      +91.529236
External:        +0.000000
XC:            -201.127656
Entropy (-ST):   -2.092872
Local:           -6.375975
--------------------------
Free energy:   -266.330683
Extrapolated:  -265.284247

Fermi level: 1.34023

Showing only first 2 kpts
 Kpt  Band  Eigenvalues  Occupancy
  0   357      1.33641    0.12739
  0   358      1.34498    0.12203
  0   359      1.39850    0.08958
  0   360      1.42452    0.07523

  1   357      1.23106    0.18717
  1   358      1.25738    0.17401
  1   359      1.31630    0.13989
  1   360      1.34452    0.12232



Forces in eV/Ang:
  0 Ag   -0.42106    0.15501   -1.04811
  1 Ag    0.24912    0.22350   -0.86116
  2 Ir    0.50108   -0.16962    0.03741
  3 Ir   -0.08232    1.24816    1.45484
  4 Ir    0.44076    0.41261    0.85892
  5 Ir   -0.33757   -0.02303    1.21499
  6 Ir   -1.72600   -0.51585    0.72441
  7 Ag   -0.12056   -0.34768   -0.95091
  8 Pt    1.06116   -0.39051    0.50878
  9 Ag    0.14237    0.10726    0.21659
 10 Ir   -0.05244   -0.39153    1.02769
 11 Ir   -0.63619   -0.79064   -0.49602
 12 Ir    0.38604    0.09268    0.20839
 13 Ag   -0.03514   -0.01579    0.18880
 14 Ag    0.05812    0.06320    0.19276
 15 Pt   -0.18950   -0.03399   -0.53918
 16 Ru    0.64021    0.46357   -1.38382
 17 Ir    0.13082    0.28397   -1.23111
 18 Ir   -0.01600    0.01575   -0.04127
 19 Pt   -0.01050   -0.01250    0.04026
 20 Pt   -0.01719   -0.00576    0.01072
 21 Ag   -0.00997   -0.00500   -0.01064
 22 Ag   -0.00930   -0.02593    0.05381
 23 Ag   -0.00903    0.01728   -0.01723
 24 Pt    0.02057   -0.03243   -0.06171
 25 Ag    0.03255    0.00342   -0.00785
 26 Ir    0.00889   -0.00313   -0.00931
 27 Ru    0.01314    0.00355    0.04876
 28 Ir   -0.01605   -0.02189   -0.03311
 29 Ir   -0.02227   -0.00960   -0.01920
 30 Ir    0.00788   -0.00999    0.01471
 31 Ir    0.06375   -0.12657   -0.17049
 32 Pt    0.04296   -0.07090    0.01702
 33 Ag   -0.04668    0.03240    0.05857
 34 Ir    0.02637    0.01904   -0.03074
 35 Ru    0.02996    0.01467   -0.00115
 36 Ir   -0.05741    0.00681   -0.02954
 37 Ir   -0.12438   -0.14386   -0.01979
 38 Pt    0.06023   -0.14299    0.03779
 39 Ag   -0.03268   -0.03301   -0.05752
 40 Ir    0.01380    0.25734   -0.01542
 41 Pt    0.03000   -0.03747    0.01118
 42 Ir   -0.18540    0.05402    0.10019
 43 Ir    0.17551   -0.08216    0.03307
 44 Ag    0.01172    0.00851   -0.02324
 45 O     0.07110   -0.03621   -0.18369

System changes: positions 

Initializing position-dependent things.

Density initialized from wave functions
                                             
                                             
                                             
                                             
                                             
                                             
                  Ir    Ir     Ag            
            Ag                               
                  OIr     Pt    Ru           
                     Pt                      
       Ir    IIr    Ir      Pt               
         Ru    Ir     Ir                     
                     Pt     Ag     Ir        
                Ag     Ag     Ag             
                                             
           Ir    PPt    RPt    Ir            
                                             
            Ir     Ag    AAg    Pt           
       Ag    IIr    IIr    Ir                
                                             
        Ag     Ag     Ir                     
                                             
                                             
                                             
                                             
                                             

Positions:
   0 Ag     0.000000    1.621936   10.000000    ( 0.0000,  0.0000,  0.0000)
   1 Ag     2.809275    1.621936   10.000000    ( 0.0000,  0.0000,  0.0000)
   2 Ir     5.618550    1.621936   10.000000    ( 0.0000,  0.0000,  0.0000)
   3 Ir     1.404638    4.054840   10.000000    ( 0.0000,  0.0000,  0.0000)
   4 Ir     4.213913    4.054840   10.000000    ( 0.0000,  0.0000,  0.0000)
   5 Ir     7.023188    4.054840   10.000000    ( 0.0000,  0.0000,  0.0000)
   6 Ir     2.809275    6.487743   10.000000    ( 0.0000,  0.0000,  0.0000)
   7 Ag     5.618550    6.487743   10.000000    ( 0.0000,  0.0000,  0.0000)
   8 Pt     8.427826    6.487743   10.000000    ( 0.0000,  0.0000,  0.0000)
   9 Ag     0.000000    0.000000   12.293764    ( 0.0000,  0.0000,  0.0000)
  10 Ir     2.809275    0.000000   12.293764    ( 0.0000,  0.0000,  0.0000)
  11 Ir     5.618550    0.000000   12.293764    ( 0.0000,  0.0000,  0.0000)
  12 Ir     1.404638    2.432904   12.293764    ( 0.0000,  0.0000,  0.0000)
  13 Ag     4.213913    2.432904   12.293764    ( 0.0000,  0.0000,  0.0000)
  14 Ag     7.023188    2.432904   12.293764    ( 0.0000,  0.0000,  0.0000)
  15 Pt     2.809275    4.865807   12.293764    ( 0.0000,  0.0000,  0.0000)
  16 Ru     5.618550    4.865807   12.293764    ( 0.0000,  0.0000,  0.0000)
  17 Ir     8.427826    4.865807   12.293764    ( 0.0000,  0.0000,  0.0000)
  18 Ir     1.445566    0.798681   14.642588    ( 0.0000,  0.0000,  0.0000)
  19 Pt     4.198434    0.741133   14.616278    ( 0.0000,  0.0000,  0.0000)
  20 Pt     7.028418    0.814183   14.674658    ( 0.0000,  0.0000,  0.0000)
  21 Ag     2.785589    3.279392   14.629922    ( 0.0000,  0.0000,  0.0000)
  22 Ag     5.608595    3.231076   14.649125    ( 0.0000,  0.0000,  0.0000)
  23 Ag     8.465449    3.240959   14.615835    ( 0.0000,  0.0000,  0.0000)
  24 Pt     4.220733    5.691177   14.582360    ( 0.0000,  0.0000,  0.0000)
  25 Ag     7.013331    5.622477   14.591989    ( 0.0000,  0.0000,  0.0000)
  26 Ir     9.801333    5.751457   14.571703    ( 0.0000,  0.0000,  0.0000)
  27 Ru     0.095910    1.647005   16.943908    ( 0.0000,  0.0000,  0.0000)
  28 Ir     2.772568    1.593860   16.860973    ( 0.0000,  0.0000,  0.0000)
  29 Ir     5.525463    1.581277   16.944800    ( 0.0000,  0.0000,  0.0000)
  30 Ir     1.354050    4.002453   17.032132    ( 0.0000,  0.0000,  0.0000)
  31 Ir     4.202496    3.972673   16.981706    ( 0.0000,  0.0000,  0.0000)
  32 Pt     7.115550    4.042317   16.998045    ( 0.0000,  0.0000,  0.0000)
  33 Ag     2.787990    6.451258   16.838498    ( 0.0000,  0.0000,  0.0000)
  34 Ir     5.685155    6.534061   16.897351    ( 0.0000,  0.0000,  0.0000)
  35 Ru     8.411329    6.517805   16.861454    ( 0.0000,  0.0000,  0.0000)
  36 Ir     0.046563   -0.116009   19.030210    ( 0.0000,  0.0000,  0.0000)
  37 Ir     2.707709   -0.095653   19.134769    ( 0.0000,  0.0000,  0.0000)
  38 Pt     5.778153   -0.183396   19.306077    ( 0.0000,  0.0000,  0.0000)
  39 Ag     1.364091    2.427264   19.516501    ( 0.0000,  0.0000,  0.0000)
  40 Ir     4.195754    2.507507   19.122907    ( 0.0000,  0.0000,  0.0000)
  41 Pt     6.978256    2.268951   19.126333    ( 0.0000,  0.0000,  0.0000)
  42 Ir     2.951792    4.834548   19.076378    ( 0.0000,  0.0000,  0.0000)
  43 Ir     5.544412    4.911352   19.028966    ( 0.0000,  0.0000,  0.0000)
  44 Ag     8.388797    4.838355   19.506853    ( 0.0000,  0.0000,  0.0000)
  45 O      4.084737    0.845625   20.264882    ( 0.0000,  0.0000,  0.0000)

Unit cell:
           periodic     x           y           z      points  spacing
  1. axis:    yes    8.445283    0.000000    0.000000    35     0.2090
  2. axis:    yes    4.222641    7.313829    0.000000    35     0.2090
  3. axis:    no     0.000000    0.000000   29.175054   135     0.2161

  Lengths:   8.445283   8.445283  29.175054
  Angles:   90.000000  90.000000  60.000000

Effective grid spacing dv^(1/3) = 0.2217

                     log10-error:    total        iterations:
           time      wfs    density  energy       fermi  poisson
iter:   1  23:57:39  -1.97   +inf  -276.443772    4             
iter:   2  23:58:55  -0.79  -1.65  -495.016934    37            
iter:   3  00:00:10  -1.42  -1.06  -273.654979    33            
iter:   4  00:01:25  -2.23  -1.76  -265.573152    36            
iter:   5  00:02:41  -3.28  -2.50  -265.458717    3             
iter:   6  00:03:55  -4.11  -2.54  -265.359674    2             
iter:   7  00:05:10  -4.40  -2.76  -265.345113    3             
iter:   8  00:06:26  -4.14  -2.80  -265.315634    2             
iter:   9  00:07:41  -4.84  -2.97  -265.309518    3             
iter:  10  00:08:59  -4.77  -3.09  -265.307882    2             
iter:  11  00:10:14  -4.90  -3.21  -265.303657    3             
iter:  12  00:11:30  -5.14  -3.32  -265.303576    2             
iter:  13  00:12:46  -5.65  -3.45  -265.301986    2             
iter:  14  00:14:00  -5.70  -3.56  -265.300917    2             
iter:  15  00:15:15  -6.17  -3.44  -265.301697    2             
iter:  16  00:16:29  -5.98  -3.64  -265.301577    2             
iter:  17  00:17:43  -6.09  -3.78  -265.300842    2             
iter:  18  00:18:58  -6.42  -3.68  -265.301189    2             
iter:  19  00:20:12  -6.87  -3.96  -265.301237    2             
iter:  20  00:21:30  -7.00  -4.06  -265.300965    2             
iter:  21  00:22:47  -6.84  -4.04  -265.301540    2             
iter:  22  00:24:02  -7.01  -4.00  -265.301509    2             
iter:  23  00:25:19  -7.38  -4.06  -265.301037    2             
iter:  24  00:26:35  -7.56  -4.30  -265.301217    2             

Converged after 24 iterations.

Dipole moment: (25.825703, 29.090394, -0.000202) |e|*Ang

Energy contributions relative to reference atoms: (reference = -16429278.754816)

Kinetic:       -143.779566
Potential:      +87.627045
External:        +0.000000
XC:            -201.721166
Entropy (-ST):   -2.085044
Local:           -6.385007
--------------------------
Free energy:   -266.343739
Extrapolated:  -265.301217

Fermi level: 1.35282

Showing only first 2 kpts
 Kpt  Band  Eigenvalues  Occupancy
  0   357      1.34449    0.13020
  0   358      1.35250    0.12520
  0   359      1.41184    0.08915
  0   360      1.43174    0.07808

  1   357      1.24518    0.18645
  1   358      1.26532    0.17645
  1   359      1.32045    0.14506
  1   360      1.35031    0.12657



Forces in eV/Ang:
  0 Ag   -0.41810    0.15449   -1.05023
  1 Ag    0.24396    0.22285   -0.86265
  2 Ir    0.50205   -0.16864    0.04651
  3 Ir   -0.08909    1.24258    1.44657
  4 Ir    0.43570    0.41368    0.86542
  5 Ir   -0.33313   -0.02657    1.21837
  6 Ir   -1.72332   -0.52003    0.73795
  7 Ag   -0.12185   -0.34328   -0.95128
  8 Pt    1.06075   -0.39203    0.51726
  9 Ag    0.13771    0.13039    0.26260
 10 Ir   -0.04916   -0.37891    1.03358
 11 Ir   -0.64951   -0.78816   -0.46484
 12 Ir    0.38839    0.08077    0.22542
 13 Ag   -0.03211   -0.01420    0.22262
 14 Ag    0.05399    0.06004    0.22855
 15 Pt   -0.20390   -0.02407   -0.51851
 16 Ru    0.62989    0.45314   -1.34758
 17 Ir    0.14204    0.28755   -1.22258
 18 Ir   -0.03739   -0.03833   -0.11019
 19 Pt   -0.04907   -0.05283    0.00442
 20 Pt    0.04810   -0.12918   -0.00531
 21 Ag    0.02681   -0.00730   -0.02983
 22 Ag   -0.00326    0.02886    0.00141
 23 Ag   -0.01731   -0.00545   -0.02684
 24 Pt    0.06465   -0.03827   -0.02586
 25 Ag   -0.00099    0.01810    0.04952
 26 Ir    0.06284    0.01903   -0.03129
 27 Ru   -0.00438   -0.02214    0.01418
 28 Ir   -0.04544   -0.05945    0.05032
 29 Ir   -0.01934    0.00628   -0.01396
 30 Ir    0.04153   -0.00084   -0.01283
 31 Ir    0.03088   -0.17531   -0.20233
 32 Pt    0.09006   -0.08109   -0.03984
 33 Ag   -0.21419    0.13570   -0.04644
 34 Ir    0.15733    0.10515   -0.01025
 35 Ru    0.02883   -0.06417   -0.05267
 36 Ir   -0.23230    0.04421   -0.00573
 37 Ir    0.03069   -0.01870   -0.10035
 38 Pt    0.09435   -0.10462   -0.05819
 39 Ag    0.03760   -0.09134   -0.01570
 40 Ir    0.14013    0.03043    0.03265
 41 Pt    0.04911   -0.01506    0.01045
 42 Ir   -0.15090    0.25005    0.02755
 43 Ir   -0.07012   -0.01093    0.14467
 44 Ag    0.06084   -0.05263    0.03340
 45 O    -0.05178   -0.12511    0.33649

System changes: positions 

Initializing position-dependent things.

Density initialized from wave functions
                                             
                                             
                                             
                                             
                                             
                                             
                        Ir     Ag            
                  Ir                         
            Ag    OIr     Pt    Ru           
                                             
       Ir    IIr    IPt     Pt               
         Ru    Ir     Ir                     
                     Pt     Ag     Ir        
                Ag     Ag     Ag             
                                             
           Ir    PPt    RPt    Ir            
                                             
            Ir     Ag    AAg    Pt           
       Ag    IIr    IIr    Ir                
                                             
        Ag     Ag     Ir                     
                                             
                                             
                                             
                                             
                                             

Positions:
   0 Ag     0.000000    1.621936   10.000000    ( 0.0000,  0.0000,  0.0000)
   1 Ag     2.809275    1.621936   10.000000    ( 0.0000,  0.0000,  0.0000)
   2 Ir     5.618550    1.621936   10.000000    ( 0.0000,  0.0000,  0.0000)
   3 Ir     1.404638    4.054840   10.000000    ( 0.0000,  0.0000,  0.0000)
   4 Ir     4.213913    4.054840   10.000000    ( 0.0000,  0.0000,  0.0000)
   5 Ir     7.023188    4.054840   10.000000    ( 0.0000,  0.0000,  0.0000)
   6 Ir     2.809275    6.487743   10.000000    ( 0.0000,  0.0000,  0.0000)
   7 Ag     5.618550    6.487743   10.000000    ( 0.0000,  0.0000,  0.0000)
   8 Pt     8.427826    6.487743   10.000000    ( 0.0000,  0.0000,  0.0000)
   9 Ag     0.000000    0.000000   12.293764    ( 0.0000,  0.0000,  0.0000)
  10 Ir     2.809275    0.000000   12.293764    ( 0.0000,  0.0000,  0.0000)
  11 Ir     5.618550    0.000000   12.293764    ( 0.0000,  0.0000,  0.0000)
  12 Ir     1.404638    2.432904   12.293764    ( 0.0000,  0.0000,  0.0000)
  13 Ag     4.213913    2.432904   12.293764    ( 0.0000,  0.0000,  0.0000)
  14 Ag     7.023188    2.432904   12.293764    ( 0.0000,  0.0000,  0.0000)
  15 Pt     2.809275    4.865807   12.293764    ( 0.0000,  0.0000,  0.0000)
  16 Ru     5.618550    4.865807   12.293764    ( 0.0000,  0.0000,  0.0000)
  17 Ir     8.427826    4.865807   12.293764    ( 0.0000,  0.0000,  0.0000)
  18 Ir     1.447416    0.795934   14.638574    ( 0.0000,  0.0000,  0.0000)
  19 Pt     4.197565    0.739684   14.612661    ( 0.0000,  0.0000,  0.0000)
  20 Pt     7.032131    0.810566   14.669234    ( 0.0000,  0.0000,  0.0000)
  21 Ag     2.788418    3.278139   14.628920    ( 0.0000,  0.0000,  0.0000)
  22 Ag     5.609463    3.234540   14.643159    ( 0.0000,  0.0000,  0.0000)
  23 Ag     8.465810    3.239559   14.614218    ( 0.0000,  0.0000,  0.0000)
  24 Pt     4.221895    5.691890   14.583641    ( 0.0000,  0.0000,  0.0000)
  25 Ag     7.011668    5.622856   14.593202    ( 0.0000,  0.0000,  0.0000)
  26 Ir     9.802203    5.751259   14.566703    ( 0.0000,  0.0000,  0.0000)
  27 Ru     0.092000    1.647201   16.939911    ( 0.0000,  0.0000,  0.0000)
  28 Ir     2.767685    1.599388   16.864290    ( 0.0000,  0.0000,  0.0000)
  29 Ir     5.530930    1.589520   16.933401    ( 0.0000,  0.0000,  0.0000)
  30 Ir     1.354615    4.004038   17.029198    ( 0.0000,  0.0000,  0.0000)
  31 Ir     4.199563    3.965314   16.986671    ( 0.0000,  0.0000,  0.0000)
  32 Pt     7.113386    4.048855   16.996523    ( 0.0000,  0.0000,  0.0000)
  33 Ag     2.779318    6.457706   16.831939    ( 0.0000,  0.0000,  0.0000)
  34 Ir     5.689832    6.543568   16.902243    ( 0.0000,  0.0000,  0.0000)
  35 Ru     8.408106    6.508757   16.856242    ( 0.0000,  0.0000,  0.0000)
  36 Ir     0.039276   -0.103685   19.026182    ( 0.0000,  0.0000,  0.0000)
  37 Ir     2.732262   -0.071213   19.128077    ( 0.0000,  0.0000,  0.0000)
  38 Pt     5.759053   -0.163251   19.286541    ( 0.0000,  0.0000,  0.0000)
  39 Ag     1.371626    2.429860   19.525731    ( 0.0000,  0.0000,  0.0000)
  40 Ir     4.197791    2.471383   19.118495    ( 0.0000,  0.0000,  0.0000)
  41 Pt     6.982190    2.282497   19.124207    ( 0.0000,  0.0000,  0.0000)
[...]
  22 Ag     5.609760    3.232445   14.646262    ( 0.0000,  0.0000,  0.0000)
  23 Ag     8.463919    3.240633   14.613388    ( 0.0000,  0.0000,  0.0000)
  24 Pt     4.225271    5.688717   14.579862    ( 0.0000,  0.0000,  0.0000)
  25 Ag     7.013759    5.623187   14.594183    ( 0.0000,  0.0000,  0.0000)
  26 Ir     9.805610    5.751402   14.567051    ( 0.0000,  0.0000,  0.0000)
  27 Ru     0.094153    1.646159   16.944858    ( 0.0000,  0.0000,  0.0000)
  28 Ir     2.768843    1.592816   16.864029    ( 0.0000,  0.0000,  0.0000)
  29 Ir     5.526124    1.582724   16.938631    ( 0.0000,  0.0000,  0.0000)
  30 Ir     1.356974    4.003444   17.032157    ( 0.0000,  0.0000,  0.0000)
  31 Ir     4.202276    3.962423   16.974379    ( 0.0000,  0.0000,  0.0000)
  32 Pt     7.121676    4.039538   16.995089    ( 0.0000,  0.0000,  0.0000)
  33 Ag     2.772321    6.460867   16.833966    ( 0.0000,  0.0000,  0.0000)
  34 Ir     5.694233    6.543566   16.897045    ( 0.0000,  0.0000,  0.0000)
  35 Ru     8.412253    6.511050   16.856308    ( 0.0000,  0.0000,  0.0000)
  36 Ir     0.030951   -0.109505   19.026814    ( 0.0000,  0.0000,  0.0000)
  37 Ir     2.716776   -0.090742   19.127058    ( 0.0000,  0.0000,  0.0000)
  38 Pt     5.768141   -0.178288   19.296204    ( 0.0000,  0.0000,  0.0000)
  39 Ag     1.369519    2.421764   19.517209    ( 0.0000,  0.0000,  0.0000)
  40 Ir     4.203615    2.499680   19.126381    ( 0.0000,  0.0000,  0.0000)
  41 Pt     6.984680    2.271578   19.125293    ( 0.0000,  0.0000,  0.0000)
  42 Ir     2.943572    4.850559   19.071490    ( 0.0000,  0.0000,  0.0000)
  43 Ir     5.535794    4.914200   19.032623    ( 0.0000,  0.0000,  0.0000)
  44 Ag     8.394576    4.836558   19.510591    ( 0.0000,  0.0000,  0.0000)
  45 O      4.095366    0.835321   20.297001    ( 0.0000,  0.0000,  0.0000)

Unit cell:
           periodic     x           y           z      points  spacing
  1. axis:    yes    8.445283    0.000000    0.000000    35     0.2090
  2. axis:    yes    4.222641    7.313829    0.000000    35     0.2090
  3. axis:    no     0.000000    0.000000   29.175054   135     0.2161

  Lengths:   8.445283   8.445283  29.175054
  Angles:   90.000000  90.000000  60.000000

Effective grid spacing dv^(1/3) = 0.2217

                     log10-error:    total        iterations:
           time      wfs    density  energy       fermi  poisson
iter:   1  00:54:07  -2.91   +inf  -265.737669    3             
iter:   2  00:55:22  -2.50  -2.38  -278.860927    3             
iter:   3  00:56:36  -2.81  -1.58  -265.385152    3             
iter:   4  00:57:52  -3.85  -2.79  -265.347429    3             
iter:   5  00:59:06  -5.01  -2.99  -265.333499    3             
iter:   6  01:00:23  -5.39  -3.26  -265.329572    2             
iter:   7  01:01:40  -5.04  -3.41  -265.327332    2             
iter:   8  01:02:57  -5.19  -3.59  -265.328102    2             
iter:   9  01:04:11  -5.79  -3.56  -265.326408    2             
iter:  10  01:05:29  -6.12  -3.44  -265.326309    2             
iter:  11  01:06:43  -6.45  -3.88  -265.326113    2             
iter:  12  01:07:59  -6.29  -3.92  -265.326351    2             
iter:  13  01:09:14  -6.64  -4.03  -265.326367    2             
iter:  14  01:10:28  -6.99  -4.12  -265.326174    2             
iter:  15  01:11:45  -7.11  -4.24  -265.326177    2             
iter:  16  01:12:59  -7.36  -4.34  -265.326232    2             
iter:  17  01:14:13  -7.39  -4.34  -265.325823    2             
iter:  18  01:15:29  -7.22  -4.02  -265.326272    2             
iter:  19  01:16:42  -7.66  -4.38  -265.326219    2             

Converged after 19 iterations.

Dipole moment: (26.484893, 28.343145, -0.012083) |e|*Ang

Energy contributions relative to reference atoms: (reference = -16429278.754816)

Kinetic:       -146.397425
Potential:      +89.876642
External:        +0.000000
XC:            -201.381649
Entropy (-ST):   -2.087438
Local:           -6.380068
--------------------------
Free energy:   -266.369938
Extrapolated:  -265.326219

Fermi level: 1.34683

Showing only first 2 kpts
 Kpt  Band  Eigenvalues  Occupancy
  0   357      1.33992    0.12932
  0   358      1.34443    0.12650
  0   359      1.40617    0.08896
  0   360      1.42604    0.07793

  1   357      1.23960    0.18626
  1   358      1.25938    0.17642
  1   359      1.31739    0.14327
  1   360      1.34665    0.12511



Forces in eV/Ang:
  0 Ag   -0.41845    0.15546   -1.04656
  1 Ag    0.24568    0.22220   -0.85836
  2 Ir    0.49956   -0.16715    0.05050
  3 Ir   -0.08787    1.24586    1.44603
  4 Ir    0.43728    0.41234    0.86635
  5 Ir   -0.33509   -0.02496    1.22002
  6 Ir   -1.72179   -0.51943    0.73722
  7 Ag   -0.11957   -0.34506   -0.94671
  8 Pt    1.05947   -0.39098    0.51704
  9 Ag    0.13227    0.12108    0.23275
 10 Ir   -0.04331   -0.38805    1.02760
 11 Ir   -0.64705   -0.79062   -0.47511
 12 Ir    0.38359    0.08827    0.22096
 13 Ag   -0.02801   -0.01713    0.21514
 14 Ag    0.05091    0.05842    0.22342
 15 Pt   -0.19945   -0.02898   -0.53784
 16 Ru    0.63735    0.45168   -1.35162
 17 Ir    0.13845    0.28900   -1.22940
 18 Ir   -0.00466   -0.00419   -0.03428
 19 Pt   -0.01017   -0.01848   -0.00423
 20 Pt    0.01697   -0.03008   -0.02115
 21 Ag   -0.00079   -0.03057   -0.00307
 22 Ag    0.01538   -0.02015   -0.00748
 23 Ag    0.00954   -0.01931   -0.01395
 24 Pt    0.02576   -0.02905    0.01238
 25 Ag    0.01229   -0.00674    0.01524
 26 Ir    0.01308   -0.00281   -0.03448
 27 Ru    0.01025   -0.01900   -0.00435
 28 Ir   -0.01386   -0.01748    0.01932
 29 Ir   -0.02631    0.04433   -0.00758
 30 Ir    0.03778   -0.02177   -0.01883
 31 Ir   -0.00437   -0.08517   -0.00501
 32 Pt   -0.00631   -0.02624    0.02582
 33 Ag   -0.05433    0.04419   -0.03804
 34 Ir    0.04107    0.02460    0.02525
 35 Ru   -0.02367   -0.04947   -0.02507
 36 Ir   -0.04367    0.00454   -0.05937
 37 Ir    0.07446    0.01236    0.02425
 38 Pt    0.00851   -0.02786   -0.01127
 39 Ag    0.05355   -0.06034   -0.02035
 40 Ir    0.08765   -0.00050    0.04412
 41 Pt    0.01641   -0.00217   -0.00578
 42 Ir   -0.03760    0.04697   -0.05344
 43 Ir   -0.03601   -0.00229    0.00702
 44 Ag    0.01828   -0.05634    0.01330
 45 O    -0.13267   -0.01489    0.01110

System changes: positions 

Initializing position-dependent things.

Density initialized from wave functions
                                             
                                             
                                             
                                             
                                             
                                             
                  Ir    Ir     Ag            
                                             
            Ag    OIr     Pt    Ru           
                     Pt                      
       Ir    IIr    Ir      Pt               
         Ru    Ir     Ir                     
                     Pt     Ag     Ir        
                Ag     Ag     Ag             
                                             
           Ir    PPt    RPt    Ir            
                                             
            Ir    IAg    AAg    Pt           
       Ag    IIr    IIr    Ir                
                                             
        Ag     Ag     Ir                     
                                             
                                             
                                             
                                             
                                             

Positions:
   0 Ag     0.000000    1.621936   10.000000    ( 0.0000,  0.0000,  0.0000)
   1 Ag     2.809275    1.621936   10.000000    ( 0.0000,  0.0000,  0.0000)
   2 Ir     5.618550    1.621936   10.000000    ( 0.0000,  0.0000,  0.0000)
   3 Ir     1.404638    4.054840   10.000000    ( 0.0000,  0.0000,  0.0000)
   4 Ir     4.213913    4.054840   10.000000    ( 0.0000,  0.0000,  0.0000)
   5 Ir     7.023188    4.054840   10.000000    ( 0.0000,  0.0000,  0.0000)
   6 Ir     2.809275    6.487743   10.000000    ( 0.0000,  0.0000,  0.0000)
   7 Ag     5.618550    6.487743   10.000000    ( 0.0000,  0.0000,  0.0000)
   8 Pt     8.427826    6.487743   10.000000    ( 0.0000,  0.0000,  0.0000)
   9 Ag     0.000000    0.000000   12.293764    ( 0.0000,  0.0000,  0.0000)
  10 Ir     2.809275    0.000000   12.293764    ( 0.0000,  0.0000,  0.0000)
  11 Ir     5.618550    0.000000   12.293764    ( 0.0000,  0.0000,  0.0000)
  12 Ir     1.404638    2.432904   12.293764    ( 0.0000,  0.0000,  0.0000)
  13 Ag     4.213913    2.432904   12.293764    ( 0.0000,  0.0000,  0.0000)
  14 Ag     7.023188    2.432904   12.293764    ( 0.0000,  0.0000,  0.0000)
  15 Pt     2.809275    4.865807   12.293764    ( 0.0000,  0.0000,  0.0000)
  16 Ru     5.618550    4.865807   12.293764    ( 0.0000,  0.0000,  0.0000)
  17 Ir     8.427826    4.865807   12.293764    ( 0.0000,  0.0000,  0.0000)
  18 Ir     1.442006    0.794706   14.627407    ( 0.0000,  0.0000,  0.0000)
  19 Pt     4.193577    0.735542   14.615142    ( 0.0000,  0.0000,  0.0000)
  20 Pt     7.034179    0.802624   14.668204    ( 0.0000,  0.0000,  0.0000)
  21 Ag     2.787258    3.274675   14.624682    ( 0.0000,  0.0000,  0.0000)
  22 Ag     5.611731    3.229736   14.645641    ( 0.0000,  0.0000,  0.0000)
  23 Ag     8.464524    3.238966   14.611511    ( 0.0000,  0.0000,  0.0000)
  24 Pt     4.228680    5.684811   14.580165    ( 0.0000,  0.0000,  0.0000)
  25 Ag     7.015755    5.622294   14.595637    ( 0.0000,  0.0000,  0.0000)
  26 Ir     9.807541    5.750699   14.562954    ( 0.0000,  0.0000,  0.0000)
  27 Ru     0.095259    1.644230   16.945290    ( 0.0000,  0.0000,  0.0000)
  28 Ir     2.767078    1.590802   16.865586    ( 0.0000,  0.0000,  0.0000)
  29 Ir     5.522985    1.586652   16.936989    ( 0.0000,  0.0000,  0.0000)
  30 Ir     1.361365    4.001316   17.030777    ( 0.0000,  0.0000,  0.0000)
  31 Ir     4.202515    3.952956   16.975118    ( 0.0000,  0.0000,  0.0000)
  32 Pt     7.122386    4.035495   16.997899    ( 0.0000,  0.0000,  0.0000)
  33 Ag     2.765156    6.465983   16.830719    ( 0.0000,  0.0000,  0.0000)
  34 Ir     5.698849    6.546381   16.900054    ( 0.0000,  0.0000,  0.0000)
  35 Ru     8.410595    6.505544   16.853269    ( 0.0000,  0.0000,  0.0000)
  36 Ir     0.025068   -0.109607   19.019381    ( 0.0000,  0.0000,  0.0000)
  37 Ir     2.722256   -0.092004   19.128324    ( 0.0000,  0.0000,  0.0000)
  38 Pt     5.767136   -0.181714   19.296220    ( 0.0000,  0.0000,  0.0000)
  39 Ag     1.375065    2.414404   19.514254    ( 0.0000,  0.0000,  0.0000)
  40 Ir     4.213354    2.503986   19.130823    ( 0.0000,  0.0000,  0.0000)
  41 Pt     6.987693    2.270908   19.124944    ( 0.0000,  0.0000,  0.0000)
  42 Ir     2.939116    4.856516   19.064421    ( 0.0000,  0.0000,  0.0000)
  43 Ir     5.531191    4.913127   19.031586    ( 0.0000,  0.0000,  0.0000)
  44 Ag     8.397374    4.830688   19.512004    ( 0.0000,  0.0000,  0.0000)
  45 O      4.087235    0.832030   20.299248    ( 0.0000,  0.0000,  0.0000)

Unit cell:
           periodic     x           y           z      points  spacing
  1. axis:    yes    8.445283    0.000000    0.000000    35     0.2090
  2. axis:    yes    4.222641    7.313829    0.000000    35     0.2090
  3. axis:    no     0.000000    0.000000   29.175054   135     0.2161

  Lengths:   8.445283   8.445283  29.175054
  Angles:   90.000000  90.000000  60.000000

Effective grid spacing dv^(1/3) = 0.2217

                     log10-error:    total        iterations:
           time      wfs    density  energy       fermi  poisson
iter:   1  01:18:30  -3.41   +inf  -265.529920    3             
iter:   2  01:19:45  -2.67  -2.46  -274.659123    3             
iter:   3  01:21:00  -2.95  -1.69  -265.356474    3             
iter:   4  01:22:16  -4.30  -3.01  -265.337365    3             
iter:   5  01:23:31  -5.33  -3.42  -265.334697    2             
iter:   6  01:24:47  -5.68  -3.50  -265.333866    2             
iter:   7  01:26:02  -5.62  -3.63  -265.332813    2             
iter:   8  01:27:19  -5.71  -3.79  -265.332359    2             
iter:   9  01:28:35  -6.10  -3.74  -265.335306    2             
iter:  10  01:29:52  -6.42  -3.54  -265.332753    2             
iter:  11  01:31:09  -6.93  -4.02  -265.332566    2             
iter:  12  01:32:24  -7.14  -4.08  -265.332810    2             
iter:  13  01:33:42  -7.04  -4.09  -265.332613    2             
iter:  14  01:34:58  -7.16  -4.23  -265.332592    2             
iter:  15  01:36:14  -7.44  -4.32  -265.332921    2             

Converged after 15 iterations.

Dipole moment: (26.837213, 28.423643, -0.013247) |e|*Ang

Energy contributions relative to reference atoms: (reference = -16429278.754816)

Kinetic:       -145.277305
Potential:      +88.889311
External:        +0.000000
XC:            -201.523972
Entropy (-ST):   -2.085428
Local:           -6.378241
--------------------------
Free energy:   -266.375635
Extrapolated:  -265.332921

Fermi level: 1.34715

Showing only first 2 kpts
 Kpt  Band  Eigenvalues  Occupancy
  0   357      1.33938    0.12985
  0   358      1.34364    0.12719
  0   359      1.40679    0.08879
  0   360      1.42510    0.07861

  1   357      1.24101    0.18574
  1   358      1.25958    0.17648
  1   359      1.31773    0.14325
  1   360      1.34721    0.12496



Forces in eV/Ang:
  0 Ag   -0.41831    0.15485   -1.04604
  1 Ag    0.24471    0.22190   -0.85890
  2 Ir    0.50090   -0.16809    0.04926
  3 Ir   -0.08828    1.24764    1.44937
  4 Ir    0.43693    0.41509    0.86813
  5 Ir   -0.33408   -0.02559    1.21910
  6 Ir   -1.72023   -0.51922    0.74277
  7 Ag   -0.12049   -0.34528   -0.94480
  8 Pt    1.06019   -0.39248    0.51763
  9 Ag    0.12836    0.10727    0.21843
 10 Ir   -0.03495   -0.40191    1.01824
 11 Ir   -0.64728   -0.78590   -0.48485
 12 Ir    0.38302    0.09235    0.20360
 13 Ag   -0.02400   -0.02049    0.21499
 14 Ag    0.04733    0.05777    0.21483
 15 Pt   -0.18975   -0.03199   -0.54393
 16 Ru    0.64357    0.45185   -1.34956
 17 Ir    0.13246    0.29119   -1.24163
 18 Ir    0.00380   -0.02343    0.02992
 19 Pt    0.01162   -0.00613   -0.00563
 20 Pt    0.00294    0.00134   -0.00145
 21 Ag    0.01116   -0.00943    0.00802
 22 Ag    0.01896   -0.00767   -0.01424
 23 Ag    0.00084   -0.00656    0.01877
 24 Pt    0.00716   -0.01958    0.05911
 25 Ag   -0.00825   -0.02394    0.00947
 26 Ir   -0.00120   -0.01434   -0.00445
 27 Ru   -0.00185   -0.00593   -0.03915
 28 Ir    0.01449   -0.02164    0.02119
 29 Ir    0.00204   -0.04252    0.01463
 30 Ir   -0.01389   -0.02316   -0.03526
 31 Ir   -0.03618    0.04113   -0.04367
 32 Pt    0.01057    0.01468   -0.00864
 33 Ag    0.01070   -0.00495   -0.07570
 34 Ir   -0.01589   -0.04168   -0.03115
 35 Ru   -0.01263   -0.01903    0.01272
 36 Ir    0.07134    0.00467    0.01811
 37 Ir   -0.03049   -0.04650   -0.03056
 38 Pt   -0.06996    0.07016    0.00611
 39 Ag    0.06070   -0.03012   -0.01523
 40 Ir    0.01153   -0.06233    0.07003
 41 Pt    0.00648   -0.04022    0.01798
 42 Ir    0.01572   -0.06059   -0.01072
 43 Ir   -0.00205    0.06594    0.00599
 44 Ag   -0.00320   -0.05511    0.00650
 45 O     0.00710    0.04713   -0.00527

Timing:                                      incl.     excl.
-------------------------------------------------------------------
Density initialized from wave functions:    30.975    30.974   0.2% |
 Symmetrize density:                         0.001     0.001   0.0% |
Forces:                                    169.038   169.038   0.8% |
Hamiltonian:                                28.025     0.081   0.0% |
 Atomic:                                     9.016     4.916   0.0% |
  XC Correction:                             4.099     4.099   0.0% |
 Calculate atomic Hamiltonians:              7.395     7.395   0.0% |
 Communicate:                                0.285     0.285   0.0% |
 Initialize Hamiltonian:                     0.000     0.000   0.0% |
 Poisson:                                    0.066     0.066   0.0% |
 XC 3D grid:                                11.182    11.182   0.1% |
LCAO initialization:                        59.061     3.940   0.0% |
 LCAO eigensolver:                           7.468     0.002   0.0% |
  Calculate projections:                     0.067     0.067   0.0% |
  DenseAtomicCorrection:                     0.064     0.064   0.0% |
  Distribute overlap matrix:                 0.344     0.344   0.0% |
  Orbital Layouts:                           0.528     0.528   0.0% |
  Potential matrix:                          6.412     6.412   0.0% |
  Sum over cells:                            0.051     0.051   0.0% |
 LCAO to grid:                              44.785    44.785   0.2% |
 Set positions (LCAO WFS):                   2.867     1.103   0.0% |
  Basic WFS set positions:                   0.003     0.003   0.0% |
  Basis functions set positions:             0.001     0.001   0.0% |
  P tci:                                     0.723     0.723   0.0% |
  ST tci:                                    0.773     0.773   0.0% |
  mktci:                                     0.264     0.264   0.0% |
PWDescriptor:                                0.039     0.039   0.0% |
Redistribute:                                0.064     0.064   0.0% |
SCF-cycle:                               19612.626  1637.704   8.2% |--|
 Davidson:                               16377.749  3839.653  19.2% |-------|
  Apply H:                                2502.862  2431.275  12.2% |----|
   HMM T:                                   71.587    71.587   0.4% |
  Subspace diag:                          2341.799     0.077   0.0% |
   calc_h_matrix:                         1347.360   500.995   2.5% ||
    Apply H:                               846.365   822.139   4.1% |-|
     HMM T:                                 24.226    24.226   0.1% |
   diagonalize:                             41.245    41.245   0.2% |
   rotate_psi:                             953.117   953.117   4.8% |-|
  calc. matrices:                         5114.319  3415.036  17.1% |------|
   Apply H:                               1699.283  1650.238   8.3% |--|
    HMM T:                                  49.045    49.045   0.2% |
  diagonalize:                             688.674   688.674   3.4% ||
  rotate_psi:                             1890.441  1890.441   9.5% |---|
 Density:                                  828.900     0.012   0.0% |
  Atomic density matrices:                   4.438     4.438   0.0% |
  Mix:                                     241.260   241.260   1.2% |
  Multipole moments:                         0.381     0.381   0.0% |
  Pseudo density:                          582.808   582.794   2.9% ||
   Symmetrize density:                       0.015     0.015   0.0% |
 Hamiltonian:                              704.678     1.990   0.0% |
  Atomic:                                  221.935   117.921   0.6% |
   XC Correction:                          104.014   104.014   0.5% |
  Calculate atomic Hamiltonians:           190.076   190.076   1.0% |
  Communicate:                               6.043     6.043   0.0% |
  Poisson:                                   1.518     1.518   0.0% |
  XC 3D grid:                              283.115   283.115   1.4% ||
 Orthonormalize:                            63.594     0.004   0.0% |
  calc_s_matrix:                             9.444     9.444   0.0% |
  inverse-cholesky:                          0.778     0.778   0.0% |
  projections:                              35.196    35.196   0.2% |
  rotate_psi_s:                             18.172    18.172   0.1% |
Set symmetry:                                0.003     0.003   0.0% |
Other:                                      89.305    89.305   0.4% |
-------------------------------------------------------------------
Total:                                             19989.136 100.0%

Date: Fri Mar  4 01:36:33 2022
