
  ___ ___ ___ _ _ _  
 |   |   |_  | | | | 
 | | | | | . | | | | 
 |__ |  _|___|_____|  1.5.1
 |___|_|             

User:   clausen@node062.cluster
Date:   Fri Mar  4 01:23:39 2022
Arch:   x86_64
Pid:    39226
Python: 3.6.12
gpaw:   /software/kemi/gpaw/1.5.1/gpaw
_gpaw:  /software/kemi/gpaw/1.5.1/bin/gpaw-python
ase:    /software/kemi/ase/3.17.0/ase (version 3.17.0)
numpy:  /opt/rh/rh-python36/root/usr/lib64/python3.6/site-packages/numpy (version 1.13.1)
scipy:  /opt/rh/rh-python36/root/usr/lib64/python3.6/site-packages/scipy (version 0.19.1)
units:  Angstrom and eV
cores:  16

Input parameters:
  kpts: [4 4 1]
  mode: {ecut: 400.0,
         gammacentered: False,
         name: pw}
  xc: RPBE

System changes: positions, numbers, cell, pbc, initial_charges, initial_magmoms 

Initialize ...

Pd-setup:
  name: Palladium
  id: 6da19bfba079f22767af9506641940b9
  Z: 46
  valence: 16
  core: 30
  charge: 0.0
  file: /software/kemi/gpaw-setups/0.9.20000/Pd.RPBE.gz
  cutoffs: 1.19(comp), 2.38(filt), 2.28(core), lmax=2
  valence states:
                energy  radius
    5s(0.00)    -3.225   1.228
    4p(6.00)   -51.131   1.360
    5p(0.00)    -0.373   1.360
    4d(10.00)    -3.964   1.228
    *s          23.987   1.228
    *d          23.247   1.228

  Using partial waves for Pd as LCAO basis

Ag-setup:
  name: Silver
  id: c05e55bab2c3858b3f9398f6d75cb77c
  Z: 47
  valence: 17
  core: 30
  charge: 0.0
  file: /software/kemi/gpaw-setups/0.9.20000/Ag.RPBE.gz
  cutoffs: 1.25(comp), 2.35(filt), 2.19(core), lmax=2
  valence states:
                energy  radius
    5s(1.00)    -4.277   1.286
    4p(6.00)   -58.523   1.328
    5p(0.00)    -0.755   1.328
    4d(10.00)    -7.386   1.180
    *s          22.934   1.286
    *d          19.826   1.180

  Using partial waves for Ag as LCAO basis

Pt-setup:
  name: Platinum
  id: f04f522592575c47ad794f6b4a415b4b
  Z: 78
  valence: 16
  core: 62
  charge: 0.0
  file: /software/kemi/gpaw-setups/0.9.20000/Pt.RPBE.gz
  cutoffs: 1.29(comp), 2.26(filt), 2.26(core), lmax=2
  valence states:
                energy  radius
    6s(1.00)    -5.516   1.307
    5p(6.00)   -55.971   1.371
    6p(0.00)    -0.856   1.371
    5d(9.00)    -6.087   1.307
    *s          21.695   1.307
    *d          21.125   1.307

  Using partial waves for Pt as LCAO basis

Ru-setup:
  name: Ruthenium
  id: 76477906e28f51dc1b29884d53556fe9
  Z: 44
  valence: 16
  core: 28
  charge: 0.0
  file: /software/kemi/gpaw-setups/0.9.20000/Ru.RPBE.gz
  cutoffs: 1.23(comp), 2.16(filt), 1.30(core), lmax=2
  valence states:
                energy  radius
    4s(2.00)   -76.255   1.281
    5s(1.00)    -4.126   1.281
    4p(6.00)   -46.371   1.286
    5p(0.00)    -0.913   1.286
    4d(7.00)    -5.146   1.254
    *d          22.066   1.254

  Using partial waves for Ru as LCAO basis

O-setup:
  name: Oxygen
  id: 08071ca1eed670e7821b24b7eb4d558c
  Z: 8
  valence: 6
  core: 2
  charge: 0.0
  file: /software/kemi/gpaw-setups/0.9.20000/O.RPBE.gz
  cutoffs: 0.67(comp), 1.17(filt), 0.83(core), lmax=2
  valence states:
                energy  radius
    2s(2.00)   -24.041   0.688
    2p(4.00)    -8.984   0.598
    *s           3.170   0.688
    *p          18.228   0.598
    *d           0.000   0.619

  Using partial waves for O as LCAO basis

Reference energy: -9073453.423555

Spin-paired calculation

Occupation numbers:
  Fermi-Dirac: width=0.1000 eV

Convergence criteria:
  Maximum total energy change: 0.0005 eV / electron
  Maximum integral of absolute density change: 0.0001 electrons
  Maximum integral of absolute eigenstate change: 4e-08 eV^2
  Maximum number of iterations: 333

Symmetries present (total): 1

  ( 1  0  0)
  ( 0  1  0)
  ( 0  0  1)

16 k-points: 4 x 4 x 1 Monkhorst-Pack grid
8 k-points in the irreducible part of the Brillouin zone
       k-points in crystal coordinates                weights
   0:     0.12500000   -0.37500000    0.00000000          2/16
   1:     0.12500000   -0.12500000    0.00000000          2/16
   2:     0.12500000    0.12500000    0.00000000          2/16
   3:     0.12500000    0.37500000    0.00000000          2/16
   4:     0.37500000   -0.37500000    0.00000000          2/16
   5:     0.37500000   -0.12500000    0.00000000          2/16
   6:     0.37500000    0.12500000    0.00000000          2/16
   7:     0.37500000    0.37500000    0.00000000          2/16

Wave functions: Plane wave expansion
  Cutoff energy: 400.000 eV
  Number of coefficients (min, max): 32266, 32339
  Pulay-stress correction: 0.000000 eV/Ang^3 (de/decut=0.000000)
  Using FFTW library
  ScaLapack parameters: grid=1x1, blocksize=None
  Wavefunction extrapolation:
    Improved wavefunction reuse through dual PAW basis 

Eigensolver
   Davidson(niter=2, smin=None, normalize=True) 

Densities:
  Coarse grid: 35*35*135 grid
  Fine grid: 70*70*270 grid
  Total Charge: 0.000000 

Density mixing:
  Method: separate
  Backend: pulay
  Linear mixing parameter: 0.05
  Mixing with 5 old densities
  Damping of long wave oscillations: 50 

Hamiltonian:
  XC and Coulomb potentials evaluated on a 70*70*270 grid
  Using the RPBE Exchange-Correlation functional
 

XC parameters: RPBE with 2 nearest neighbor stencil

Memory estimate:
  Process memory now: 155.46 MiB
  Calculator: 548.11 MiB
    Density: 48.38 MiB
      Arrays: 16.41 MiB
      Localized functions: 25.61 MiB
      Mixer: 6.36 MiB
    Hamiltonian: 11.51 MiB
      Arrays: 10.73 MiB
      XC: 0.00 MiB
      Poisson: 0.00 MiB
      vbar: 0.78 MiB
    Wavefunctions: 488.23 MiB
      Arrays psit_nG: 220.57 MiB
      Eigensolver: 253.54 MiB
      Projections: 2.81 MiB
      Projectors: 4.69 MiB
      PW-descriptor: 6.62 MiB

Total number of cores used: 16
Parallelization over k-points: 8
Domain decomposition: 1 x 1 x 2

Number of atoms: 46
Number of atomic orbitals: 551
Number of bands in calculation: 447
Bands to converge: occupied states only
Number of valence electrons: 738

... initialized

Initializing position-dependent things.

Density initialized from atomic densities
Creating initial wave functions:
  447 bands from LCAO basis set

                                             
                                             
                                             
                                             
                            O                
                                             
                         Pd                  
                 Pt            Ru            
            Pt    APd    PPd    Ru           
                                             
        Pd    Ru     Pd    Pt                
                                             
        Pt     Pd    PPd    Pd     Ag        
                Ag     Ag     Ag             
                                             
           Ag    PAg    APt    Pd            
                                             
            Pd     Ru     Ag     Pd          
       Ag     Ru     Ru                      
             Pd     Pd     Pt                
        Pd     Ag     Pt                     
                                             
                                             
                                             
                                             
                                             

Positions:
   0 Pd     0.000000    1.633958   10.000000    ( 0.0000,  0.0000,  0.0000)
   1 Ag     2.830098    1.633958   10.000000    ( 0.0000,  0.0000,  0.0000)
   2 Pt     5.660196    1.633958   10.000000    ( 0.0000,  0.0000,  0.0000)
   3 Pd     1.415049    4.084895   10.000000    ( 0.0000,  0.0000,  0.0000)
   4 Pd     4.245147    4.084895   10.000000    ( 0.0000,  0.0000,  0.0000)
   5 Pt     7.075245    4.084895   10.000000    ( 0.0000,  0.0000,  0.0000)
   6 Pd     2.830098    6.535832   10.000000    ( 0.0000,  0.0000,  0.0000)
   7 Ag     5.660196    6.535832   10.000000    ( 0.0000,  0.0000,  0.0000)
   8 Pd     8.490294    6.535832   10.000000    ( 0.0000,  0.0000,  0.0000)
   9 Ag     0.000000    0.000000   12.310765    ( 0.0000,  0.0000,  0.0000)
  10 Ru     2.830098    0.000000   12.310765    ( 0.0000,  0.0000,  0.0000)
  11 Ru     5.660196    0.000000   12.310765    ( 0.0000,  0.0000,  0.0000)
  12 Pd     1.415049    2.450937   12.310765    ( 0.0000,  0.0000,  0.0000)
  13 Ru     4.245147    2.450937   12.310765    ( 0.0000,  0.0000,  0.0000)
  14 Ag     7.075245    2.450937   12.310765    ( 0.0000,  0.0000,  0.0000)
  15 Pd     2.830098    4.901874   12.310765    ( 0.0000,  0.0000,  0.0000)
  16 Ag     5.660196    4.901874   12.310765    ( 0.0000,  0.0000,  0.0000)
  17 Pd     8.490294    4.901874   12.310765    ( 0.0000,  0.0000,  0.0000)
  18 Ag     1.422839    0.836358   14.687202    ( 0.0000,  0.0000,  0.0000)
  19 Ag     4.228290    0.834029   14.668537    ( 0.0000,  0.0000,  0.0000)
  20 Pt     7.000876    0.833422   14.677349    ( 0.0000,  0.0000,  0.0000)
  21 Ag     2.849410    3.275055   14.697646    ( 0.0000,  0.0000,  0.0000)
  22 Ag     5.607020    3.276035   14.715763    ( 0.0000,  0.0000,  0.0000)
  23 Ag     8.407636    3.278571   14.701685    ( 0.0000,  0.0000,  0.0000)
  24 Pd     4.226650    5.664441   14.783889    ( 0.0000,  0.0000,  0.0000)
  25 Pd     7.021524    5.717496   14.695770    ( 0.0000,  0.0000,  0.0000)
  26 Ag     9.810161    5.688371   14.690489    ( 0.0000,  0.0000,  0.0000)
  27 Pt     0.030364    1.654579   17.054310    ( 0.0000,  0.0000,  0.0000)
  28 Pd     2.863636    1.668211   17.080253    ( 0.0000,  0.0000,  0.0000)
  29 Pd     5.584811    1.668389   17.077768    ( 0.0000,  0.0000,  0.0000)
  30 Pd     1.451673    4.084780   17.054426    ( 0.0000,  0.0000,  0.0000)
  31 Ru     4.287216    4.070209   17.299465    ( 0.0000,  0.0000,  0.0000)
  32 Pt     6.976254    4.091014   17.095978    ( 0.0000,  0.0000,  0.0000)
  33 Ag     2.791829    6.501265   17.070936    ( 0.0000,  0.0000,  0.0000)
  34 Pt     5.617052    6.449501   17.092744    ( 0.0000,  0.0000,  0.0000)
  35 Ru     8.289070    6.444709   17.186717    ( 0.0000,  0.0000,  0.0000)
  36 Pd     0.109969    0.038419   19.432145    ( 0.0000,  0.0000,  0.0000)
  37 Ru     2.913932   -0.060119   19.211827    ( 0.0000,  0.0000,  0.0000)
  38 Pd     5.607656    0.003198   19.432032    ( 0.0000,  0.0000,  0.0000)
  39 Pt     1.441354    2.458850   19.369405    ( 0.0000,  0.0000,  0.0000)
  40 Pd     4.211433    2.427374   19.463642    ( 0.0000,  0.0000,  0.0000)
  41 Pd     7.082631    2.483306   19.414916    ( 0.0000,  0.0000,  0.0000)
  42 Pt     2.814800    4.836018   19.384744    ( 0.0000,  0.0000,  0.0000)
  43 Pd     5.686541    4.887569   19.522731    ( 0.0000,  0.0000,  0.0000)
  44 Ru     8.428363    4.985817   19.203811    ( 0.0000,  0.0000,  0.0000)
  45 O      7.072862    5.690042   20.822731    ( 0.0000,  0.0000,  0.0000)

Unit cell:
           periodic     x           y           z      points  spacing
  1. axis:    yes    8.379498    0.000000    0.000000    35     0.2073
  2. axis:    yes    4.189749    7.256858    0.000000    35     0.2073
  3. axis:    no     0.000000    0.000000   29.243062   135     0.2166

  Lengths:   8.379498   8.379498  29.243062
  Angles:   90.000000  90.000000  60.000000

Effective grid spacing dv^(1/3) = 0.2207

                     log10-error:    total        iterations:
           time      wfs    density  energy       fermi  poisson
iter:   1  01:25:47  +0.49   +inf  -239.100514    2             
iter:   2  01:26:48  -1.07  -1.21  -210.922121    3             
iter:   3  01:27:49  -1.37  -1.32  -233.887954    36            
iter:   4  01:28:50  -1.30  -1.27  -253.420665    3             
iter:   5  01:29:51  -1.49  -1.23  -194.702907    37            
iter:   6  01:30:52  -1.87  -1.50  -188.378207    37            
iter:   7  01:31:53  -2.27  -1.62  -186.874035    4             
iter:   8  01:32:54  -2.56  -1.69  -184.944894    3             
iter:   9  01:33:54  -2.09  -1.80  -183.920794    4             
iter:  10  01:34:55  -2.35  -1.98  -191.216437    3             
iter:  11  01:36:02  -2.95  -1.73  -183.129610    2             
iter:  12  01:37:01  -3.58  -2.14  -182.939025    3             
iter:  13  01:37:56  -3.34  -2.18  -182.897793    3             
iter:  14  01:38:52  -3.39  -2.24  -182.767771    3             
iter:  15  01:39:52  -3.52  -2.36  -182.690284    3             
iter:  16  01:40:53  -3.49  -2.45  -183.850277    3             
iter:  17  01:41:54  -3.57  -2.11  -182.582398    3             
iter:  18  01:42:55  -3.61  -2.61  -182.650175    3             
iter:  19  01:43:56  -4.05  -2.57  -182.533511    3             
iter:  20  01:44:57  -4.25  -2.81  -182.502643    2             
iter:  21  01:45:58  -4.43  -2.97  -182.497792    2             
iter:  22  01:47:00  -4.63  -3.01  -182.497804    3             
iter:  23  01:48:00  -5.29  -3.06  -182.496266    2             
iter:  24  01:49:02  -4.99  -3.10  -182.501201    2             
iter:  25  01:50:02  -5.34  -3.01  -182.497126    2             
iter:  26  01:51:04  -5.41  -3.14  -182.494405    2             
iter:  27  01:52:04  -5.47  -3.23  -182.493253    2             
iter:  28  01:53:05  -5.40  -3.25  -182.491978    2             
iter:  29  01:54:06  -5.39  -3.30  -182.495507    2             
iter:  30  01:55:07  -5.52  -3.38  -182.493426    2             
iter:  31  01:56:07  -5.97  -3.30  -182.490877    2             
iter:  32  01:57:04  -6.20  -3.51  -182.491530    2             
iter:  33  01:58:00  -6.53  -3.57  -182.491184    2             
iter:  34  01:58:56  -6.11  -3.55  -182.490824    2             
iter:  35  01:59:52  -5.80  -3.67  -182.494550    2             
iter:  36  02:00:48  -6.52  -3.50  -182.491322    2             
iter:  37  02:01:41  -6.95  -3.81  -182.490912    2             
iter:  38  02:02:30  -6.83  -3.87  -182.491442    2             
iter:  39  02:03:19  -6.93  -3.91  -182.491206    2             
iter:  40  02:04:13  -6.89  -4.00  -182.491125    2             
iter:  41  02:05:09  -7.42  -4.11  -182.491322    2             

Converged after 41 iterations.

Dipole moment: (24.774430, 21.447027, -0.345151) |e|*Ang

Energy contributions relative to reference atoms: (reference = -9073453.423555)

Kinetic:       -185.301814
Potential:      +38.402843
External:        +0.000000
XC:             -30.200052
Entropy (-ST):   -2.000869
Local:           -4.391866
--------------------------
Free energy:   -183.491756
Extrapolated:  -182.491322

Fermi level: 0.76433

Showing only first 2 kpts
 Kpt  Band  Eigenvalues  Occupancy
  0   367      0.75928    0.12816
  0   368      0.76865    0.12230
  0   369      0.79404    0.10657
  0   370      0.85930    0.06974

  1   367      0.66635    0.18177
  1   368      0.68934    0.16979
  1   369      0.70810    0.15925
  1   370      0.71995    0.15229



Forces in eV/Ang:
  0 Pd    0.08808    0.51641   -0.41569
  1 Ag    0.11729    0.48989   -0.51440
  2 Pt   -0.23413    0.51830    0.83295
  3 Pd    0.08598    0.03232   -0.08462
  4 Pd    0.12645   -0.37867    0.20107
  5 Pt   -0.13686   -0.30404   -0.09549
  6 Pd   -0.18167   -0.38067   -0.04799
  7 Ag   -0.12043   -0.46078   -0.71210
  8 Pd   -0.25262   -0.30178    0.27897
  9 Ag    0.51463    0.21375    0.43340
 10 Ru    2.21565    1.28975    0.42894
 11 Ru   -1.84104    0.89093   -0.34774
 12 Pd    1.12420   -0.24430    0.00159
 13 Ru   -0.51609   -1.50532   -0.88179
 14 Ag   -0.45310    0.12535    0.28482
 15 Pd    0.18444   -0.57775    0.09802
 16 Ag   -0.18181   -0.38124    0.33778
 17 Pd   -0.37524    0.54559   -0.01723
 18 Ag   -0.01873    0.00662    0.02110
 19 Ag   -0.01521   -0.01446    0.01422
 20 Pt    0.00025   -0.02708   -0.02182
 21 Ag   -0.00610    0.01638   -0.06294
 22 Ag    0.02013   -0.00333    0.02650
 23 Ag   -0.00152   -0.00464    0.04919
 24 Pd    0.02850    0.01953    0.08848
 25 Pd    0.02958    0.01604    0.08841
 26 Ag   -0.00910   -0.00239    0.02491
 27 Pt    0.01507    0.01755    0.04475
 28 Pd   -0.05151   -0.14460    0.23682
 29 Pd    0.02916   -0.03348    0.00407
 30 Pd   -0.10364    0.00621    0.24365
 31 Ru    0.10412    0.03062    0.10288
 32 Pt    0.02779   -0.16231   -0.22837
 33 Ag    0.00432    0.07090    0.01552
 34 Pt   -0.11289    0.09292   -0.23484
 35 Ru    0.14014    0.10076   -0.26952
 36 Pd   -0.15167    0.10691   -0.00600
 37 Ru   -0.09582   -0.35567    1.29661
 38 Pd    0.21868    0.10989   -0.04771
 39 Pt   -0.03007   -0.04027   -0.03865
 40 Pd   -0.07621   -0.04366   -0.09120
 41 Pd    0.00199   -0.16918   -0.01254
 42 Pt   -0.12526   -0.02029   -0.18556
 43 Pd   -0.66712   -0.32045    0.00879
 44 Ru   -0.30915    0.08810    1.32627
 45 O     0.89117    0.53711   -2.13910

System changes: positions 

Initializing position-dependent things.

Density initialized from wave functions
                                             
                                             
                                             
                                             
                             O               
                                             
                 Pt     Pd     Ru            
                                             
            Pt    APd    PPd    Ru           
                     Ru                      
        Pd    Ru     Pd    Pt                
        Pt     Pd     Pd                     
                     Pd     Pd     Ag        
                Ag     Ag     Ag             
                                             
           Ag    PAg    APt    Pd            
                                             
            Pd     Ru     Ag     Pd          
       Ag    PRu    PRu    Pt                
                                             
        Pd     Ag     Pt                     
                                             
                                             
                                             
                                             
                                             

Positions:
   0 Pd     0.000000    1.633958   10.000000    ( 0.0000,  0.0000,  0.0000)
   1 Ag     2.830098    1.633958   10.000000    ( 0.0000,  0.0000,  0.0000)
   2 Pt     5.660196    1.633958   10.000000    ( 0.0000,  0.0000,  0.0000)
   3 Pd     1.415049    4.084895   10.000000    ( 0.0000,  0.0000,  0.0000)
   4 Pd     4.245147    4.084895   10.000000    ( 0.0000,  0.0000,  0.0000)
   5 Pt     7.075245    4.084895   10.000000    ( 0.0000,  0.0000,  0.0000)
   6 Pd     2.830098    6.535832   10.000000    ( 0.0000,  0.0000,  0.0000)
   7 Ag     5.660196    6.535832   10.000000    ( 0.0000,  0.0000,  0.0000)
   8 Pd     8.490294    6.535832   10.000000    ( 0.0000,  0.0000,  0.0000)
   9 Ag     0.000000    0.000000   12.310765    ( 0.0000,  0.0000,  0.0000)
  10 Ru     2.830098    0.000000   12.310765    ( 0.0000,  0.0000,  0.0000)
  11 Ru     5.660196    0.000000   12.310765    ( 0.0000,  0.0000,  0.0000)
  12 Pd     1.415049    2.450937   12.310765    ( 0.0000,  0.0000,  0.0000)
  13 Ru     4.245147    2.450937   12.310765    ( 0.0000,  0.0000,  0.0000)
  14 Ag     7.075245    2.450937   12.310765    ( 0.0000,  0.0000,  0.0000)
  15 Pd     2.830098    4.901874   12.310765    ( 0.0000,  0.0000,  0.0000)
  16 Ag     5.660196    4.901874   12.310765    ( 0.0000,  0.0000,  0.0000)
  17 Pd     8.490294    4.901874   12.310765    ( 0.0000,  0.0000,  0.0000)
  18 Ag     1.421264    0.836915   14.688976    ( 0.0000,  0.0000,  0.0000)
  19 Ag     4.227011    0.832813   14.669733    ( 0.0000,  0.0000,  0.0000)
  20 Pt     7.000897    0.831145   14.675514    ( 0.0000,  0.0000,  0.0000)
  21 Ag     2.848897    3.276432   14.692354    ( 0.0000,  0.0000,  0.0000)
  22 Ag     5.608712    3.275755   14.717991    ( 0.0000,  0.0000,  0.0000)
  23 Ag     8.407508    3.278181   14.705821    ( 0.0000,  0.0000,  0.0000)
  24 Pd     4.229046    5.666082   14.791329    ( 0.0000,  0.0000,  0.0000)
  25 Pd     7.024011    5.718844   14.703204    ( 0.0000,  0.0000,  0.0000)
  26 Ag     9.809396    5.688170   14.692584    ( 0.0000,  0.0000,  0.0000)
  27 Pt     0.031631    1.656055   17.058073    ( 0.0000,  0.0000,  0.0000)
  28 Pd     2.859305    1.656053   17.100164    ( 0.0000,  0.0000,  0.0000)
  29 Pd     5.587263    1.665574   17.078111    ( 0.0000,  0.0000,  0.0000)
  30 Pd     1.442960    4.085302   17.074912    ( 0.0000,  0.0000,  0.0000)
  31 Ru     4.295970    4.072784   17.308114    ( 0.0000,  0.0000,  0.0000)
  32 Pt     6.978590    4.077367   17.076778    ( 0.0000,  0.0000,  0.0000)
  33 Ag     2.792192    6.507226   17.072241    ( 0.0000,  0.0000,  0.0000)
  34 Pt     5.607561    6.457313   17.072999    ( 0.0000,  0.0000,  0.0000)
  35 Ru     8.300853    6.453180   17.164057    ( 0.0000,  0.0000,  0.0000)
  36 Pd     0.097216    0.047408   19.431640    ( 0.0000,  0.0000,  0.0000)
  37 Ru     2.905875   -0.090023   19.320843    ( 0.0000,  0.0000,  0.0000)
  38 Pd     5.626042    0.012437   19.428021    ( 0.0000,  0.0000,  0.0000)
  39 Pt     1.438826    2.455464   19.366155    ( 0.0000,  0.0000,  0.0000)
  40 Pd     4.205025    2.423703   19.455974    ( 0.0000,  0.0000,  0.0000)
  41 Pd     7.082799    2.469081   19.413861    ( 0.0000,  0.0000,  0.0000)
  42 Pt     2.804268    4.834312   19.369143    ( 0.0000,  0.0000,  0.0000)
  43 Pd     5.630450    4.860626   19.523470    ( 0.0000,  0.0000,  0.0000)
  44 Ru     8.402370    4.993224   19.315321    ( 0.0000,  0.0000,  0.0000)
  45 O      7.147789    5.735201   20.642880    ( 0.0000,  0.0000,  0.0000)

Unit cell:
           periodic     x           y           z      points  spacing
  1. axis:    yes    8.379498    0.000000    0.000000    35     0.2073
  2. axis:    yes    4.189749    7.256858    0.000000    35     0.2073
  3. axis:    no     0.000000    0.000000   29.243062   135     0.2166

  Lengths:   8.379498   8.379498  29.243062
  Angles:   90.000000  90.000000  60.000000

Effective grid spacing dv^(1/3) = 0.2207

                     log10-error:    total        iterations:
           time      wfs    density  energy       fermi  poisson
iter:   1  02:06:31  -1.73   +inf  -187.598903    4             
iter:   2  02:07:26  -1.97  -2.01  -186.192714    37            
iter:   3  02:08:21  -2.32  -2.01  -193.790057    3             
iter:   4  02:09:17  -2.50  -1.75  -186.913307    4             
iter:   5  02:10:12  -2.85  -1.90  -184.440382    4             
iter:   6  02:11:15  -3.64  -2.15  -183.425546    3             
iter:   7  02:12:17  -3.49  -2.41  -183.324382    3             
iter:   8  02:13:19  -4.14  -2.36  -183.002863    3             
iter:   9  02:14:22  -4.38  -2.74  -182.958123    3             
iter:  10  02:15:25  -4.30  -2.97  -182.981054    2             
iter:  11  02:16:27  -4.24  -2.74  -182.956095    2             
iter:  12  02:17:30  -4.32  -2.83  -182.931877    2             
iter:  13  02:18:33  -4.94  -3.05  -182.921636    2             
iter:  14  02:19:35  -5.16  -3.23  -182.918275    2             
iter:  15  02:20:38  -5.63  -3.25  -182.915002    2             
iter:  16  02:21:40  -5.95  -3.47  -182.916247    2             
iter:  17  02:22:43  -5.76  -3.45  -182.913808    2             
iter:  18  02:23:48  -5.77  -3.55  -182.913658    2             
iter:  19  02:24:54  -5.60  -3.70  -182.913891    2             
iter:  20  02:25:50  -6.04  -3.85  -182.914376    2             
iter:  21  02:26:46  -6.56  -3.66  -182.913410    2             
iter:  22  02:27:42  -6.51  -3.89  -182.914792    2             
iter:  23  02:28:44  -6.67  -3.75  -182.913665    2             
iter:  24  02:29:46  -6.96  -3.78  -182.913769    2             
iter:  25  02:30:49  -7.22  -3.96  -182.913581    2             
iter:  26  02:31:51  -6.67  -4.06  -182.913736    2             
iter:  27  02:32:54  -6.74  -4.15  -182.913241    2             
iter:  28  02:33:56  -6.72  -4.12  -182.913944    2             
iter:  29  02:34:58  -7.37  -4.03  -182.913545    2             
iter:  30  02:36:01  -7.42  -4.57  -182.913558    2             

Converged after 30 iterations.

Dipole moment: (26.222033, 22.346204, -0.206362) |e|*Ang

Energy contributions relative to reference atoms: (reference = -9073453.423555)

Kinetic:       -174.332173
Potential:      +28.465873
External:        +0.000000
XC:             -31.609384
Entropy (-ST):   -2.017093
Local:           -4.429328
--------------------------
Free energy:   -183.922105
Extrapolated:  -182.913558

Fermi level: 0.83380

Showing only first 2 kpts
 Kpt  Band  Eigenvalues  Occupancy
  0   367      0.82551    0.13017
  0   368      0.83750    0.12269
  0   369      0.85114    0.11419
  0   370      0.93191    0.06817

  1   367      0.71616    0.19108
  1   368      0.75546    0.17160
  1   369      0.78859    0.15278
  1   370      0.79677    0.14788



Forces in eV/Ang:
  0 Pd    0.10513    0.50985   -0.41981
  1 Ag    0.10234    0.49207   -0.52167
  2 Pt   -0.23953    0.50698    0.83153
  3 Pd    0.09732    0.02996   -0.08550
  4 Pd    0.11098   -0.37042    0.20331
  5 Pt   -0.13214   -0.29315   -0.08480
  6 Pd   -0.17407   -0.39240   -0.05127
  7 Ag   -0.12694   -0.45495   -0.70883
  8 Pd   -0.24736   -0.30467    0.26994
  9 Ag    0.52200    0.20903    0.43318
 10 Ru    2.20351    1.28744    0.44985
 11 Ru   -1.83969    0.87784   -0.34773
 12 Pd    1.10482   -0.24230    0.00886
 13 Ru   -0.51925   -1.48929   -0.85982
 14 Ag   -0.43343    0.13747    0.29242
 15 Pd    0.18661   -0.57088    0.10103
 16 Ag   -0.18573   -0.37971    0.36764
 17 Pd   -0.37108    0.53288    0.00805
 18 Ag    0.01323    0.04522   -0.02170
 19 Ag   -0.02650    0.01959    0.04263
 20 Pt   -0.01272   -0.01092   -0.04299
 21 Ag   -0.01043    0.00295    0.02316
 22 Ag   -0.01452   -0.01864   -0.04469
 23 Ag    0.03950   -0.00133   -0.01053
 24 Pd   -0.02031   -0.02227   -0.01060
 25 Pd    0.03313    0.01214    0.03294
 26 Ag    0.00460   -0.03418    0.05175
 27 Pt    0.02478    0.02006   -0.00028
 28 Pd   -0.01117   -0.14049    0.09377
 29 Pd   -0.05982   -0.03620    0.00028
 30 Pd   -0.14734    0.05144    0.09835
 31 Ru   -0.04691   -0.04691   -0.00965
 32 Pt    0.09001    0.17926    0.06436
 33 Ag   -0.02594    0.00214   -0.02653
 34 Pt    0.24418   -0.01012    0.08390
 35 Ru   -0.14212   -0.03872    0.43970
 36 Pd   -0.11150    0.06097   -0.03036
 37 Ru   -0.00126    0.67861   -0.45815
 38 Pd    0.10895    0.07626   -0.09916
 39 Pt   -0.09705   -0.09030    0.03432
 40 Pd   -0.05798   -0.15101   -0.02959
 41 Pd   -0.04236   -0.08718   -0.02439
 42 Pt   -0.17281    0.02349   -0.03883
 43 Pd   -0.71755   -0.38293   -0.22062
 44 Ru    0.58258   -0.32065   -0.32497
 45 O     0.54145    0.25373    0.36099

System changes: positions 

Initializing position-dependent things.

Density initialized from wave functions
                                            
                                            
                                            
                                            
                            O               
                                            
                 Pt    Pd      Ru           
            Pt     Pd     Pd                
                  Ag     Pt    Ru           
       Pd    PRu    RPd    Pt               
                                            
        Pt     Pd    PPd    Pd    Ag        
                                            
                Ag     Ag     Ag            
           Ag     Ag     Pt                 
                 Pd     Ag     Pd           
            Pd     Ru     Ag                
                  Pd     Ag     Pd          
       Ag    PRu    PRu    Pt               
        Pd     Ag     Pt                    
                                            
                                            
                                            
                                            
                                            

Positions:
   0 Pd     0.000000    1.633958   10.000000    ( 0.0000,  0.0000,  0.0000)
   1 Ag     2.830098    1.633958   10.000000    ( 0.0000,  0.0000,  0.0000)
   2 Pt     5.660196    1.633958   10.000000    ( 0.0000,  0.0000,  0.0000)
   3 Pd     1.415049    4.084895   10.000000    ( 0.0000,  0.0000,  0.0000)
   4 Pd     4.245147    4.084895   10.000000    ( 0.0000,  0.0000,  0.0000)
   5 Pt     7.075245    4.084895   10.000000    ( 0.0000,  0.0000,  0.0000)
   6 Pd     2.830098    6.535832   10.000000    ( 0.0000,  0.0000,  0.0000)
   7 Ag     5.660196    6.535832   10.000000    ( 0.0000,  0.0000,  0.0000)
   8 Pd     8.490294    6.535832   10.000000    ( 0.0000,  0.0000,  0.0000)
   9 Ag     0.000000    0.000000   12.310765    ( 0.0000,  0.0000,  0.0000)
  10 Ru     2.830098    0.000000   12.310765    ( 0.0000,  0.0000,  0.0000)
  11 Ru     5.660196    0.000000   12.310765    ( 0.0000,  0.0000,  0.0000)
  12 Pd     1.415049    2.450937   12.310765    ( 0.0000,  0.0000,  0.0000)
  13 Ru     4.245147    2.450937   12.310765    ( 0.0000,  0.0000,  0.0000)
  14 Ag     7.075245    2.450937   12.310765    ( 0.0000,  0.0000,  0.0000)
  15 Pd     2.830098    4.901874   12.310765    ( 0.0000,  0.0000,  0.0000)
  16 Ag     5.660196    4.901874   12.310765    ( 0.0000,  0.0000,  0.0000)
  17 Pd     8.490294    4.901874   12.310765    ( 0.0000,  0.0000,  0.0000)
  18 Ag     1.422020    0.841181   14.687507    ( 0.0000,  0.0000,  0.0000)
  19 Ag     4.224241    0.834248   14.673946    ( 0.0000,  0.0000,  0.0000)
  20 Pt     6.999747    0.829507   14.671087    ( 0.0000,  0.0000,  0.0000)
  21 Ag     2.847804    3.277090   14.692957    ( 0.0000,  0.0000,  0.0000)
  22 Ag     5.607872    3.273982   14.714562    ( 0.0000,  0.0000,  0.0000)
  23 Ag     8.411061    3.277950   14.706038    ( 0.0000,  0.0000,  0.0000)
  24 Pd     4.227881    5.664524   14.792476    ( 0.0000,  0.0000,  0.0000)
  25 Pd     7.027728    5.720329   14.708306    ( 0.0000,  0.0000,  0.0000)
  26 Ag     9.809597    5.685007   14.697881    ( 0.0000,  0.0000,  0.0000)
  27 Pt     0.034242    1.658296   17.059114    ( 0.0000,  0.0000,  0.0000)
  28 Pd     2.857061    1.639838   17.114333    ( 0.0000,  0.0000,  0.0000)
  29 Pd     5.582523    1.661485   17.078233    ( 0.0000,  0.0000,  0.0000)
  30 Pd     1.427099    4.090124   17.089661    ( 0.0000,  0.0000,  0.0000)
  31 Ru     4.294191    4.069251   17.309692    ( 0.0000,  0.0000,  0.0000)
  32 Pt     6.987432    4.089784   17.077178    ( 0.0000,  0.0000,  0.0000)
  33 Ag     2.789939    6.509111   17.070200    ( 0.0000,  0.0000,  0.0000)
  34 Pt     5.627056    6.458610   17.075021    ( 0.0000,  0.0000,  0.0000)
  35 Ru     8.291282    6.452065   17.197581    ( 0.0000,  0.0000,  0.0000)
  36 Pd     0.083466    0.055499   19.428738    ( 0.0000,  0.0000,  0.0000)
  37 Ru     2.903475   -0.036845   19.310142    ( 0.0000,  0.0000,  0.0000)
  38 Pd     5.641158    0.021988   19.417873    ( 0.0000,  0.0000,  0.0000)
  39 Pt     1.429290    2.446299   19.368352    ( 0.0000,  0.0000,  0.0000)
  40 Pd     4.197939    2.408940   19.451110    ( 0.0000,  0.0000,  0.0000)
  41 Pd     7.078997    2.457124   19.411346    ( 0.0000,  0.0000,  0.0000)
  42 Pt     2.785578    4.835963   19.361188    ( 0.0000,  0.0000,  0.0000)
  43 Pd     5.549337    4.818187   19.503634    ( 0.0000,  0.0000,  0.0000)
  44 Ru     8.447932    4.966189   19.317429    ( 0.0000,  0.0000,  0.0000)
  45 O      7.218246    5.771068   20.624655    ( 0.0000,  0.0000,  0.0000)

Unit cell:
           periodic     x           y           z      points  spacing
  1. axis:    yes    8.379498    0.000000    0.000000    35     0.2073
  2. axis:    yes    4.189749    7.256858    0.000000    35     0.2073
  3. axis:    no     0.000000    0.000000   29.243062   135     0.2166

  Lengths:   8.379498   8.379498  29.243062
  Angles:   90.000000  90.000000  60.000000

Effective grid spacing dv^(1/3) = 0.2207

                     log10-error:    total        iterations:
           time      wfs    density  energy       fermi  poisson
iter:   1  02:37:32  -1.99   +inf  -188.186825    3             
iter:   2  02:38:35  -1.28  -1.86  -312.623360    36            
iter:   3  02:39:37  -1.80  -1.24  -189.716123    38            
iter:   4  02:40:40  -2.54  -1.89  -185.039581    3             
iter:   5  02:41:42  -2.87  -2.08  -183.712603    3             
iter:   6  02:42:45  -3.95  -2.26  -183.250396    3             
iter:   7  02:43:48  -4.14  -2.47  -183.045166    2             
iter:   8  02:44:51  -4.41  -2.91  -183.015935    3             
iter:   9  02:45:54  -4.86  -3.00  -183.010779    3             
iter:  10  02:46:57  -4.14  -3.12  -183.048942    2             
iter:  11  02:47:59  -4.72  -2.81  -183.002490    3             
iter:  12  02:49:03  -5.31  -3.37  -183.000758    2             
iter:  13  02:50:05  -5.63  -3.48  -183.003016    2             
iter:  14  02:51:08  -5.14  -3.32  -183.001265    3             
iter:  15  02:52:10  -5.49  -3.45  -183.001646    2             
iter:  16  02:53:13  -6.03  -3.67  -183.000149    2             
iter:  17  02:54:16  -5.94  -3.78  -182.999502    2             
iter:  18  02:55:10  -6.42  -3.99  -182.999908    2             
iter:  19  02:56:05  -6.47  -4.00  -182.999688    2             
iter:  20  02:57:06  -6.81  -4.21  -182.999394    2             
iter:  21  02:58:08  -6.79  -4.30  -182.999746    2             
iter:  22  02:59:08  -7.28  -4.19  -182.999787    2             
iter:  23  03:00:09  -7.51  -4.36  -182.999518    2             

Converged after 23 iterations.

Dipole moment: (25.995083, 19.374679, -0.212345) |e|*Ang

Energy contributions relative to reference atoms: (reference = -9073453.423555)

Kinetic:       -173.587178
Potential:      +27.649627
External:        +0.000000
XC:             -31.629029
Entropy (-ST):   -2.028909
Local:           -4.418483
--------------------------
Free energy:   -184.013972
Extrapolated:  -182.999518

Fermi level: 0.83085

Showing only first 2 kpts
 Kpt  Band  Eigenvalues  Occupancy
  0   367      0.82400    0.12928
  0   368      0.83775    0.12069
  0   369      0.86367    0.10467
  0   370      0.92514    0.07008

  1   367      0.71431    0.19058
  1   368      0.75477    0.17038
  1   369      0.78833    0.15118
  1   370      0.79570    0.14675



Forces in eV/Ang:
  0 Pd    0.10582    0.50923   -0.41686
  1 Ag    0.10225    0.49319   -0.51910
  2 Pt   -0.24207    0.50832    0.83803
  3 Pd    0.09777    0.02784   -0.08030
  4 Pd    0.10998   -0.37248    0.20762
  5 Pt   -0.13220   -0.29373   -0.07935
  6 Pd   -0.17312   -0.39319   -0.04782
  7 Ag   -0.12688   -0.45439   -0.70524
  8 Pd   -0.24765   -0.30343    0.27278
  9 Ag    0.52925    0.20485    0.42752
 10 Ru    2.21151    1.28372    0.45479
 11 Ru   -1.85087    0.86771   -0.33365
 12 Pd    1.10765   -0.24012   -0.00219
 13 Ru   -0.52445   -1.49304   -0.86038
 14 Ag   -0.42963    0.14512    0.28670
 15 Pd    0.18253   -0.57030    0.10236
 16 Ag   -0.17808   -0.37318    0.37405
 17 Pd   -0.37081    0.54008    0.01957
 18 Ag   -0.00070    0.00243   -0.00810
 19 Ag   -0.00586    0.00143    0.04113
 20 Pt   -0.00768    0.00058   -0.01642
 21 Ag   -0.00372   -0.00499    0.07392
 22 Ag    0.01227   -0.00123    0.00137
 23 Ag    0.00085   -0.00522   -0.00874
 24 Pd    0.01378   -0.00258    0.01215
 25 Pd    0.00362   -0.00202   -0.01177
 26 Ag   -0.01150   -0.00156    0.04734
 27 Pt   -0.04870   -0.02721   -0.06550
 28 Pd   -0.02510    0.06963   -0.13276
 29 Pd    0.01155    0.04303   -0.06072
 30 Pd    0.00565   -0.03518   -0.13682
 31 Ru   -0.09223   -0.05642   -0.23398
 32 Pt   -0.01077    0.02525    0.10724
 33 Ag    0.05680   -0.01147   -0.08281
 34 Pt    0.00101   -0.01342    0.08825
 35 Ru    0.02066   -0.02585    0.15706
 36 Pd   -0.00522   -0.07362   -0.04999
 37 Ru    0.06849   -0.08332   -0.00319
 38 Pd   -0.02630    0.00512   -0.04166
 39 Pt   -0.06921   -0.04885    0.04988
 40 Pd   -0.08094   -0.17196    0.03161
 41 Pd   -0.09058    0.07547   -0.03475
 42 Pt   -0.15487    0.00910    0.04302
 43 Pd    0.28343    0.21966    0.20056
 44 Ru    0.03411    0.08802   -0.02913
 45 O    -0.17385   -0.02560   -0.16501

System changes: positions 

Initializing position-dependent things.

Density initialized from wave functions
                                            
                                            
                                            
                                            
                            O               
                                            
                 Pt     Pd     Ru           
            Pt     Pd     Pd                
                  Ag     Pt    Ru           
       Pd    PRu    RPd    Pt               
                                            
        Pt     Pd    PPd    Pd    Ag        
                                            
                Ag     Ag     Ag            
           Ag     Ag     Pt                 
                 Pd     Ag     Pd           
            Pd     Ru     Ag                
                  Pd     Ag     Pd          
       Ag    PRu    PRu    Pt               
        Pd     Ag     Pt                    
                                            
                                            
                                            
                                            
                                            

Positions:
   0 Pd     0.000000    1.633958   10.000000    ( 0.0000,  0.0000,  0.0000)
   1 Ag     2.830098    1.633958   10.000000    ( 0.0000,  0.0000,  0.0000)
   2 Pt     5.660196    1.633958   10.000000    ( 0.0000,  0.0000,  0.0000)
   3 Pd     1.415049    4.084895   10.000000    ( 0.0000,  0.0000,  0.0000)
   4 Pd     4.245147    4.084895   10.000000    ( 0.0000,  0.0000,  0.0000)
   5 Pt     7.075245    4.084895   10.000000    ( 0.0000,  0.0000,  0.0000)
   6 Pd     2.830098    6.535832   10.000000    ( 0.0000,  0.0000,  0.0000)
   7 Ag     5.660196    6.535832   10.000000    ( 0.0000,  0.0000,  0.0000)
   8 Pd     8.490294    6.535832   10.000000    ( 0.0000,  0.0000,  0.0000)
   9 Ag     0.000000    0.000000   12.310765    ( 0.0000,  0.0000,  0.0000)
  10 Ru     2.830098    0.000000   12.310765    ( 0.0000,  0.0000,  0.0000)
  11 Ru     5.660196    0.000000   12.310765    ( 0.0000,  0.0000,  0.0000)
  12 Pd     1.415049    2.450937   12.310765    ( 0.0000,  0.0000,  0.0000)
  13 Ru     4.245147    2.450937   12.310765    ( 0.0000,  0.0000,  0.0000)
  14 Ag     7.075245    2.450937   12.310765    ( 0.0000,  0.0000,  0.0000)
  15 Pd     2.830098    4.901874   12.310765    ( 0.0000,  0.0000,  0.0000)
  16 Ag     5.660196    4.901874   12.310765    ( 0.0000,  0.0000,  0.0000)
  17 Pd     8.490294    4.901874   12.310765    ( 0.0000,  0.0000,  0.0000)
  18 Ag     1.422101    0.841851   14.686597    ( 0.0000,  0.0000,  0.0000)
  19 Ag     4.223477    0.834574   14.677850    ( 0.0000,  0.0000,  0.0000)
  20 Pt     6.998968    0.829448   14.669263    ( 0.0000,  0.0000,  0.0000)
  21 Ag     2.847384    3.276697   14.699438    ( 0.0000,  0.0000,  0.0000)
  22 Ag     5.608753    3.273686   14.714211    ( 0.0000,  0.0000,  0.0000)
  23 Ag     8.411540    3.277497   14.705184    ( 0.0000,  0.0000,  0.0000)
  24 Pd     4.228827    5.664074   14.793375    ( 0.0000,  0.0000,  0.0000)
  25 Pd     7.028369    5.720281   14.707638    ( 0.0000,  0.0000,  0.0000)
  26 Ag     9.808676    5.684524   14.702400    ( 0.0000,  0.0000,  0.0000)
  27 Pt     0.030390    1.656206   17.053582    ( 0.0000,  0.0000,  0.0000)
  28 Pd     2.854839    1.644285   17.104067    ( 0.0000,  0.0000,  0.0000)
  29 Pd     5.582874    1.664745   17.073117    ( 0.0000,  0.0000,  0.0000)
  30 Pd     1.426075    4.087688   17.079098    ( 0.0000,  0.0000,  0.0000)
  31 Ru     4.285914    4.064006   17.289852    ( 0.0000,  0.0000,  0.0000)
  32 Pt     6.987448    4.093791   17.086923    ( 0.0000,  0.0000,  0.0000)
  33 Ag     2.794459    6.508154   17.062944    ( 0.0000,  0.0000,  0.0000)
  34 Pt     5.629680    6.457357   17.083367    ( 0.0000,  0.0000,  0.0000)
  35 Ru     8.291533    6.449469   17.215404    ( 0.0000,  0.0000,  0.0000)
  36 Pd     0.081904    0.049903   19.424213    ( 0.0000,  0.0000,  0.0000)
  37 Ru     2.909253   -0.036804   19.304912    ( 0.0000,  0.0000,  0.0000)
  38 Pd     5.640025    0.023186   19.413347    ( 0.0000,  0.0000,  0.0000)
  39 Pt     1.422461    2.441257   19.372917    ( 0.0000,  0.0000,  0.0000)
  40 Pd     4.190533    2.392896   19.453486    ( 0.0000,  0.0000,  0.0000)
  41 Pd     7.070925    2.462617   19.408168    ( 0.0000,  0.0000,  0.0000)
  42 Pt     2.770764    4.836976   19.364448    ( 0.0000,  0.0000,  0.0000)
  43 Pd     5.565947    4.832810   19.518261    ( 0.0000,  0.0000,  0.0000)
  44 Ru     8.456872    4.970284   19.311380    ( 0.0000,  0.0000,  0.0000)
  45 O      7.209015    5.771429   20.614859    ( 0.0000,  0.0000,  0.0000)

Unit cell:
           periodic     x           y           z      points  spacing
  1. axis:    yes    8.379498    0.000000    0.000000    35     0.2073
  2. axis:    yes    4.189749    7.256858    0.000000    35     0.2073
  3. axis:    no     0.000000    0.000000   29.243062   135     0.2166

  Lengths:   8.379498   8.379498  29.243062
  Angles:   90.000000  90.000000  60.000000

Effective grid spacing dv^(1/3) = 0.2207

                     log10-error:    total        iterations:
           time      wfs    density  energy       fermi  poisson
iter:   1  03:01:37  -2.82   +inf  -183.238925    3             
iter:   2  03:02:38  -3.19  -2.62  -184.717416    3             
iter:   3  03:03:39  -3.20  -2.08  -184.130798    3             
iter:   4  03:04:40  -4.11  -2.17  -183.095886    3             
iter:   5  03:05:41  -4.51  -2.81  -183.031454    3             
iter:   6  03:06:41  -5.07  -3.21  -183.027701    2             
iter:   7  03:07:43  -5.37  -3.37  -183.026044    2             
iter:   8  03:08:43  -5.18  -3.44  -183.025118    2             
iter:   9  03:09:45  -5.45  -3.44  -183.023505    2             
iter:  10  03:10:44  -5.70  -3.78  -183.023604    1             
iter:  11  03:11:45  -6.32  -3.83  -183.023327    2             
iter:  12  03:12:46  -6.48  -3.76  -183.023359    2             
iter:  13  03:13:47  -6.69  -4.00  -183.023307    2             
iter:  14  03:14:49  -6.87  -3.92  -183.023293    2             
iter:  15  03:15:50  -6.83  -4.16  -183.023016    2             
iter:  16  03:16:56  -6.90  -4.27  -183.023222    2             
iter:  17  03:17:57  -7.23  -4.19  -183.023005    2             
iter:  18  03:18:52  -7.45  -4.52  -183.023092    2             

Converged after 18 iterations.

Dipole moment: (26.855784, 19.494487, -0.208532) |e|*Ang

Energy contributions relative to reference atoms: (reference = -9073453.423555)

Kinetic:       -173.479075
Potential:      +27.597078
External:        +0.000000
XC:             -31.710290
Entropy (-ST):   -2.022751
Local:           -4.419430
--------------------------
Free energy:   -184.034467
Extrapolated:  -183.023092

Fermi level: 0.83203

Showing only first 2 kpts
 Kpt  Band  Eigenvalues  Occupancy
  0   367      0.82774    0.12768
  0   368      0.84093    0.11944
  0   369      0.86723    0.10322
  0   370      0.92700    0.06974

  1   367      0.71584    0.19042
  1   368      0.75651    0.17008
  1   369      0.78765    0.15229
  1   370      0.79684    0.14677



Forces in eV/Ang:
  0 Pd    0.10321    0.50692   -0.42285
  1 Ag    0.10292    0.49186   -0.52239
  2 Pt   -0.24004    0.50616    0.83309
  3 Pd    0.09611    0.03103   -0.08641
  4 Pd    0.11080   -0.37043    0.20381
  5 Pt   -0.13158   -0.29141   -0.08889
  6 Pd   -0.17363   -0.39204   -0.05023
  7 Ag   -0.12642   -0.45499   -0.70924
  8 Pd   -0.24746   -0.30491    0.26778
  9 Ag    0.52819    0.20408    0.42641
 10 Ru    2.21457    1.28649    0.45591
 11 Ru   -1.85286    0.86320   -0.32699
 12 Pd    1.11511   -0.23605    0.00613
 13 Ru   -0.53141   -1.49358   -0.84595
 14 Ag   -0.42949    0.14312    0.28245
 15 Pd    0.18045   -0.57363    0.12019
 16 Ag   -0.18048   -0.37241    0.37600
 17 Pd   -0.36335    0.54332    0.01973
 18 Ag   -0.00950   -0.02361   -0.00576
 19 Ag    0.00011   -0.00894    0.01455
 20 Pt    0.00098   -0.00241   -0.02560
 21 Ag    0.01265    0.00801    0.00227
 22 Ag    0.02270    0.01365   -0.00349
 23 Ag   -0.02383   -0.00081   -0.00776
 24 Pd    0.02842    0.00040    0.00351
 25 Pd   -0.01310   -0.00677    0.02357
 26 Ag   -0.00858    0.00973    0.00606
 27 Pt   -0.01761    0.00033   -0.01785
 28 Pd   -0.02808    0.02943   -0.04957
 29 Pd    0.00192    0.02470   -0.02464
 30 Pd    0.00614   -0.03010   -0.03465
 31 Ru   -0.01706    0.00553    0.04166
 32 Pt   -0.04683   -0.02128    0.03084
 33 Ag    0.01810   -0.02700   -0.02225
 34 Pt   -0.03579   -0.01302    0.00735
 35 Ru    0.05149    0.01262   -0.09078
 36 Pd   -0.04426   -0.03745   -0.03297
 37 Ru   -0.01086    0.03744    0.05609
 38 Pd    0.04548    0.03243   -0.01440
 39 Pt   -0.05001   -0.02813   -0.00473
 40 Pd   -0.05552    0.03236   -0.03741
 41 Pd   -0.06122    0.02886   -0.02369
 42 Pt    0.04540   -0.06292   -0.05133
 43 Pd   -0.02908    0.01128    0.00817
 44 Ru    0.00683    0.00163    0.07538
 45 O    -0.00540   -0.00149    0.00189

System changes: positions 

Initializing position-dependent things.

Density initialized from wave functions
                                            
                                            
                                            
                                            
                            O               
                                            
                 Pt     Pd     Ru           
            Pt     Pd     Pd                
                  Ag     Pt    Ru           
       Pd    PRu    RPd    Pt               
                                            
        Pt     Pd    PPd    Pd    Ag        
                                            
                Ag     Ag     Ag            
           Ag     Ag     Pt                 
                 Pd     Ag     Pd           
            Pd     Ru     Ag                
                  Pd     Ag     Pd          
       Ag    PRu    PRu    Pt               
        Pd     Ag     Pt                    
                                            
                                            
                                            
                                            
                                            

Positions:
   0 Pd     0.000000    1.633958   10.000000    ( 0.0000,  0.0000,  0.0000)
   1 Ag     2.830098    1.633958   10.000000    ( 0.0000,  0.0000,  0.0000)
   2 Pt     5.660196    1.633958   10.000000    ( 0.0000,  0.0000,  0.0000)
   3 Pd     1.415049    4.084895   10.000000    ( 0.0000,  0.0000,  0.0000)
   4 Pd     4.245147    4.084895   10.000000    ( 0.0000,  0.0000,  0.0000)
   5 Pt     7.075245    4.084895   10.000000    ( 0.0000,  0.0000,  0.0000)
   6 Pd     2.830098    6.535832   10.000000    ( 0.0000,  0.0000,  0.0000)
   7 Ag     5.660196    6.535832   10.000000    ( 0.0000,  0.0000,  0.0000)
   8 Pd     8.490294    6.535832   10.000000    ( 0.0000,  0.0000,  0.0000)
   9 Ag     0.000000    0.000000   12.310765    ( 0.0000,  0.0000,  0.0000)
  10 Ru     2.830098    0.000000   12.310765    ( 0.0000,  0.0000,  0.0000)
  11 Ru     5.660196    0.000000   12.310765    ( 0.0000,  0.0000,  0.0000)
  12 Pd     1.415049    2.450937   12.310765    ( 0.0000,  0.0000,  0.0000)
  13 Ru     4.245147    2.450937   12.310765    ( 0.0000,  0.0000,  0.0000)
  14 Ag     7.075245    2.450937   12.310765    ( 0.0000,  0.0000,  0.0000)
  15 Pd     2.830098    4.901874   12.310765    ( 0.0000,  0.0000,  0.0000)
  16 Ag     5.660196    4.901874   12.310765    ( 0.0000,  0.0000,  0.0000)
  17 Pd     8.490294    4.901874   12.310765    ( 0.0000,  0.0000,  0.0000)
  18 Ag     1.421203    0.839696   14.685839    ( 0.0000,  0.0000,  0.0000)
  19 Ag     4.223329    0.833779   14.679985    ( 0.0000,  0.0000,  0.0000)
  20 Pt     6.998918    0.829195   14.666383    ( 0.0000,  0.0000,  0.0000)
  21 Ag     2.848549    3.277420   14.700788    ( 0.0000,  0.0000,  0.0000)
  22 Ag     5.611107    3.274958   14.713734    ( 0.0000,  0.0000,  0.0000)
  23 Ag     8.409327    3.277342   14.704244    ( 0.0000,  0.0000,  0.0000)
  24 Pd     4.231745    5.663999   14.793819    ( 0.0000,  0.0000,  0.0000)
  25 Pd     7.027220    5.719617   14.709867    ( 0.0000,  0.0000,  0.0000)
  26 Ag     9.807688    5.685355   14.703808    ( 0.0000,  0.0000,  0.0000)
  27 Pt     0.028049    1.655917   17.050893    ( 0.0000,  0.0000,  0.0000)
  28 Pd     2.851707    1.647769   17.097534    ( 0.0000,  0.0000,  0.0000)
  29 Pd     5.583023    1.667678   17.069843    ( 0.0000,  0.0000,  0.0000)
  30 Pd     1.426335    4.084391   17.073993    ( 0.0000,  0.0000,  0.0000)
  31 Ru     4.282760    4.063607   17.290638    ( 0.0000,  0.0000,  0.0000)
  32 Pt     6.982953    4.092677   17.091751    ( 0.0000,  0.0000,  0.0000)
  33 Ag     2.796949    6.505310   17.059510    ( 0.0000,  0.0000,  0.0000)
  34 Pt     5.626983    6.455817   17.085679    ( 0.0000,  0.0000,  0.0000)
  35 Ru     8.296391    6.450190   17.210134    ( 0.0000,  0.0000,  0.0000)
  36 Pd     0.077177    0.045337   19.420174    ( 0.0000,  0.0000,  0.0000)
  37 Ru     2.909168   -0.031976   19.308416    ( 0.0000,  0.0000,  0.0000)
  38 Pd     5.644400    0.026652   19.411055    ( 0.0000,  0.0000,  0.0000)
  39 Pt     1.416273    2.437536   19.373268    ( 0.0000,  0.0000,  0.0000)
  40 Pd     4.183782    2.393240   19.450180    ( 0.0000,  0.0000,  0.0000)
  41 Pd     7.063495    2.466305   19.405277    ( 0.0000,  0.0000,  0.0000)
  42 Pt     2.772596    4.830980   19.359937    ( 0.0000,  0.0000,  0.0000)
  43 Pd     5.565019    4.835894   19.521151    ( 0.0000,  0.0000,  0.0000)
  44 Ru     8.459990    4.970617   19.316836    ( 0.0000,  0.0000,  0.0000)
  45 O      7.207414    5.771508   20.614776    ( 0.0000,  0.0000,  0.0000)

Unit cell:
           periodic     x           y           z      points  spacing
  1. axis:    yes    8.379498    0.000000    0.000000    35     0.2073
  2. axis:    yes    4.189749    7.256858    0.000000    35     0.2073
  3. axis:    no     0.000000    0.000000   29.243062   135     0.2166

  Lengths:   8.379498   8.379498  29.243062
  Angles:   90.000000  90.000000  60.000000

Effective grid spacing dv^(1/3) = 0.2207

                     log10-error:    total        iterations:
           time      wfs    density  energy       fermi  poisson
iter:   1  03:20:11  -3.44   +inf  -183.195374    2             
iter:   2  03:21:12  -2.82  -2.58  -190.725223    3             
iter:   3  03:22:11  -3.08  -1.81  -183.057198    3             
iter:   4  03:23:07  -4.38  -3.13  -183.030113    2             
iter:   5  03:24:02  -5.33  -3.56  -183.027709    2             
iter:   6  03:24:55  -5.85  -3.64  -183.027413    2             
iter:   7  03:25:49  -5.94  -3.71  -183.027097    2             
iter:   8  03:26:43  -6.44  -3.58  -183.026955    2             
iter:   9  03:27:37  -5.81  -3.73  -183.027585    2             
iter:  10  03:28:31  -6.21  -3.81  -183.026354    2             
iter:  11  03:29:24  -6.66  -3.94  -183.026288    2             
iter:  12  03:30:17  -7.05  -4.17  -183.026342    2             
iter:  13  03:31:11  -7.07  -4.24  -183.026256    2             
iter:  14  03:32:04  -6.79  -4.33  -183.025965    2             
iter:  15  03:32:56  -7.39  -4.44  -183.026355    2             
iter:  16  03:33:51  -7.49  -4.33  -183.026262    2             

Converged after 16 iterations.

Dipole moment: (26.820990, 19.232175, -0.206767) |e|*Ang

Energy contributions relative to reference atoms: (reference = -9073453.423555)

Kinetic:       -174.020000
Potential:      +28.047972
External:        +0.000000
XC:             -31.625605
Entropy (-ST):   -2.024655
Local:           -4.416301
--------------------------
Free energy:   -184.038589
Extrapolated:  -183.026262

Fermi level: 0.83221

Showing only first 2 kpts
 Kpt  Band  Eigenvalues  Occupancy
  0   367      0.82931    0.12682
  0   368      0.84172    0.11907
  0   369      0.86717    0.10337
  0   370      0.92731    0.06967

  1   367      0.71648    0.19021
  1   368      0.75706    0.16988
  1   369      0.78824    0.15205
  1   370      0.79751    0.14647



Forces in eV/Ang:
  0 Pd    0.10479    0.50766   -0.42107
  1 Ag    0.10376    0.49187   -0.51849
  2 Pt   -0.24209    0.50679    0.83442
  3 Pd    0.09713    0.03026   -0.08360
  4 Pd    0.11066   -0.37047    0.20369
  5 Pt   -0.13178   -0.29156   -0.08700
  6 Pd   -0.17195   -0.39321   -0.05215
  7 Ag   -0.12699   -0.45529   -0.70838
  8 Pd   -0.24735   -0.30372    0.26882
  9 Ag    0.53081    0.19899    0.41798
 10 Ru    2.21622    1.28337    0.45765
 11 Ru   -1.85839    0.85876   -0.32082
 12 Pd    1.11724   -0.23526    0.00257
 13 Ru   -0.53070   -1.49535   -0.84609
 14 Ag   -0.43208    0.14617    0.27092
 15 Pd    0.17718   -0.57063    0.11690
 16 Ag   -0.17811   -0.37038    0.37051
 17 Pd   -0.36332    0.54870    0.02296
 18 Ag   -0.00095   -0.00562   -0.01216
 19 Ag   -0.00060   -0.00442   -0.01618
 20 Pt   -0.00846   -0.01015   -0.02076
 21 Ag    0.00464    0.00253   -0.02438
 22 Ag    0.00372   -0.00301   -0.01252
 23 Ag   -0.00388    0.00546   -0.00836
 24 Pd   -0.00082    0.00179   -0.01791
 25 Pd    0.01202    0.00373    0.01253
 26 Ag   -0.00513    0.00236   -0.02187
 27 Pt   -0.01425   -0.00484   -0.00565
 28 Pd   -0.01068   -0.03751    0.00472
 29 Pd   -0.01106   -0.02529   -0.01065
 30 Pd   -0.04300    0.00489    0.01294
 31 Ru    0.02296    0.00255    0.00236
 32 Pt    0.01919    0.02908    0.01604
 33 Ag   -0.02024    0.00298   -0.01432
 34 Pt    0.04166    0.01725    0.01508
 35 Ru   -0.03743   -0.00820    0.04117
 36 Pd   -0.02912    0.00246   -0.01024
 37 Ru    0.01780   -0.02471   -0.01651
 38 Pd   -0.01078   -0.01331   -0.03056
 39 Pt   -0.03229   -0.01202   -0.02437
 40 Pd   -0.01763    0.00407   -0.01158
 41 Pd   -0.02143   -0.00295   -0.00313
 42 Pt   -0.02364   -0.01292   -0.00764
 43 Pd   -0.01247    0.00297    0.02466
 44 Ru   -0.00431    0.03850   -0.01401
 45 O    -0.03637    0.01362   -0.03437

Timing:                                      incl.     excl.
-------------------------------------------------------------------
Density initialized from wave functions:    11.383    11.383   0.1% |
 Symmetrize density:                         0.000     0.000   0.0% |
Forces:                                     71.250    71.250   0.9% |
Hamiltonian:                                11.159     0.037   0.0% |
 Atomic:                                     3.091     1.852   0.0% |
  XC Correction:                             1.239     1.239   0.0% |
 Calculate atomic Hamiltonians:              4.020     4.020   0.1% |
 Communicate:                                0.201     0.201   0.0% |
 Initialize Hamiltonian:                     0.000     0.000   0.0% |
 Poisson:                                    0.025     0.025   0.0% |
 XC 3D grid:                                 3.784     3.784   0.0% |
LCAO initialization:                        57.353     2.693   0.0% |
 LCAO eigensolver:                           6.309     0.003   0.0% |
  Calculate projections:                     0.076     0.076   0.0% |
  DenseAtomicCorrection:                     0.105     0.105   0.0% |
  Distribute overlap matrix:                 0.309     0.309   0.0% |
  Orbital Layouts:                           0.424     0.424   0.0% |
  Potential matrix:                          5.302     5.302   0.1% |
  Sum over cells:                            0.090     0.090   0.0% |
 LCAO to grid:                              46.552    46.552   0.6% |
 Set positions (LCAO WFS):                   1.799     0.749   0.0% |
  Basic WFS set positions:                   0.002     0.002   0.0% |
  Basis functions set positions:             0.000     0.000   0.0% |
  P tci:                                     0.436     0.436   0.0% |
  ST tci:                                    0.468     0.468   0.0% |
  mktci:                                     0.144     0.144   0.0% |
PWDescriptor:                                0.038     0.038   0.0% |
Redistribute:                                0.028     0.028   0.0% |
SCF-cycle:                                7642.247   202.162   2.6% ||
 Davidson:                                6815.190  1572.229  20.1% |-------|
  Apply H:                                1113.193  1067.755  13.6% |----|
   HMM T:                                   45.438    45.438   0.6% |
  Subspace diag:                           993.096     0.047   0.0% |
   calc_h_matrix:                          561.793   190.879   2.4% ||
    Apply H:                               370.914   355.778   4.5% |-|
     HMM T:                                 15.136    15.136   0.2% |
   diagonalize:                             16.242    16.242   0.2% |
   rotate_psi:                             415.014   415.014   5.3% |-|
  calc. matrices:                         2015.915  1276.583  16.3% |------|
   Apply H:                                739.332   709.004   9.1% |---|
    HMM T:                                  30.328    30.328   0.4% |
  diagonalize:                             290.535   290.535   3.7% ||
  rotate_psi:                              830.223   830.223  10.6% |---|
 Density:                                  335.941     0.008   0.0% |
  Atomic density matrices:                   2.067     2.067   0.0% |
  Mix:                                     121.053   121.053   1.5% ||
  Multipole moments:                         0.132     0.132   0.0% |
  Pseudo density:                          212.681   212.674   2.7% ||
   Symmetrize density:                       0.007     0.007   0.0% |
 Hamiltonian:                              262.819     1.088   0.0% |
  Atomic:                                   62.964    32.287   0.4% |
   XC Correction:                           30.677    30.677   0.4% |
  Calculate atomic Hamiltonians:            96.518    96.518   1.2% |
  Communicate:                               5.744     5.744   0.1% |
  Poisson:                                   0.688     0.688   0.0% |
  XC 3D grid:                               95.816    95.816   1.2% |
 Orthonormalize:                            26.136     0.002   0.0% |
  calc_s_matrix:                             3.783     3.783   0.0% |
  inverse-cholesky:                          0.388     0.388   0.0% |
  projections:                              13.871    13.871   0.2% |
  rotate_psi_s:                              8.092     8.092   0.1% |
Set symmetry:                                0.001     0.001   0.0% |
Other:                                      32.464    32.464   0.4% |
-------------------------------------------------------------------
Total:                                              7825.925 100.0%

Date: Fri Mar  4 03:34:05 2022
