
  ___ ___ ___ _ _ _  
 |   |   |_  | | | | 
 | | | | | . | | | | 
 |__ |  _|___|_____|  1.5.1
 |___|_|             

User:   clausen@node035.cluster
Date:   Thu Mar  3 19:47:22 2022
Arch:   x86_64
Pid:    62832
Python: 3.6.12
gpaw:   /software/kemi/gpaw/1.5.1/gpaw
_gpaw:  /software/kemi/gpaw/1.5.1/bin/gpaw-python
ase:    /software/kemi/ase/3.17.0/ase (version 3.17.0)
numpy:  /opt/rh/rh-python36/root/usr/lib64/python3.6/site-packages/numpy (version 1.13.1)
scipy:  /opt/rh/rh-python36/root/usr/lib64/python3.6/site-packages/scipy (version 0.19.1)
units:  Angstrom and eV
cores:  16

Input parameters:
  kpts: [4 4 1]
  mode: {ecut: 400.0,
         gammacentered: False,
         name: pw}
  xc: RPBE

System changes: positions, numbers, cell, pbc, initial_charges, initial_magmoms 

Initialize ...

Ag-setup:
  name: Silver
  id: c05e55bab2c3858b3f9398f6d75cb77c
  Z: 47
  valence: 17
  core: 30
  charge: 0.0
  file: /software/kemi/gpaw-setups/0.9.20000/Ag.RPBE.gz
  cutoffs: 1.25(comp), 2.35(filt), 2.19(core), lmax=2
  valence states:
                energy  radius
    5s(1.00)    -4.277   1.286
    4p(6.00)   -58.523   1.328
    5p(0.00)    -0.755   1.328
    4d(10.00)    -7.386   1.180
    *s          22.934   1.286
    *d          19.826   1.180

  Using partial waves for Ag as LCAO basis

Ir-setup:
  name: Iridium
  id: 73b603359d1d5397a85ae3c2440f9033
  Z: 77
  valence: 15
  core: 62
  charge: 0.0
  file: /software/kemi/gpaw-setups/0.9.20000/Ir.RPBE.gz
  cutoffs: 1.26(comp), 2.40(filt), 2.36(core), lmax=2
  valence states:
                energy  radius
    6s(2.00)    -6.219   1.296
    5p(6.00)   -54.684   1.328
    6p(0.00)    -1.215   1.328
    5d(7.00)    -7.118   1.286
    *s          20.992   1.296
    *d          20.093   1.286

  Using partial waves for Ir as LCAO basis

Pt-setup:
  name: Platinum
  id: f04f522592575c47ad794f6b4a415b4b
  Z: 78
  valence: 16
  core: 62
  charge: 0.0
  file: /software/kemi/gpaw-setups/0.9.20000/Pt.RPBE.gz
  cutoffs: 1.29(comp), 2.26(filt), 2.26(core), lmax=2
  valence states:
                energy  radius
    6s(1.00)    -5.516   1.307
    5p(6.00)   -55.971   1.371
    6p(0.00)    -0.856   1.371
    5d(9.00)    -6.087   1.307
    *s          21.695   1.307
    *d          21.125   1.307

  Using partial waves for Pt as LCAO basis

Ru-setup:
  name: Ruthenium
  id: 76477906e28f51dc1b29884d53556fe9
  Z: 44
  valence: 16
  core: 28
  charge: 0.0
  file: /software/kemi/gpaw-setups/0.9.20000/Ru.RPBE.gz
  cutoffs: 1.23(comp), 2.16(filt), 1.30(core), lmax=2
  valence states:
                energy  radius
    4s(2.00)   -76.255   1.281
    5s(1.00)    -4.126   1.281
    4p(6.00)   -46.371   1.286
    5p(0.00)    -0.913   1.286
    4d(7.00)    -5.146   1.254
    *d          22.066   1.254

  Using partial waves for Ru as LCAO basis

O-setup:
  name: Oxygen
  id: 08071ca1eed670e7821b24b7eb4d558c
  Z: 8
  valence: 6
  core: 2
  charge: 0.0
  file: /software/kemi/gpaw-setups/0.9.20000/O.RPBE.gz
  cutoffs: 0.67(comp), 1.17(filt), 0.83(core), lmax=2
  valence states:
                energy  radius
    2s(2.00)   -24.041   0.688
    2p(4.00)    -8.984   0.598
    *s           3.170   0.688
    *p          18.228   0.598
    *d           0.000   0.619

  Using partial waves for O as LCAO basis

H-setup:
  name: Hydrogen
  id: ea3f9156a1dc40d47a60fdce8f8bd75d
  Z: 1
  valence: 1
  core: 0
  charge: 0.0
  file: /software/kemi/gpaw-setups/0.9.20000/H.RPBE.gz
  cutoffs: 0.48(comp), 0.85(filt), 0.53(core), lmax=2
  valence states:
                energy  radius
    1s(1.00)    -6.572   0.476
    *s          20.639   0.476
    *p           0.000   0.476

  Using partial waves for H as LCAO basis

Reference energy: -16429291.423757

Spin-paired calculation

Occupation numbers:
  Fermi-Dirac: width=0.1000 eV

Convergence criteria:
  Maximum total energy change: 0.0005 eV / electron
  Maximum integral of absolute density change: 0.0001 electrons
  Maximum integral of absolute eigenstate change: 4e-08 eV^2
  Maximum number of iterations: 333

Symmetries present (total): 1

  ( 1  0  0)
  ( 0  1  0)
  ( 0  0  1)

16 k-points: 4 x 4 x 1 Monkhorst-Pack grid
8 k-points in the irreducible part of the Brillouin zone
       k-points in crystal coordinates                weights
   0:     0.12500000   -0.37500000    0.00000000          2/16
   1:     0.12500000   -0.12500000    0.00000000          2/16
   2:     0.12500000    0.12500000    0.00000000          2/16
   3:     0.12500000    0.37500000    0.00000000          2/16
   4:     0.37500000   -0.37500000    0.00000000          2/16
   5:     0.37500000   -0.12500000    0.00000000          2/16
   6:     0.37500000    0.12500000    0.00000000          2/16
   7:     0.37500000    0.37500000    0.00000000          2/16

Wave functions: Plane wave expansion
  Cutoff energy: 400.000 eV
  Number of coefficients (min, max): 32722, 32776
  Pulay-stress correction: 0.000000 eV/Ang^3 (de/decut=0.000000)
  Using FFTW library
  ScaLapack parameters: grid=1x1, blocksize=None
  Wavefunction extrapolation:
    Improved wavefunction reuse through dual PAW basis 

Eigensolver
   Davidson(niter=2, smin=None, normalize=True) 

Densities:
  Coarse grid: 35*35*135 grid
  Fine grid: 70*70*270 grid
  Total Charge: 0.000000 

Density mixing:
  Method: separate
  Backend: pulay
  Linear mixing parameter: 0.05
  Mixing with 5 old densities
  Damping of long wave oscillations: 50 

Hamiltonian:
  XC and Coulomb potentials evaluated on a 70*70*270 grid
  Using the RPBE Exchange-Correlation functional
 

XC parameters: RPBE with 2 nearest neighbor stencil

Memory estimate:
  Process memory now: 155.93 MiB
  Calculator: 545.08 MiB
    Density: 51.32 MiB
      Arrays: 16.41 MiB
      Localized functions: 28.56 MiB
      Mixer: 6.36 MiB
    Hamiltonian: 11.63 MiB
      Arrays: 10.73 MiB
      XC: 0.00 MiB
      Poisson: 0.00 MiB
      vbar: 0.90 MiB
    Wavefunctions: 482.13 MiB
      Arrays psit_nG: 218.05 MiB
      Eigensolver: 249.57 MiB
      Projections: 2.75 MiB
      Projectors: 5.13 MiB
      PW-descriptor: 6.62 MiB

Total number of cores used: 16
Parallelization over k-points: 8
Domain decomposition: 1 x 1 x 2

Number of atoms: 47
Number of atomic orbitals: 548
Number of bands in calculation: 436
Bands to converge: occupied states only
Number of valence electrons: 719

... initialized

Initializing position-dependent things.

Density initialized from atomic densities
Creating initial wave functions:
  436 bands from LCAO basis set

                                             
                                             
                                             
                                             
                          H                  
                        O                    
                                             
                                             
                               Ag            
                  Ir    Ir                   
            Ag    AIr     Pt    Ru           
                                             
       Ir    IIr    IPt    Pt                
         Ru    Ir     Ir                     
                     Pt     Ag     Ir        
                Ag     Ag     Ag             
                                             
           Ir    PPt    RPt    Ir            
                                             
            Ir    IAg    AAg    Pt           
       Ag    IIr    IIr    Ir                
                                             
        Ag     Ag     Ir                     
                                             
                                             
                                             
                                             
                                             

Positions:
   0 Ag     0.000000    1.621936   10.000000    ( 0.0000,  0.0000,  0.0000)
   1 Ag     2.809275    1.621936   10.000000    ( 0.0000,  0.0000,  0.0000)
   2 Ir     5.618550    1.621936   10.000000    ( 0.0000,  0.0000,  0.0000)
   3 Ir     1.404638    4.054840   10.000000    ( 0.0000,  0.0000,  0.0000)
   4 Ir     4.213913    4.054840   10.000000    ( 0.0000,  0.0000,  0.0000)
   5 Ir     7.023188    4.054840   10.000000    ( 0.0000,  0.0000,  0.0000)
   6 Ir     2.809275    6.487743   10.000000    ( 0.0000,  0.0000,  0.0000)
   7 Ag     5.618550    6.487743   10.000000    ( 0.0000,  0.0000,  0.0000)
   8 Pt     8.427826    6.487743   10.000000    ( 0.0000,  0.0000,  0.0000)
   9 Ag     0.000000    0.000000   12.293764    ( 0.0000,  0.0000,  0.0000)
  10 Ir     2.809275    0.000000   12.293764    ( 0.0000,  0.0000,  0.0000)
  11 Ir     5.618550    0.000000   12.293764    ( 0.0000,  0.0000,  0.0000)
  12 Ir     1.404638    2.432904   12.293764    ( 0.0000,  0.0000,  0.0000)
  13 Ag     4.213913    2.432904   12.293764    ( 0.0000,  0.0000,  0.0000)
  14 Ag     7.023188    2.432904   12.293764    ( 0.0000,  0.0000,  0.0000)
  15 Pt     2.809275    4.865807   12.293764    ( 0.0000,  0.0000,  0.0000)
  16 Ru     5.618550    4.865807   12.293764    ( 0.0000,  0.0000,  0.0000)
  17 Ir     8.427826    4.865807   12.293764    ( 0.0000,  0.0000,  0.0000)
  18 Ir     1.441638    0.791118   14.593247    ( 0.0000,  0.0000,  0.0000)
  19 Pt     4.193480    0.729862   14.611205    ( 0.0000,  0.0000,  0.0000)
  20 Pt     7.034823    0.803600   14.634811    ( 0.0000,  0.0000,  0.0000)
  21 Ag     2.789574    3.267050   14.608106    ( 0.0000,  0.0000,  0.0000)
  22 Ag     5.614143    3.230616   14.629701    ( 0.0000,  0.0000,  0.0000)
  23 Ag     8.464759    3.239382   14.607930    ( 0.0000,  0.0000,  0.0000)
  24 Pt     4.237230    5.675263   14.599690    ( 0.0000,  0.0000,  0.0000)
  25 Ag     7.020289    5.624637   14.588938    ( 0.0000,  0.0000,  0.0000)
  26 Ir     9.810296    5.749034   14.534386    ( 0.0000,  0.0000,  0.0000)
  27 Ru     0.088724    1.655821   16.925664    ( 0.0000,  0.0000,  0.0000)
  28 Ir     2.745717    1.627778   16.875164    ( 0.0000,  0.0000,  0.0000)
  29 Ir     5.551846    1.597836   16.889230    ( 0.0000,  0.0000,  0.0000)
  30 Ir     1.358794    4.007324   17.013226    ( 0.0000,  0.0000,  0.0000)
  31 Ir     4.198339    3.977911   16.957702    ( 0.0000,  0.0000,  0.0000)
  32 Pt     7.125382    4.056246   16.998429    ( 0.0000,  0.0000,  0.0000)
  33 Ag     2.759687    6.474835   16.802442    ( 0.0000,  0.0000,  0.0000)
  34 Ir     5.663661    6.563267   16.864024    ( 0.0000,  0.0000,  0.0000)
  35 Ru     8.399575    6.483077   16.866623    ( 0.0000,  0.0000,  0.0000)
  36 Ir     0.015859   -0.055829   18.998154    ( 0.0000,  0.0000,  0.0000)
  37 Ir     2.776668   -0.025110   18.984491    ( 0.0000,  0.0000,  0.0000)
  38 Pt     5.623976   -0.052286   19.132338    ( 0.0000,  0.0000,  0.0000)
  39 Ag     1.411190    2.424549   19.550242    ( 0.0000,  0.0000,  0.0000)
  40 Ir     4.228423    2.403175   19.018562    ( 0.0000,  0.0000,  0.0000)
  41 Pt     6.964575    2.313754   19.128521    ( 0.0000,  0.0000,  0.0000)
  42 Ir     2.920544    4.885225   19.043791    ( 0.0000,  0.0000,  0.0000)
  43 Ir     5.524960    4.949858   19.026821    ( 0.0000,  0.0000,  0.0000)
  44 Ag     8.407084    4.876484   19.535850    ( 0.0000,  0.0000,  0.0000)
  45 O      5.524960    4.949858   21.550242    ( 0.0000,  0.0000,  0.0000)
  46 H      6.174960    5.599858   21.950242    ( 0.0000,  0.0000,  0.0000)

Unit cell:
           periodic     x           y           z      points  spacing
  1. axis:    yes    8.445283    0.000000    0.000000    35     0.2090
  2. axis:    yes    4.222641    7.313829    0.000000    35     0.2090
  3. axis:    no     0.000000    0.000000   29.175054   135     0.2161

  Lengths:   8.445283   8.445283  29.175054
  Angles:   90.000000  90.000000  60.000000

Effective grid spacing dv^(1/3) = 0.2217

                     log10-error:    total        iterations:
           time      wfs    density  energy       fermi  poisson
iter:   1  19:49:36  +0.19   +inf  -300.103679    3             
iter:   2  19:50:41  -1.11  -1.37  -296.764455    36            
iter:   3  19:51:46  -1.37  -1.33  -333.266663    34            
iter:   4  19:52:51  -1.82  -1.25  -279.151815    3             
iter:   5  19:53:54  -2.23  -1.48  -274.046802    36            
iter:   6  19:54:55  -2.38  -1.53  -272.073185    3             
iter:   7  19:56:00  -2.30  -1.58  -269.110701    3             
iter:   8  19:57:09  -2.59  -1.72  -268.349351    3             
iter:   9  19:58:17  -3.42  -1.84  -268.221248    3             
iter:  10  19:59:27  -2.30  -1.85  -269.515534    3             
iter:  11  20:00:35  -2.90  -1.93  -268.324781    3             
iter:  12  20:01:42  -3.42  -2.17  -268.398685    3             
iter:  13  20:02:51  -3.44  -2.19  -268.564613    3             
iter:  14  20:04:01  -3.64  -2.14  -268.238886    3             
iter:  15  20:05:10  -3.24  -2.28  -268.224098    3             
iter:  16  20:06:11  -3.40  -2.39  -268.096785    3             
iter:  17  20:07:06  -3.77  -2.61  -268.043626    3             
iter:  18  20:08:01  -4.19  -2.77  -268.040763    3             
iter:  19  20:08:55  -4.21  -2.85  -268.037835    3             
iter:  20  20:09:50  -4.35  -2.96  -268.042035    2             
iter:  21  20:10:44  -4.74  -2.89  -268.037760    3             
iter:  22  20:11:40  -5.24  -3.01  -268.034745    3             
iter:  23  20:12:31  -4.56  -3.02  -268.035740    3             
iter:  24  20:13:22  -4.82  -3.15  -268.034690    2             
iter:  25  20:14:08  -5.27  -3.26  -268.034440    2             
iter:  26  20:14:54  -5.48  -3.43  -268.032548    3             
iter:  27  20:15:39  -5.48  -3.45  -268.031917    3             
iter:  28  20:16:25  -6.05  -3.64  -268.032896    2             
iter:  29  20:17:11  -6.72  -3.60  -268.031786    2             
iter:  30  20:17:57  -6.23  -3.66  -268.032170    2             
iter:  31  20:18:42  -6.21  -3.78  -268.032175    2             
iter:  32  20:19:31  -6.53  -3.93  -268.032267    2             
iter:  33  20:20:29  -6.89  -4.01  -268.032484    2             
iter:  34  20:21:29  -6.87  -4.21  -268.032531    2             
iter:  35  20:22:27  -7.66  -4.29  -268.032336    2             

Converged after 35 iterations.

Dipole moment: (23.381228, 18.842691, -0.301883) |e|*Ang

Energy contributions relative to reference atoms: (reference = -16429291.423757)

Kinetic:       -150.839776
Potential:      +93.144146
External:        +0.000000
XC:            -202.910443
Entropy (-ST):   -2.111109
Local:           -6.370709
--------------------------
Free energy:   -269.087891
Extrapolated:  -268.032336

Fermi level: 1.21705

Showing only first 2 kpts
 Kpt  Band  Eigenvalues  Occupancy
  0   357      1.18980    0.14193
  0   358      1.21443    0.12664
  0   359      1.25010    0.10453
  0   360      1.30059    0.07563

  1   357      1.07972    0.19948
  1   358      1.13086    0.17576
  1   359      1.14879    0.16608
  1   360      1.18282    0.14619



Forces in eV/Ang:
  0 Ag   -0.42112    0.16372   -1.05090
  1 Ag    0.25720    0.22999   -0.86325
  2 Ir    0.49476   -0.17764    0.02453
  3 Ir   -0.10992    1.22932    1.39855
  4 Ir    0.41077    0.40151    0.87690
  5 Ir   -0.32441   -0.02341    1.21969
  6 Ir   -1.73050   -0.50779    0.73377
  7 Ag   -0.11949   -0.35264   -0.94945
  8 Pt    1.07418   -0.39219    0.48220
  9 Ag    0.13231    0.01075    0.16164
 10 Ir   -0.02156   -0.43338    0.97607
 11 Ir   -0.63906   -0.78535   -0.52762
 12 Ir    0.37872    0.15979    0.15328
 13 Ag   -0.01368   -0.03356    0.15189
 14 Ag    0.05461    0.08529    0.12814
 15 Pt   -0.15163   -0.03486   -0.61227
 16 Ru    0.63099    0.47676   -1.38538
 17 Ir    0.12592    0.30066   -1.27815
 18 Ir    0.00472    0.07775   -0.01869
 19 Pt   -0.00263    0.02858    0.01513
 20 Pt    0.01228   -0.00050    0.04226
 21 Ag   -0.00738    0.00045    0.01985
 22 Ag    0.02207   -0.00175    0.01819
 23 Ag    0.01510    0.01165    0.01566
 24 Pt    0.01188    0.01657    0.04767
 25 Ag   -0.00864   -0.03168    0.00603
 26 Ir    0.01658   -0.04315    0.00787
 27 Ru    0.04322   -0.07478    0.07236
 28 Ir    0.04295   -0.07494    0.23604
 29 Ir    0.02228    0.02158   -0.02383
 30 Ir    0.03233   -0.04190    0.09779
 31 Ir    0.08337    0.11953   -0.13366
 32 Pt   -0.09837    0.07357    0.04032
 33 Ag    0.00666   -0.03130   -0.03721
 34 Ir   -0.06595   -0.16517    0.05608
 35 Ru    0.01196   -0.04724    0.02125
 36 Ir   -0.07459    0.12998   -0.03535
 37 Ir    0.07407    0.24097   -0.14076
 38 Pt   -0.05290   -0.02054    0.02284
 39 Ag    0.00703   -0.03044    0.00799
 40 Ir   -0.10403   -0.11615   -0.04698
 41 Pt    0.02591   -0.13572   -0.05593
 42 Ir   -0.30795   -0.04863   -0.04622
 43 Ir    0.27697   -0.03116    2.10153
 44 Ag    0.04918   -0.03737    0.01169
 45 O     0.34721    0.28466   -1.28437
 46 H    -0.32693   -0.27315   -0.52784

System changes: positions 

Initializing position-dependent things.

Density initialized from wave functions
                                             
                                             
                                             
                                             
                          H                  
                        O                    
                                             
                                             
                        Ir     Ag            
                  Ir                         
            Ag    AIr     Pt    Ru           
                                             
       Ir    IIr    IPt    Pt                
         Ru    Ir     Ir                     
                     Pt     Ag     Ir        
                Ag     Ag     Ag             
                                             
           Ir    PPt    RPt    Ir            
                                             
            Ir    IAg    AAg    Pt           
       Ag    IIr    IIr    Ir                
                                             
        Ag     Ag     Ir                     
                                             
                                             
                                             
                                             
                                             

Positions:
   0 Ag     0.000000    1.621936   10.000000    ( 0.0000,  0.0000,  0.0000)
   1 Ag     2.809275    1.621936   10.000000    ( 0.0000,  0.0000,  0.0000)
   2 Ir     5.618550    1.621936   10.000000    ( 0.0000,  0.0000,  0.0000)
   3 Ir     1.404638    4.054840   10.000000    ( 0.0000,  0.0000,  0.0000)
   4 Ir     4.213913    4.054840   10.000000    ( 0.0000,  0.0000,  0.0000)
   5 Ir     7.023188    4.054840   10.000000    ( 0.0000,  0.0000,  0.0000)
   6 Ir     2.809275    6.487743   10.000000    ( 0.0000,  0.0000,  0.0000)
   7 Ag     5.618550    6.487743   10.000000    ( 0.0000,  0.0000,  0.0000)
   8 Pt     8.427826    6.487743   10.000000    ( 0.0000,  0.0000,  0.0000)
   9 Ag     0.000000    0.000000   12.293764    ( 0.0000,  0.0000,  0.0000)
  10 Ir     2.809275    0.000000   12.293764    ( 0.0000,  0.0000,  0.0000)
  11 Ir     5.618550    0.000000   12.293764    ( 0.0000,  0.0000,  0.0000)
  12 Ir     1.404638    2.432904   12.293764    ( 0.0000,  0.0000,  0.0000)
  13 Ag     4.213913    2.432904   12.293764    ( 0.0000,  0.0000,  0.0000)
  14 Ag     7.023188    2.432904   12.293764    ( 0.0000,  0.0000,  0.0000)
  15 Pt     2.809275    4.865807   12.293764    ( 0.0000,  0.0000,  0.0000)
  16 Ru     5.618550    4.865807   12.293764    ( 0.0000,  0.0000,  0.0000)
  17 Ir     8.427826    4.865807   12.293764    ( 0.0000,  0.0000,  0.0000)
  18 Ir     1.442083    0.798453   14.591484    ( 0.0000,  0.0000,  0.0000)
  19 Pt     4.193232    0.732558   14.612632    ( 0.0000,  0.0000,  0.0000)
  20 Pt     7.035982    0.803553   14.638798    ( 0.0000,  0.0000,  0.0000)
  21 Ag     2.788878    3.267093   14.609978    ( 0.0000,  0.0000,  0.0000)
  22 Ag     5.616226    3.230451   14.631417    ( 0.0000,  0.0000,  0.0000)
  23 Ag     8.466184    3.240481   14.609407    ( 0.0000,  0.0000,  0.0000)
  24 Pt     4.238350    5.676826   14.604187    ( 0.0000,  0.0000,  0.0000)
  25 Ag     7.019474    5.621648   14.589507    ( 0.0000,  0.0000,  0.0000)
  26 Ir     9.811861    5.744964   14.535128    ( 0.0000,  0.0000,  0.0000)
  27 Ru     0.092802    1.648766   16.932491    ( 0.0000,  0.0000,  0.0000)
  28 Ir     2.749769    1.620708   16.897432    ( 0.0000,  0.0000,  0.0000)
  29 Ir     5.553948    1.599872   16.886982    ( 0.0000,  0.0000,  0.0000)
  30 Ir     1.361844    4.003372   17.022452    ( 0.0000,  0.0000,  0.0000)
  31 Ir     4.206204    3.989187   16.945093    ( 0.0000,  0.0000,  0.0000)
  32 Pt     7.116101    4.063187   17.002234    ( 0.0000,  0.0000,  0.0000)
  33 Ag     2.760316    6.471882   16.798932    ( 0.0000,  0.0000,  0.0000)
  34 Ir     5.657439    6.547684   16.869315    ( 0.0000,  0.0000,  0.0000)
  35 Ru     8.400703    6.478621   16.868628    ( 0.0000,  0.0000,  0.0000)
  36 Ir     0.008821   -0.043566   18.994820    ( 0.0000,  0.0000,  0.0000)
  37 Ir     2.783656   -0.002376   18.971212    ( 0.0000,  0.0000,  0.0000)
  38 Pt     5.618985   -0.054224   19.134493    ( 0.0000,  0.0000,  0.0000)
  39 Ag     1.411854    2.421677   19.550996    ( 0.0000,  0.0000,  0.0000)
  40 Ir     4.218608    2.392217   19.014131    ( 0.0000,  0.0000,  0.0000)
  41 Pt     6.967020    2.300950   19.123244    ( 0.0000,  0.0000,  0.0000)
  42 Ir     2.891492    4.880637   19.039430    ( 0.0000,  0.0000,  0.0000)
  43 Ir     5.551091    4.946918   19.225085    ( 0.0000,  0.0000,  0.0000)
  44 Ag     8.411723    4.872958   19.536953    ( 0.0000,  0.0000,  0.0000)
  45 O      5.557717    4.976713   21.429072    ( 0.0000,  0.0000,  0.0000)
  46 H      6.144117    5.574088   21.900445    ( 0.0000,  0.0000,  0.0000)

Unit cell:
           periodic     x           y           z      points  spacing
  1. axis:    yes    8.445283    0.000000    0.000000    35     0.2090
  2. axis:    yes    4.222641    7.313829    0.000000    35     0.2090
  3. axis:    no     0.000000    0.000000   29.175054   135     0.2161

  Lengths:   8.445283   8.445283  29.175054
  Angles:   90.000000  90.000000  60.000000

Effective grid spacing dv^(1/3) = 0.2217

                     log10-error:    total        iterations:
           time      wfs    density  energy       fermi  poisson
iter:   1  20:23:54  -1.80   +inf  -273.520739    4             
iter:   2  20:24:55  -1.72  -1.92  -299.151821    36            
iter:   3  20:26:00  -1.42  -1.44  -330.692932    3             
iter:   4  20:27:05  -2.13  -1.34  -270.494726    37            
iter:   5  20:28:11  -2.78  -2.03  -268.890765    4             
iter:   6  20:29:16  -3.75  -2.43  -268.792719    3             
iter:   7  20:30:21  -4.06  -2.54  -268.684033    3             
iter:   8  20:31:26  -3.81  -2.72  -268.652948    3             
iter:   9  20:32:31  -3.64  -2.69  -268.633637    2             
iter:  10  20:33:37  -4.14  -2.62  -268.599727    3             
iter:  11  20:34:43  -4.46  -2.82  -268.561956    2             
iter:  12  20:35:50  -4.90  -3.18  -268.562542    3             
iter:  13  20:36:56  -4.88  -3.12  -268.558242    3             
iter:  14  20:38:02  -5.25  -3.25  -268.563000    2             
iter:  15  20:39:07  -5.38  -3.20  -268.557058    2             
iter:  16  20:40:09  -5.82  -3.28  -268.557589    2             
iter:  17  20:41:18  -5.84  -3.44  -268.555703    2             
iter:  18  20:42:25  -5.24  -3.57  -268.556361    3             
iter:  19  20:43:30  -5.79  -3.52  -268.555024    3             
iter:  20  20:44:38  -6.02  -3.63  -268.556096    2             
iter:  21  20:45:47  -6.46  -3.73  -268.554984    2             
iter:  22  20:46:47  -6.55  -3.85  -268.555797    2             
iter:  23  20:47:45  -6.59  -3.83  -268.555357    2             
iter:  24  20:48:44  -6.57  -4.03  -268.555255    2             
iter:  25  20:49:43  -6.66  -4.06  -268.555207    2             
iter:  26  20:50:43  -6.98  -4.01  -268.555719    2             
iter:  27  20:51:40  -7.10  -3.94  -268.554934    2             
iter:  28  20:52:36  -7.40  -4.08  -268.555149    2             

Converged after 28 iterations.

Dipole moment: (24.248837, 17.084267, -0.131351) |e|*Ang

Energy contributions relative to reference atoms: (reference = -16429291.423757)

Kinetic:       -159.844939
Potential:     +101.323088
External:        +0.000000
XC:            -202.616839
Entropy (-ST):   -2.121975
Local:           -6.355472
--------------------------
Free energy:   -269.616137
Extrapolated:  -268.555149

Fermi level: 1.29382

Showing only first 2 kpts
 Kpt  Band  Eigenvalues  Occupancy
  0   357      1.25513    0.14888
  0   358      1.29416    0.12479
  0   359      1.33237    0.10120
  0   360      1.36635    0.08156

  1   357      1.16274    0.19691
  1   358      1.21003    0.17451
  1   359      1.22823    0.16459
  1   360      1.25540    0.14872



Forces in eV/Ang:
  0 Ag   -0.41439    0.16018   -1.04928
  1 Ag    0.24886    0.22853   -0.86289
  2 Ir    0.49703   -0.17206    0.03141
  3 Ir   -0.11233    1.21677    1.37412
  4 Ir    0.40314    0.39774    0.87731
  5 Ir   -0.32500   -0.03028    1.22246
  6 Ir   -1.71120   -0.50255    0.74370
  7 Ag   -0.12310   -0.34076   -0.95303
  8 Pt    1.06332   -0.38830    0.48271
  9 Ag    0.13001    0.01336    0.17216
 10 Ir   -0.01094   -0.44291    0.97814
 11 Ir   -0.64363   -0.77616   -0.50681
 12 Ir    0.38512    0.14685    0.21001
 13 Ag   -0.00805   -0.03067    0.16436
 14 Ag    0.05403    0.07812    0.14540
 15 Pt   -0.14311   -0.03636   -0.60924
 16 Ru    0.63416    0.47694   -1.36621
 17 Ir    0.11836    0.30864   -1.27042
 18 Ir    0.00357    0.00208    0.04583
 19 Pt   -0.00396   -0.01058    0.00156
 20 Pt    0.01938    0.00721    0.00452
 21 Ag    0.01437   -0.01682    0.04279
 22 Ag    0.02006    0.00057   -0.00793
 23 Ag   -0.01065   -0.00026    0.05620
 24 Pt    0.03409   -0.01236    0.02331
 25 Ag   -0.00167    0.01910    0.01772
 26 Ir   -0.00400    0.00180   -0.02051
 27 Ru    0.02674   -0.03857    0.04388
 28 Ir   -0.00562    0.01951    0.01922
 29 Ir   -0.01304    0.04912   -0.02418
 30 Ir    0.03078   -0.02902    0.06937
 31 Ir    0.37177    0.26445    0.46391
 32 Pt   -0.26409    0.10890    0.25488
 33 Ag   -0.02331   -0.02798    0.03811
 34 Ir   -0.02105   -0.36387    0.08835
 35 Ru   -0.00103   -0.07612    0.00164
 36 Ir   -0.00386   -0.11981    0.00836
 37 Ir    0.01327    0.00206    0.17624
 38 Pt   -0.00751   -0.05301   -0.04733
 39 Ag   -0.04130    0.01187    0.04935
 40 Ir   -0.02009    0.00650   -0.04487
 41 Pt   -0.01665   -0.01754   -0.03790
 42 Ir    0.10015   -0.02472   -0.09878
 43 Ir   -0.14947    0.27904    1.05867
 44 Ag    0.04666   -0.01057   -0.00521
 45 O    -1.13114   -1.24478   -2.07869
 46 H     0.91749    0.96403    0.14251

System changes: positions 

Initializing position-dependent things.

Density initialized from wave functions
                                             
                                             
                                             
                                             
                          H                  
                        O                    
                                             
                                             
                  Ir    Ir     Ag            
            Ag                               
                  AIr     Pt    Ru           
       Ir    IIr    IPt    Pt                
                                             
         Ru    Ir    PIr    Ag     Ir        
                                             
                Ag     Ag     Ag             
           Ir    PPt    RPt    Ir            
                                             
            Ir    IAg    AAg    Pt           
       Ag     Ir     Ir                      
             Ir     Ir     Ir                
        Ag     Ag     Ir                     
                                             
                                             
                                             
                                             
                                             

Positions:
   0 Ag     0.000000    1.621936   10.000000    ( 0.0000,  0.0000,  0.0000)
   1 Ag     2.809275    1.621936   10.000000    ( 0.0000,  0.0000,  0.0000)
   2 Ir     5.618550    1.621936   10.000000    ( 0.0000,  0.0000,  0.0000)
   3 Ir     1.404638    4.054840   10.000000    ( 0.0000,  0.0000,  0.0000)
   4 Ir     4.213913    4.054840   10.000000    ( 0.0000,  0.0000,  0.0000)
   5 Ir     7.023188    4.054840   10.000000    ( 0.0000,  0.0000,  0.0000)
   6 Ir     2.809275    6.487743   10.000000    ( 0.0000,  0.0000,  0.0000)
   7 Ag     5.618550    6.487743   10.000000    ( 0.0000,  0.0000,  0.0000)
   8 Pt     8.427826    6.487743   10.000000    ( 0.0000,  0.0000,  0.0000)
   9 Ag     0.000000    0.000000   12.293764    ( 0.0000,  0.0000,  0.0000)
  10 Ir     2.809275    0.000000   12.293764    ( 0.0000,  0.0000,  0.0000)
  11 Ir     5.618550    0.000000   12.293764    ( 0.0000,  0.0000,  0.0000)
  12 Ir     1.404638    2.432904   12.293764    ( 0.0000,  0.0000,  0.0000)
  13 Ag     4.213913    2.432904   12.293764    ( 0.0000,  0.0000,  0.0000)
  14 Ag     7.023188    2.432904   12.293764    ( 0.0000,  0.0000,  0.0000)
  15 Pt     2.809275    4.865807   12.293764    ( 0.0000,  0.0000,  0.0000)
  16 Ru     5.618550    4.865807   12.293764    ( 0.0000,  0.0000,  0.0000)
  17 Ir     8.427826    4.865807   12.293764    ( 0.0000,  0.0000,  0.0000)
  18 Ir     1.442506    0.805416   14.589810    ( 0.0000,  0.0000,  0.0000)
  19 Pt     4.192996    0.735118   14.613986    ( 0.0000,  0.0000,  0.0000)
  20 Pt     7.037082    0.803509   14.642583    ( 0.0000,  0.0000,  0.0000)
  21 Ag     2.788217    3.267133   14.611756    ( 0.0000,  0.0000,  0.0000)
  22 Ag     5.618202    3.230295   14.633046    ( 0.0000,  0.0000,  0.0000)
  23 Ag     8.467536    3.241524   14.610809    ( 0.0000,  0.0000,  0.0000)
  24 Pt     4.239414    5.678310   14.608456    ( 0.0000,  0.0000,  0.0000)
  25 Ag     7.018701    5.618811   14.590048    ( 0.0000,  0.0000,  0.0000)
  26 Ir     9.813346    5.741099   14.535832    ( 0.0000,  0.0000,  0.0000)
  27 Ru     0.096674    1.642068   16.938972    ( 0.0000,  0.0000,  0.0000)
  28 Ir     2.753616    1.613997   16.918573    ( 0.0000,  0.0000,  0.0000)
  29 Ir     5.555944    1.601805   16.884848    ( 0.0000,  0.0000,  0.0000)
  30 Ir     1.364740    3.999619   17.031211    ( 0.0000,  0.0000,  0.0000)
  31 Ir     4.213671    3.999893   16.933122    ( 0.0000,  0.0000,  0.0000)
  32 Pt     7.107290    4.069776   17.005845    ( 0.0000,  0.0000,  0.0000)
  33 Ag     2.760912    6.469078   16.795600    ( 0.0000,  0.0000,  0.0000)
  34 Ir     5.651532    6.532891   16.874338    ( 0.0000,  0.0000,  0.0000)
  35 Ru     8.401774    6.474390   16.870532    ( 0.0000,  0.0000,  0.0000)
  36 Ir     0.002140   -0.031924   18.991654    ( 0.0000,  0.0000,  0.0000)
  37 Ir     2.790290    0.019207   18.958605    ( 0.0000,  0.0000,  0.0000)
  38 Pt     5.614247   -0.056064   19.136540    ( 0.0000,  0.0000,  0.0000)
  39 Ag     1.412484    2.418951   19.551711    ( 0.0000,  0.0000,  0.0000)
  40 Ir     4.209291    2.381814   19.009923    ( 0.0000,  0.0000,  0.0000)
  41 Pt     6.969341    2.288795   19.118235    ( 0.0000,  0.0000,  0.0000)
  42 Ir     2.863910    4.876281   19.035290    ( 0.0000,  0.0000,  0.0000)
  43 Ir     5.575898    4.944127   19.413310    ( 0.0000,  0.0000,  0.0000)
  44 Ag     8.416128    4.869611   19.538000    ( 0.0000,  0.0000,  0.0000)
  45 O      5.588814    5.002209   21.314037    ( 0.0000,  0.0000,  0.0000)
  46 H      6.114836    5.549623   21.853168    ( 0.0000,  0.0000,  0.0000)

Unit cell:
           periodic     x           y           z      points  spacing
  1. axis:    yes    8.445283    0.000000    0.000000    35     0.2090
  2. axis:    yes    4.222641    7.313829    0.000000    35     0.2090
  3. axis:    no     0.000000    0.000000   29.175054   135     0.2161

  Lengths:   8.445283   8.445283  29.175054
  Angles:   90.000000  90.000000  60.000000

Effective grid spacing dv^(1/3) = 0.2217

                     log10-error:    total        iterations:
           time      wfs    density  energy       fermi  poisson
iter:   1  20:53:57  -1.83   +inf  -272.503832    4             
iter:   2  20:54:52  -2.12  -2.01  -271.572736    36            
iter:   3  20:55:48  -2.24  -1.91  -271.375489    37            
iter:   4  20:56:44  -2.53  -1.97  -278.332748    3             
iter:   5  20:57:39  -2.89  -1.62  -268.686116    3             
iter:   6  20:58:34  -3.91  -2.57  -268.589583    3             
iter:   7  20:59:25  -3.90  -2.73  -268.534518    3             
iter:   8  21:00:11  -3.87  -2.76  -268.518365    2             
iter:   9  21:00:57  -3.92  -2.69  -268.485482    3             
iter:  10  21:01:42  -4.04  -2.91  -268.497575    3             
iter:  11  21:02:28  -4.36  -2.82  -268.546826    3             
iter:  12  21:03:14  -4.68  -2.58  -268.451818    3             
iter:  13  21:04:00  -5.30  -3.18  -268.450086    2             
iter:  14  21:04:46  -5.73  -3.29  -268.448926    2             
iter:  15  21:05:31  -5.13  -3.35  -268.452393    2             
iter:  16  21:06:17  -5.41  -3.33  -268.450922    3             
iter:  17  21:07:03  -5.31  -3.37  -268.459005    3             
iter:  18  21:07:56  -5.17  -2.99  -268.449983    2             
iter:  19  21:08:52  -5.63  -3.52  -268.449447    2             
iter:  20  21:09:50  -6.17  -3.65  -268.448627    2             
iter:  21  21:10:49  -6.68  -3.85  -268.448636    2             
iter:  22  21:11:48  -6.04  -3.92  -268.448075    2             
iter:  23  21:12:47  -6.76  -3.87  -268.448890    2             
iter:  24  21:13:44  -6.99  -3.91  -268.448003    2             
iter:  25  21:14:43  -6.90  -3.97  -268.448169    2             
iter:  26  21:15:42  -6.62  -4.16  -268.448468    2             
iter:  27  21:16:40  -7.20  -4.23  -268.448508    2             
iter:  28  21:17:39  -7.44  -4.25  -268.448274    2             

Converged after 28 iterations.

Dipole moment: (25.069675, 15.467750, 0.130389) |e|*Ang

Energy contributions relative to reference atoms: (reference = -16429291.423757)

Kinetic:       -154.326340
Potential:      +96.867893
External:        +0.000000
XC:            -203.571872
Entropy (-ST):   -2.139245
Local:           -6.348332
--------------------------
Free energy:   -269.517897
Extrapolated:  -268.448274

Fermi level: 1.41221

Showing only first 2 kpts
 Kpt  Band  Eigenvalues  Occupancy
  0   357      1.37808    0.14612
  0   358      1.41640    0.12238
  0   359      1.45111    0.10099
  0   360      1.47082    0.08938

  1   357      1.29555    0.19063
  1   358      1.33401    0.17153
  1   359      1.34940    0.16302
  1   360      1.36845    0.15192



Forces in eV/Ang:
  0 Ag   -0.41522    0.16427   -1.04676
  1 Ag    0.24904    0.23170   -0.85823
  2 Ir    0.49398   -0.17071    0.02666
  3 Ir   -0.11607    1.21433    1.35104
  4 Ir    0.39723    0.39555    0.87278
  5 Ir   -0.32294   -0.02993    1.21916
  6 Ir   -1.70584   -0.50413    0.74439
  7 Ag   -0.12317   -0.34266   -0.95429
  8 Pt    1.06187   -0.39103    0.48339
  9 Ag    0.12520    0.00411    0.18326
 10 Ir    0.00537   -0.46446    0.98814
 11 Ir   -0.65090   -0.78122   -0.48359
 12 Ir    0.39810    0.14401    0.24720
 13 Ag   -0.00501   -0.02645    0.17069
 14 Ag    0.05280    0.07674    0.15377
 15 Pt   -0.13526   -0.02799   -0.61448
 16 Ru    0.63260    0.48504   -1.36215
 17 Ir    0.11203    0.32620   -1.26949
 18 Ir    0.01330   -0.06425    0.11271
 19 Pt   -0.01020   -0.05854    0.00062
 20 Pt    0.02379    0.00466   -0.02545
 21 Ag    0.02846   -0.03996    0.06645
 22 Ag    0.02073   -0.00764   -0.04827
 23 Ag   -0.03120   -0.01160    0.09707
 24 Pt    0.04614   -0.02329   -0.04708
 25 Ag    0.01896    0.08059    0.01635
 26 Ir   -0.03043    0.05519   -0.04292
 27 Ru    0.03010    0.02313   -0.06546
 28 Ir   -0.09666    0.16695   -0.37652
 29 Ir   -0.04462    0.07916   -0.04784
 30 Ir   -0.00945   -0.04398   -0.02198
 31 Ir    0.48563    0.25543    0.76638
 32 Pt   -0.37767    0.13254    0.36678
 33 Ag   -0.03551   -0.02516    0.10835
 34 Ir    0.06813   -0.43521    0.00575
 35 Ru   -0.02421   -0.10327   -0.03517
 36 Ir    0.08483   -0.40776    0.05119
 37 Ir   -0.04680   -0.26718    0.47176
 38 Pt    0.02469   -0.08488   -0.02599
 39 Ag   -0.09744    0.05266    0.14376
 40 Ir    0.06130    0.16347   -0.02170
 41 Pt   -0.04484    0.08734    0.00456
 42 Ir    0.52969   -0.00307   -0.14416
 43 Ir   -0.60312    0.52234   -2.07521
 44 Ag    0.11856    0.00715   -0.08414
 45 O    -2.16433   -2.27966   -0.03749
 46 H     1.84513    1.92842    1.15492

System changes: positions 

Initializing position-dependent things.

Density initialized from wave functions
                                             
                                             
                                             
                                             
                          H                  
                        O                    
                                             
                                             
                        Ir     Ag            
            Ag    Ir                         
                  AIr     Pt    Ru           
                                             
       Ir    IIr    IPt    Pt                
         Ru    Ir     Ir                     
                     Pt     Ag     Ir        
                Ag     Ag     Ag             
                                             
           Ir    PPt    RPt    Ir            
                                             
            Ir    IAg    AAg    Pt           
       Ag    IIr    IIr    Ir                
                                             
        Ag     Ag     Ir                     
                                             
                                             
                                             
                                             
                                             

Positions:
   0 Ag     0.000000    1.621936   10.000000    ( 0.0000,  0.0000,  0.0000)
   1 Ag     2.809275    1.621936   10.000000    ( 0.0000,  0.0000,  0.0000)
   2 Ir     5.618550    1.621936   10.000000    ( 0.0000,  0.0000,  0.0000)
   3 Ir     1.404638    4.054840   10.000000    ( 0.0000,  0.0000,  0.0000)
   4 Ir     4.213913    4.054840   10.000000    ( 0.0000,  0.0000,  0.0000)
   5 Ir     7.023188    4.054840   10.000000    ( 0.0000,  0.0000,  0.0000)
   6 Ir     2.809275    6.487743   10.000000    ( 0.0000,  0.0000,  0.0000)
   7 Ag     5.618550    6.487743   10.000000    ( 0.0000,  0.0000,  0.0000)
   8 Pt     8.427826    6.487743   10.000000    ( 0.0000,  0.0000,  0.0000)
   9 Ag     0.000000    0.000000   12.293764    ( 0.0000,  0.0000,  0.0000)
  10 Ir     2.809275    0.000000   12.293764    ( 0.0000,  0.0000,  0.0000)
  11 Ir     5.618550    0.000000   12.293764    ( 0.0000,  0.0000,  0.0000)
  12 Ir     1.404638    2.432904   12.293764    ( 0.0000,  0.0000,  0.0000)
  13 Ag     4.213913    2.432904   12.293764    ( 0.0000,  0.0000,  0.0000)
  14 Ag     7.023188    2.432904   12.293764    ( 0.0000,  0.0000,  0.0000)
  15 Pt     2.809275    4.865807   12.293764    ( 0.0000,  0.0000,  0.0000)
  16 Ru     5.618550    4.865807   12.293764    ( 0.0000,  0.0000,  0.0000)
  17 Ir     8.427826    4.865807   12.293764    ( 0.0000,  0.0000,  0.0000)
  18 Ir     1.442260    0.801363   14.590784    ( 0.0000,  0.0000,  0.0000)
  19 Pt     4.193133    0.733628   14.613198    ( 0.0000,  0.0000,  0.0000)
  20 Pt     7.036442    0.803534   14.640379    ( 0.0000,  0.0000,  0.0000)
  21 Ag     2.788602    3.267110   14.610721    ( 0.0000,  0.0000,  0.0000)
  22 Ag     5.617052    3.230386   14.632097    ( 0.0000,  0.0000,  0.0000)
  23 Ag     8.466749    3.240917   14.609993    ( 0.0000,  0.0000,  0.0000)
  24 Pt     4.238795    5.677446   14.605971    ( 0.0000,  0.0000,  0.0000)
  25 Ag     7.019151    5.620463   14.589733    ( 0.0000,  0.0000,  0.0000)
  26 Ir     9.812481    5.743349   14.535422    ( 0.0000,  0.0000,  0.0000)
  27 Ru     0.094420    1.645967   16.935199    ( 0.0000,  0.0000,  0.0000)
  28 Ir     2.751377    1.617903   16.906267    ( 0.0000,  0.0000,  0.0000)
  29 Ir     5.554782    1.600679   16.886090    ( 0.0000,  0.0000,  0.0000)
  30 Ir     1.363054    4.001803   17.026112    ( 0.0000,  0.0000,  0.0000)
  31 Ir     4.209325    3.993661   16.940090    ( 0.0000,  0.0000,  0.0000)
  32 Pt     7.112419    4.065940   17.003743    ( 0.0000,  0.0000,  0.0000)
  33 Ag     2.760565    6.470710   16.797539    ( 0.0000,  0.0000,  0.0000)
  34 Ir     5.654971    6.541502   16.871414    ( 0.0000,  0.0000,  0.0000)
  35 Ru     8.401151    6.476853   16.869424    ( 0.0000,  0.0000,  0.0000)
  36 Ir     0.006029   -0.038701   18.993497    ( 0.0000,  0.0000,  0.0000)
  37 Ir     2.786428    0.006643   18.965944    ( 0.0000,  0.0000,  0.0000)
  38 Pt     5.617005   -0.054993   19.135349    ( 0.0000,  0.0000,  0.0000)
  39 Ag     1.412117    2.420538   19.551295    ( 0.0000,  0.0000,  0.0000)
  40 Ir     4.214715    2.387870   19.012372    ( 0.0000,  0.0000,  0.0000)
  41 Pt     6.967990    2.295870   19.121151    ( 0.0000,  0.0000,  0.0000)
  42 Ir     2.879966    4.878817   19.037700    ( 0.0000,  0.0000,  0.0000)
  43 Ir     5.561458    4.945752   19.303742    ( 0.0000,  0.0000,  0.0000)
  44 Ag     8.413564    4.871560   19.537391    ( 0.0000,  0.0000,  0.0000)
  45 O      5.570712    4.987367   21.381000    ( 0.0000,  0.0000,  0.0000)
  46 H      6.131881    5.563865   21.880688    ( 0.0000,  0.0000,  0.0000)

Unit cell:
           periodic     x           y           z      points  spacing
  1. axis:    yes    8.445283    0.000000    0.000000    35     0.2090
  2. axis:    yes    4.222641    7.313829    0.000000    35     0.2090
  3. axis:    no     0.000000    0.000000   29.175054   135     0.2161

  Lengths:   8.445283   8.445283  29.175054
  Angles:   90.000000  90.000000  60.000000

Effective grid spacing dv^(1/3) = 0.2217

                     log10-error:    total        iterations:
           time      wfs    density  energy       fermi  poisson
iter:   1  21:19:06  -2.10   +inf  -270.996842    3             
iter:   2  21:20:05  -2.07  -2.06  -297.227358    3             
iter:   3  21:21:04  -2.20  -1.47  -270.858933    3             
iter:   4  21:22:03  -3.14  -1.97  -269.236252    3             
iter:   5  21:23:01  -3.36  -2.39  -268.770959    3             
iter:   6  21:23:56  -3.79  -2.69  -268.702790    3             
iter:   7  21:24:54  -4.39  -2.80  -268.671030    2             
iter:   8  21:25:49  -4.65  -2.94  -268.665757    3             
iter:   9  21:26:44  -4.20  -2.94  -268.743168    3             
iter:  10  21:27:40  -4.39  -2.58  -268.667571    3             
iter:  11  21:28:39  -4.68  -2.84  -268.643305    3             
iter:  12  21:29:41  -5.00  -3.07  -268.632742    3             
iter:  13  21:30:49  -5.33  -3.27  -268.630194    3             
iter:  14  21:31:56  -5.96  -3.51  -268.629584    2             
iter:  15  21:33:04  -5.88  -3.60  -268.629138    2             
iter:  16  21:34:10  -5.69  -3.75  -268.629957    3             
iter:  17  21:35:18  -6.23  -3.71  -268.628892    2             
iter:  18  21:36:14  -6.40  -3.65  -268.630153    2             
iter:  19  21:37:08  -6.60  -3.69  -268.630134    2             
iter:  20  21:38:02  -6.42  -3.75  -268.629354    2             
iter:  21  21:38:57  -6.75  -3.98  -268.629090    2             
iter:  22  21:39:56  -7.29  -4.24  -268.629209    2             
iter:  23  21:40:56  -7.25  -4.23  -268.628765    2             
iter:  24  21:41:54  -7.59  -4.10  -268.629097    2             

Converged after 24 iterations.

Dipole moment: (24.592219, 16.398116, -0.036407) |e|*Ang

Energy contributions relative to reference atoms: (reference = -16429291.423757)

Kinetic:       -160.182296
Potential:     +101.739487
External:        +0.000000
XC:            -202.777231
Entropy (-ST):   -2.128504
Local:           -6.344805
--------------------------
Free energy:   -269.693349
Extrapolated:  -268.629097

Fermi level: 1.33615

Showing only first 2 kpts
 Kpt  Band  Eigenvalues  Occupancy
  0   357      1.29689    0.14922
  0   358      1.33816    0.12374
  0   359      1.37555    0.10069
  0   360      1.40281    0.08481

  1   357      1.21110    0.19434
  1   358      1.25421    0.17352
  1   359      1.27161    0.16399
  1   360      1.29539    0.15013



Forces in eV/Ang:
  0 Ag   -0.41648    0.16210   -1.04764
  1 Ag    0.25022    0.23012   -0.85888
  2 Ir    0.49643   -0.17060    0.02919
  3 Ir   -0.11367    1.22187    1.37041
  4 Ir    0.40184    0.39645    0.87747
  5 Ir   -0.32538   -0.03204    1.22124
  6 Ir   -1.71269   -0.50522    0.74335
  7 Ag   -0.12370   -0.34233   -0.95427
  8 Pt    1.06686   -0.39102    0.48378
  9 Ag    0.12834    0.00861    0.17868
 10 Ir   -0.00418   -0.45463    0.98418
 11 Ir   -0.64687   -0.77881   -0.49747
 12 Ir    0.39006    0.14653    0.22125
 13 Ag   -0.00615   -0.02745    0.16634
 14 Ag    0.05319    0.07904    0.14925
 15 Pt   -0.13818   -0.03276   -0.61298
 16 Ru    0.63373    0.48003   -1.36285
 17 Ir    0.11328    0.31686   -1.27369
 18 Ir    0.00934   -0.02928    0.08442
 19 Pt   -0.00830   -0.03253    0.00787
 20 Pt    0.01948    0.00570   -0.00751
 21 Ag    0.02312   -0.02883    0.05971
 22 Ag    0.02100   -0.00618   -0.02723
 23 Ag   -0.02169   -0.00647    0.07877
 24 Pt    0.03656   -0.01298   -0.01350
 25 Ag    0.00869    0.04762    0.01518
 26 Ir   -0.01465    0.02874   -0.02356
 27 Ru    0.02684   -0.00920   -0.01410
 28 Ir   -0.04253    0.08401   -0.17079
 29 Ir   -0.02648    0.07035   -0.03723
 30 Ir    0.01394   -0.03733    0.00985
 31 Ir    0.46396    0.29046    0.67400
 32 Pt   -0.34653    0.14016    0.35844
 33 Ag   -0.02573   -0.02823    0.06517
 34 Ir    0.01464   -0.44143    0.11050
 35 Ru   -0.01326   -0.09548   -0.01969
 36 Ir    0.02967   -0.26500    0.01765
 37 Ir   -0.02178   -0.12697    0.28176
 38 Pt    0.00981   -0.06281    0.00668
 39 Ag   -0.06810    0.03230    0.11751
 40 Ir    0.04189    0.11247   -0.00937
 41 Pt   -0.03932    0.02242   -0.02142
 42 Ir    0.32607   -0.01490   -0.10928
 43 Ir   -0.38872    0.39400    0.17720
 44 Ag    0.10246   -0.00260   -0.06078
 45 O    -1.57190   -1.69697   -1.81362
 46 H     1.34429    1.40296    0.51242

System changes: positions 

Initializing position-dependent things.

Density initialized from wave functions
                                            
                                            
                                            
                                            
                         H                  
                        O                   
                                            
                        Ir     Ag           
                 Ir                         
            Ag     Ir    IPt                
                  Ag           Ru           
       Ir    IIr    IPt    Pt               
        Ru     Ir     Ir                    
                     Pt     Ag     Ir       
                Ag     Ag     Ag            
           Ir     Pt     Pt                 
                 Pt     Ru     Ir           
            Ir     Ag     Ag                
                  Ir     Ag     Pt          
       Ag    IIr    IIr    Ir               
                                            
        Ag     Ag     Ir                    
                                            
                                            
                                            
                                            

Positions:
   0 Ag     0.000000    1.621936   10.000000    ( 0.0000,  0.0000,  0.0000)
   1 Ag     2.809275    1.621936   10.000000    ( 0.0000,  0.0000,  0.0000)
   2 Ir     5.618550    1.621936   10.000000    ( 0.0000,  0.0000,  0.0000)
   3 Ir     1.404638    4.054840   10.000000    ( 0.0000,  0.0000,  0.0000)
   4 Ir     4.213913    4.054840   10.000000    ( 0.0000,  0.0000,  0.0000)
   5 Ir     7.023188    4.054840   10.000000    ( 0.0000,  0.0000,  0.0000)
   6 Ir     2.809275    6.487743   10.000000    ( 0.0000,  0.0000,  0.0000)
   7 Ag     5.618550    6.487743   10.000000    ( 0.0000,  0.0000,  0.0000)
   8 Pt     8.427826    6.487743   10.000000    ( 0.0000,  0.0000,  0.0000)
   9 Ag     0.000000    0.000000   12.293764    ( 0.0000,  0.0000,  0.0000)
  10 Ir     2.809275    0.000000   12.293764    ( 0.0000,  0.0000,  0.0000)
  11 Ir     5.618550    0.000000   12.293764    ( 0.0000,  0.0000,  0.0000)
  12 Ir     1.404638    2.432904   12.293764    ( 0.0000,  0.0000,  0.0000)
  13 Ag     4.213913    2.432904   12.293764    ( 0.0000,  0.0000,  0.0000)
  14 Ag     7.023188    2.432904   12.293764    ( 0.0000,  0.0000,  0.0000)
  15 Pt     2.809275    4.865807   12.293764    ( 0.0000,  0.0000,  0.0000)
  16 Ru     5.618550    4.865807   12.293764    ( 0.0000,  0.0000,  0.0000)
  17 Ir     8.427826    4.865807   12.293764    ( 0.0000,  0.0000,  0.0000)
  18 Ir     1.443076    0.807083   14.592672    ( 0.0000,  0.0000,  0.0000)
  19 Pt     4.192547    0.734813   14.614883    ( 0.0000,  0.0000,  0.0000)
  20 Pt     7.038362    0.803731   14.643843    ( 0.0000,  0.0000,  0.0000)
  21 Ag     2.788917    3.265935   14.615016    ( 0.0000,  0.0000,  0.0000)
  22 Ag     5.619912    3.229969   14.632576    ( 0.0000,  0.0000,  0.0000)
  23 Ag     8.467185    3.241686   14.614716    ( 0.0000,  0.0000,  0.0000)
  24 Pt     4.241399    5.678381   14.609666    ( 0.0000,  0.0000,  0.0000)
  25 Ag     7.018745    5.619637   14.590913    ( 0.0000,  0.0000,  0.0000)
  26 Ir     9.813347    5.740700   14.535132    ( 0.0000,  0.0000,  0.0000)
  27 Ru     0.099419    1.638889   16.941078    ( 0.0000,  0.0000,  0.0000)
  28 Ir     2.753426    1.614743   16.920180    ( 0.0000,  0.0000,  0.0000)
  29 Ir     5.555659    1.605577   16.882388    ( 0.0000,  0.0000,  0.0000)
  30 Ir     1.366535    3.996481   17.035277    ( 0.0000,  0.0000,  0.0000)
  31 Ir     4.236351    4.016605   16.956559    ( 0.0000,  0.0000,  0.0000)
  32 Pt     7.089003    4.078434   17.022468    ( 0.0000,  0.0000,  0.0000)
  33 Ag     2.760075    6.466719   16.796960    ( 0.0000,  0.0000,  0.0000)
  34 Ir     5.649688    6.508108   16.881092    ( 0.0000,  0.0000,  0.0000)
  35 Ru     8.401662    6.468600   16.870494    ( 0.0000,  0.0000,  0.0000)
  36 Ir     0.000607   -0.038249   18.991079    ( 0.0000,  0.0000,  0.0000)
  37 Ir     2.792136    0.022847   18.965234    ( 0.0000,  0.0000,  0.0000)
  38 Pt     5.612687   -0.059480   19.137674    ( 0.0000,  0.0000,  0.0000)
  39 Ag     1.409874    2.419177   19.556965    ( 0.0000,  0.0000,  0.0000)
  40 Ir     4.207174    2.382222   19.007774    ( 0.0000,  0.0000,  0.0000)
  41 Pt     6.968649    2.284675   19.115244    ( 0.0000,  0.0000,  0.0000)
  42 Ir     2.866168    4.873838   19.028956    ( 0.0000,  0.0000,  0.0000)
  43 Ir     5.569842    4.959581   19.499228    ( 0.0000,  0.0000,  0.0000)
  44 Ag     8.422285    4.868107   19.535873    ( 0.0000,  0.0000,  0.0000)
  45 O      5.535478    4.941262   21.189603    ( 0.0000,  0.0000,  0.0000)
  46 H      6.159330    5.598599   21.855077    ( 0.0000,  0.0000,  0.0000)

Unit cell:
           periodic     x           y           z      points  spacing
  1. axis:    yes    8.445283    0.000000    0.000000    35     0.2090
  2. axis:    yes    4.222641    7.313829    0.000000    35     0.2090
  3. axis:    no     0.000000    0.000000   29.175054   135     0.2161

  Lengths:   8.445283   8.445283  29.175054
  Angles:   90.000000  90.000000  60.000000

Effective grid spacing dv^(1/3) = 0.2217

                     log10-error:    total        iterations:
           time      wfs    density  energy       fermi  poisson
iter:   1  21:43:21  -1.59   +inf  -272.349100    37            
iter:   2  21:44:19  -1.34  -1.78  -369.318805    38            
iter:   3  21:45:18  -1.76  -1.24  -270.247022    37            
iter:   4  21:46:16  -2.57  -1.94  -268.012616    4             
iter:   5  21:47:15  -3.36  -2.35  -267.958366    3             
iter:   6  21:48:13  -3.72  -2.27  -267.660092    3             
iter:   7  21:49:10  -3.48  -2.57  -267.578386    3             
iter:   8  21:50:08  -3.50  -2.50  -267.434877    3             
iter:   9  21:51:06  -3.88  -2.90  -267.437910    3             
iter:  10  21:52:03  -4.17  -2.77  -267.452374    3             
iter:  11  21:53:00  -4.50  -2.76  -267.415415    3             
iter:  12  21:53:56  -4.55  -2.86  -267.423043    3             
iter:  13  21:54:50  -5.04  -2.91  -267.400060    3             
iter:  14  21:55:44  -5.39  -3.27  -267.401495    3             
iter:  15  21:56:38  -5.78  -3.23  -267.398368    2             
iter:  16  21:57:33  -5.55  -3.36  -267.399878    2             
iter:  17  21:58:28  -5.18  -3.34  -267.403141    3             
iter:  18  21:59:23  -5.57  -3.06  -267.396787    2             
iter:  19  22:00:19  -6.04  -3.57  -267.395491    2             
iter:  20  22:01:14  -6.28  -3.74  -267.396186    2             
iter:  21  22:02:08  -6.25  -3.75  -267.395205    2             
iter:  22  22:03:13  -6.30  -3.81  -267.395624    2             
iter:  23  22:04:20  -6.16  -4.00  -267.395389    2             
iter:  24  22:05:27  -6.27  -3.51  -267.396704    2             
iter:  25  22:06:33  -6.47  -3.74  -267.395392    2             
iter:  26  22:07:41  -6.49  -3.95  -267.395754    2             
iter:  27  22:08:48  -6.81  -4.02  -267.395124    2             
iter:  28  22:09:56  -7.35  -4.10  -267.395311    2             
iter:  29  22:11:04  -7.30  -4.26  -267.395109    2             
iter:  30  22:12:11  -6.95  -4.09  -267.396242    2             
iter:  31  22:13:19  -6.95  -3.89  -267.395286    2             
iter:  32  22:14:26  -7.43  -4.27  -267.395436    2             

Converged after 32 iterations.

Dipole moment: (24.924142, 15.348203, 0.336941) |e|*Ang

Energy contributions relative to reference atoms: (reference = -16429291.423757)

Kinetic:       -142.554391
Potential:      +86.089428
External:        +0.000000
XC:            -203.376360
Entropy (-ST):   -2.142716
Local:           -6.482755
--------------------------
Free energy:   -268.466794
Extrapolated:  -267.395436

Fermi level: 1.51356

Showing only first 2 kpts
 Kpt  Band  Eigenvalues  Occupancy
  0   357      1.49193    0.13847
  0   358      1.52464    0.11808
  0   359      1.54751    0.10398
  0   360      1.57123    0.08993

  1   357      1.40093    0.18879
  1   358      1.43986    0.16908
  1   359      1.45800    0.15886
  1   360      1.46928    0.15223



Forces in eV/Ang:
  0 Ag   -0.41319    0.16384   -1.04244
  1 Ag    0.24676    0.23103   -0.85578
  2 Ir    0.49315   -0.16738    0.03357
  3 Ir   -0.11813    1.20783    1.35784
  4 Ir    0.39752    0.39438    0.87866
  5 Ir   -0.32383   -0.03163    1.22398
  6 Ir   -1.70176   -0.50627    0.75086
  7 Ag   -0.12275   -0.34050   -0.95291
  8 Pt    1.05836   -0.39079    0.48999
  9 Ag    0.12803    0.00403    0.19371
 10 Ir    0.00500   -0.46991    0.99127
 11 Ir   -0.65111   -0.77847   -0.47139
 12 Ir    0.40754    0.13152    0.27833
 13 Ag   -0.00767   -0.02539    0.18046
 14 Ag    0.05781    0.07683    0.16188
 15 Pt   -0.13041   -0.02790   -0.60136
 16 Ru    0.63249    0.48879   -1.35858
 17 Ir    0.10564    0.32853   -1.25352
 18 Ir    0.00739   -0.07037    0.11805
 19 Pt   -0.01170   -0.04888    0.00903
 20 Pt    0.02587   -0.00859   -0.01325
 21 Ag    0.06623    0.00446    0.11384
 22 Ag   -0.00424    0.00903   -0.02630
 23 Ag   -0.04279    0.00353    0.11648
 24 Pt    0.02487   -0.02916   -0.07387
 25 Ag    0.02563    0.06374    0.00765
 26 Ir   -0.02318    0.05228   -0.02905
 27 Ru    0.06553    0.02259   -0.11841
 28 Ir   -0.12372    0.14605   -0.42324
 29 Ir   -0.05977    0.03063   -0.05096
 30 Ir   -0.07080   -0.06351   -0.05944
 31 Ir    0.41225    0.12104    0.39619
 32 Pt   -0.26798    0.09807    0.27491
 33 Ag   -0.05760    0.01006    0.06390
 34 Ir    0.11874   -0.23156   -0.09146
 35 Ru   -0.02918   -0.04557   -0.01564
 36 Ir    0.11359   -0.38118    0.06271
 37 Ir   -0.04711   -0.23358    0.41767
 38 Pt    0.00872   -0.06425   -0.02608
 39 Ag   -0.09807    0.03054    0.13956
 40 Ir   -0.00885    0.04624    0.01495
 41 Pt    0.01099    0.03865    0.04918
 42 Ir    0.38527    0.02049   -0.07921
 43 Ir   -0.46895    0.59649   -8.82103
 44 Ag    0.11480    0.01827   -0.10929
 45 O     1.63233    1.45586   10.33404
 46 H    -1.67699   -1.76859   -2.17409

System changes: positions 

Initializing position-dependent things.

Density initialized from wave functions
                                             
                                             
                                             
                                             
                          H                  
                                             
                        O                    
                                             
                        Ir     Ag            
            Ag    Ir                         
                  AIr     Pt    Ru           
                                             
       Ir    IIr    IPt    Pt                
         Ru    Ir     Ir                     
                     Pt     Ag     Ir        
                Ag     Ag     Ag             
                                             
           Ir    PPt    RPt    Ir            
                                             
            Ir    IAg    AAg    Pt           
       Ag    IIr    IIr    Ir                
                                             
        Ag     Ag     Ir                     
                                             
                                             
                                             
                                             
                                             

Positions:
   0 Ag     0.000000    1.621936   10.000000    ( 0.0000,  0.0000,  0.0000)
   1 Ag     2.809275    1.621936   10.000000    ( 0.0000,  0.0000,  0.0000)
   2 Ir     5.618550    1.621936   10.000000    ( 0.0000,  0.0000,  0.0000)
   3 Ir     1.404638    4.054840   10.000000    ( 0.0000,  0.0000,  0.0000)
   4 Ir     4.213913    4.054840   10.000000    ( 0.0000,  0.0000,  0.0000)
   5 Ir     7.023188    4.054840   10.000000    ( 0.0000,  0.0000,  0.0000)
   6 Ir     2.809275    6.487743   10.000000    ( 0.0000,  0.0000,  0.0000)
   7 Ag     5.618550    6.487743   10.000000    ( 0.0000,  0.0000,  0.0000)
   8 Pt     8.427826    6.487743   10.000000    ( 0.0000,  0.0000,  0.0000)
   9 Ag     0.000000    0.000000   12.293764    ( 0.0000,  0.0000,  0.0000)
  10 Ir     2.809275    0.000000   12.293764    ( 0.0000,  0.0000,  0.0000)
  11 Ir     5.618550    0.000000   12.293764    ( 0.0000,  0.0000,  0.0000)
  12 Ir     1.404638    2.432904   12.293764    ( 0.0000,  0.0000,  0.0000)
  13 Ag     4.213913    2.432904   12.293764    ( 0.0000,  0.0000,  0.0000)
  14 Ag     7.023188    2.432904   12.293764    ( 0.0000,  0.0000,  0.0000)
  15 Pt     2.809275    4.865807   12.293764    ( 0.0000,  0.0000,  0.0000)
  16 Ru     5.618550    4.865807   12.293764    ( 0.0000,  0.0000,  0.0000)
  17 Ir     8.427826    4.865807   12.293764    ( 0.0000,  0.0000,  0.0000)
  18 Ir     1.442426    0.802524   14.591168    ( 0.0000,  0.0000,  0.0000)
  19 Pt     4.193014    0.733869   14.613540    ( 0.0000,  0.0000,  0.0000)
  20 Pt     7.036832    0.803574   14.641083    ( 0.0000,  0.0000,  0.0000)
  21 Ag     2.788666    3.266871   14.611593    ( 0.0000,  0.0000,  0.0000)
  22 Ag     5.617633    3.230301   14.632194    ( 0.0000,  0.0000,  0.0000)
  23 Ag     8.466837    3.241073   14.610952    ( 0.0000,  0.0000,  0.0000)
  24 Pt     4.239323    5.677636   14.606722    ( 0.0000,  0.0000,  0.0000)
  25 Ag     7.019068    5.620295   14.589973    ( 0.0000,  0.0000,  0.0000)
  26 Ir     9.812657    5.742811   14.535363    ( 0.0000,  0.0000,  0.0000)
  27 Ru     0.095435    1.644530   16.936393    ( 0.0000,  0.0000,  0.0000)
  28 Ir     2.751793    1.617262   16.909092    ( 0.0000,  0.0000,  0.0000)
  29 Ir     5.554960    1.601674   16.885338    ( 0.0000,  0.0000,  0.0000)
  30 Ir     1.363761    4.000723   17.027973    ( 0.0000,  0.0000,  0.0000)
  31 Ir     4.214813    3.998320   16.943435    ( 0.0000,  0.0000,  0.0000)
  32 Pt     7.107664    4.068477   17.007545    ( 0.0000,  0.0000,  0.0000)
  33 Ag     2.760466    6.469900   16.797422    ( 0.0000,  0.0000,  0.0000)
  34 Ir     5.653898    6.534721   16.873379    ( 0.0000,  0.0000,  0.0000)
  35 Ru     8.401255    6.475177   16.869641    ( 0.0000,  0.0000,  0.0000)
  36 Ir     0.004928   -0.038609   18.993006    ( 0.0000,  0.0000,  0.0000)
  37 Ir     2.787587    0.009934   18.965800    ( 0.0000,  0.0000,  0.0000)
  38 Pt     5.616128   -0.055904   19.135821    ( 0.0000,  0.0000,  0.0000)
  39 Ag     1.411661    2.420261   19.552446    ( 0.0000,  0.0000,  0.0000)
  40 Ir     4.213183    2.386723   19.011439    ( 0.0000,  0.0000,  0.0000)
  41 Pt     6.968124    2.293597   19.119951    ( 0.0000,  0.0000,  0.0000)
  42 Ir     2.877164    4.877806   19.035924    ( 0.0000,  0.0000,  0.0000)
  43 Ir     5.563160    4.948560   19.343437    ( 0.0000,  0.0000,  0.0000)
  44 Ag     8.415335    4.870858   19.537082    ( 0.0000,  0.0000,  0.0000)
  45 O      5.563557    4.978005   21.342135    ( 0.0000,  0.0000,  0.0000)
  46 H      6.137455    5.570918   21.875488    ( 0.0000,  0.0000,  0.0000)

Unit cell:
           periodic     x           y           z      points  spacing
  1. axis:    yes    8.445283    0.000000    0.000000    35     0.2090
  2. axis:    yes    4.222641    7.313829    0.000000    35     0.2090
  3. axis:    no     0.000000    0.000000   29.175054   135     0.2161

  Lengths:   8.445283   8.445283  29.175054
  Angles:   90.000000  90.000000  60.000000

Effective grid spacing dv^(1/3) = 0.2217

                     log10-error:    total        iterations:
           time      wfs    density  energy       fermi  poisson
iter:   1  22:16:03  -1.57   +inf  -272.655608    3             
iter:   2  22:17:11  -1.96  -2.02  -304.447998    3             
iter:   3  22:18:18  -2.07  -1.42  -272.187141    3             
iter:   4  22:19:25  -2.92  -1.89  -270.119991    3             
iter:   5  22:20:32  -2.88  -2.18  -269.074749    4             
iter:   6  22:21:40  -3.72  -2.57  -268.947417    3             
iter:   7  22:22:47  -3.52  -2.66  -268.809024    3             
iter:   8  22:23:54  -4.18  -2.76  -268.818970    3             
iter:   9  22:25:01  -3.90  -2.64  -269.142354    3             
iter:  10  22:26:09  -3.64  -2.29  -268.811784    3             
iter:  11  22:27:17  -3.93  -2.62  -268.726186    3             
iter:  12  22:28:25  -4.43  -2.89  -268.703335    3             
iter:  13  22:29:32  -4.97  -3.08  -268.700355    2             
iter:  14  22:30:39  -5.29  -3.14  -268.697530    2             
iter:  15  22:31:40  -4.68  -3.24  -268.761663    2             
iter:  16  22:32:38  -4.94  -2.66  -268.696834    2             
iter:  17  22:33:46  -5.61  -3.31  -268.694418    3             
iter:  18  22:34:55  -5.46  -3.41  -268.693461    2             
iter:  19  22:36:04  -5.67  -3.59  -268.693473    3             
iter:  20  22:37:11  -6.06  -3.70  -268.693483    2             
iter:  21  22:38:19  -6.33  -3.76  -268.693248    2             
iter:  22  22:39:24  -5.96  -3.67  -268.699636    2             
iter:  23  22:40:17  -6.00  -3.31  -268.694034    2             
iter:  24  22:41:12  -6.83  -3.88  -268.693712    2             
iter:  25  22:42:08  -6.60  -4.03  -268.693839    2             
iter:  26  22:43:02  -6.66  -4.03  -268.693516    2             
iter:  27  22:43:56  -7.28  -4.43  -268.693462    2             
iter:  28  22:44:49  -7.48  -4.51  -268.693957    2             

Converged after 28 iterations.

Dipole moment: (24.666234, 16.184508, 0.041099) |e|*Ang

Energy contributions relative to reference atoms: (reference = -16429291.423757)

Kinetic:       -159.612468
Potential:     +100.917358
External:        +0.000000
XC:            -202.601487
Entropy (-ST):   -2.131853
Local:           -6.331433
--------------------------
Free energy:   -269.759884
Extrapolated:  -268.693957

Fermi level: 1.37305

Showing only first 2 kpts
 Kpt  Band  Eigenvalues  Occupancy
  0   357      1.33616    0.14780
  0   358      1.37574    0.12332
  0   359      1.41245    0.10069
  0   360      1.43702    0.08633

  1   357      1.25146    0.19284
  1   358      1.29358    0.17221
  1   359      1.30913    0.16364
  1   360      1.33099    0.15091



Forces in eV/Ang:
  0 Ag   -0.41372    0.16213   -1.04536
  1 Ag    0.24796    0.22980   -0.85755
  2 Ir    0.49589   -0.17065    0.03475
  3 Ir   -0.11355    1.21750    1.37573
  4 Ir    0.39952    0.39660    0.88421
  5 Ir   -0.32399   -0.03172    1.22761
  6 Ir   -1.70929   -0.50569    0.75182
  7 Ag   -0.12329   -0.34078   -0.95172
  8 Pt    1.06246   -0.39012    0.48964
  9 Ag    0.12926    0.00837    0.18315
 10 Ir   -0.00254   -0.45801    0.98817
 11 Ir   -0.64809   -0.77932   -0.48775
 12 Ir    0.39388    0.14392    0.23939
 13 Ag   -0.00806   -0.02832    0.17353
 14 Ag    0.05539    0.07765    0.15588
 15 Pt   -0.13779   -0.03193   -0.60231
 16 Ru    0.63508    0.48316   -1.35756
 17 Ir    0.11257    0.32015   -1.26308
 18 Ir    0.00762   -0.04241    0.09625
 19 Pt   -0.00828   -0.03705    0.00954
 20 Pt    0.01923    0.00317   -0.00578
 21 Ag    0.03545   -0.01959    0.07379
 22 Ag    0.01504    0.00099   -0.01937
 23 Ag   -0.02870   -0.00245    0.08962
 24 Pt    0.03843   -0.01989   -0.01506
 25 Ag    0.01036    0.04923    0.01984
 26 Ir   -0.01837    0.03306   -0.02571
 27 Ru    0.03364   -0.00424   -0.01756
 28 Ir   -0.05696    0.09246   -0.19192
 29 Ir   -0.03607    0.05272   -0.03358
 30 Ir    0.00455   -0.04442    0.01421
 31 Ir    0.44444    0.25249    0.60283
 32 Pt   -0.32047    0.12555    0.33790
 33 Ag   -0.03649   -0.01704    0.06881
 34 Ir    0.03688   -0.39341    0.05819
 35 Ru   -0.01186   -0.07854   -0.01081
 36 Ir    0.04220   -0.26719    0.02133
 37 Ir   -0.02706   -0.14554    0.30625
 38 Pt    0.00764   -0.06225   -0.02919
 39 Ag   -0.07157    0.03186    0.10439
 40 Ir    0.02305    0.08788   -0.01516
 41 Pt   -0.02037    0.02347   -0.02333
 42 Ir    0.32278   -0.01282   -0.10555
 43 Ir   -0.40394    0.42794   -0.54049
 44 Ag    0.10339    0.00040   -0.07114
 45 O    -0.44402   -0.57254    0.07899
 46 H     0.26741    0.29368   -0.40577

System changes: positions 

Initializing position-dependent things.

Density initialized from wave functions
                                            
                                            
                                            
                                            
                         H                  
                        O                   
                                            
                        Ir     Ag           
                 Ir                         
            Ag     Ir    IPt   Ru           
                  Ag Pt                     
       Ir    IIr    Ir     Pt               
        Ru     Ir     Ir                    
                     Pt     Ag     Ir       
                Ag     Ag     Ag            
           Ir     Pt     Pt                 
                 Pt     Ru     Ir           
            Ir     Ag     Ag                
                  Ir     Ag     Pt          
       Ag    IIr    IIr    Ir               
                                            
        Ag     Ag     Ir                    
                                            
                                            
                                            
                                            

Positions:
   0 Ag     0.000000    1.621936   10.000000    ( 0.0000,  0.0000,  0.0000)
   1 Ag     2.809275    1.621936   10.000000    ( 0.0000,  0.0000,  0.0000)
   2 Ir     5.618550    1.621936   10.000000    ( 0.0000,  0.0000,  0.0000)
   3 Ir     1.404638    4.054840   10.000000    ( 0.0000,  0.0000,  0.0000)
   4 Ir     4.213913    4.054840   10.000000    ( 0.0000,  0.0000,  0.0000)
   5 Ir     7.023188    4.054840   10.000000    ( 0.0000,  0.0000,  0.0000)
   6 Ir     2.809275    6.487743   10.000000    ( 0.0000,  0.0000,  0.0000)
   7 Ag     5.618550    6.487743   10.000000    ( 0.0000,  0.0000,  0.0000)
   8 Pt     8.427826    6.487743   10.000000    ( 0.0000,  0.0000,  0.0000)
   9 Ag     0.000000    0.000000   12.293764    ( 0.0000,  0.0000,  0.0000)
  10 Ir     2.809275    0.000000   12.293764    ( 0.0000,  0.0000,  0.0000)
  11 Ir     5.618550    0.000000   12.293764    ( 0.0000,  0.0000,  0.0000)
  12 Ir     1.404638    2.432904   12.293764    ( 0.0000,  0.0000,  0.0000)
  13 Ag     4.213913    2.432904   12.293764    ( 0.0000,  0.0000,  0.0000)
  14 Ag     7.023188    2.432904   12.293764    ( 0.0000,  0.0000,  0.0000)
  15 Pt     2.809275    4.865807   12.293764    ( 0.0000,  0.0000,  0.0000)
  16 Ru     5.618550    4.865807   12.293764    ( 0.0000,  0.0000,  0.0000)
  17 Ir     8.427826    4.865807   12.293764    ( 0.0000,  0.0000,  0.0000)
  18 Ir     1.443175    0.800360   14.599334    ( 0.0000,  0.0000,  0.0000)
  19 Pt     4.192231    0.731198   14.614731    ( 0.0000,  0.0000,  0.0000)
  20 Pt     7.038783    0.803809   14.641532    ( 0.0000,  0.0000,  0.0000)
  21 Ag     2.791764    3.265284   14.618673    ( 0.0000,  0.0000,  0.0000)
  22 Ag     5.619361    3.230441   14.631001    ( 0.0000,  0.0000,  0.0000)
  23 Ag     8.464568    3.241167   14.619283    ( 0.0000,  0.0000,  0.0000)
  24 Pt     4.242974    5.676172   14.606435    ( 0.0000,  0.0000,  0.0000)
  25 Ag     7.019806    5.623927   14.591902    ( 0.0000,  0.0000,  0.0000)
  26 Ir     9.811367    5.744808   14.533258    ( 0.0000,  0.0000,  0.0000)
  27 Ru     0.099422    1.642570   16.936408    ( 0.0000,  0.0000,  0.0000)
  28 Ir     2.747570    1.623811   16.897229    ( 0.0000,  0.0000,  0.0000)
  29 Ir     5.552171    1.606542   16.881919    ( 0.0000,  0.0000,  0.0000)
  30 Ir     1.364754    3.995818   17.031433    ( 0.0000,  0.0000,  0.0000)
  31 Ir     4.255320    4.022583   16.992360    ( 0.0000,  0.0000,  0.0000)
  32 Pt     7.077764    4.080908   17.037761    ( 0.0000,  0.0000,  0.0000)
  33 Ag     2.757281    6.467860   16.802671    ( 0.0000,  0.0000,  0.0000)
  34 Ir     5.655955    6.497240   16.879045    ( 0.0000,  0.0000,  0.0000)
  35 Ru     8.400498    6.467473   16.869277    ( 0.0000,  0.0000,  0.0000)
  36 Ir     0.007136   -0.059163   18.994140    ( 0.0000,  0.0000,  0.0000)
  37 Ir     2.786786    0.002274   18.989820    ( 0.0000,  0.0000,  0.0000)
  38 Pt     5.615601   -0.061801   19.133312    ( 0.0000,  0.0000,  0.0000)
  39 Ag     1.405506    2.422374   19.561596    ( 0.0000,  0.0000,  0.0000)
  40 Ir     4.212664    2.391540   19.009000    ( 0.0000,  0.0000,  0.0000)
  41 Pt     6.967154    2.292670   19.116649    ( 0.0000,  0.0000,  0.0000)
  42 Ir     2.898586    4.875636   19.025709    ( 0.0000,  0.0000,  0.0000)
  43 Ir     5.533712    4.985775   19.333360    ( 0.0000,  0.0000,  0.0000)
  44 Ag     8.425485    4.870107   19.530979    ( 0.0000,  0.0000,  0.0000)
  45 O      5.546722    4.948493   21.344823    ( 0.0000,  0.0000,  0.0000)
  46 H      6.139922    5.576461   21.816599    ( 0.0000,  0.0000,  0.0000)

Unit cell:
           periodic     x           y           z      points  spacing
  1. axis:    yes    8.445283    0.000000    0.000000    35     0.2090
  2. axis:    yes    4.222641    7.313829    0.000000    35     0.2090
  3. axis:    no     0.000000    0.000000   29.175054   135     0.2161

  Lengths:   8.445283   8.445283  29.175054
  Angles:   90.000000  90.000000  60.000000

Effective grid spacing dv^(1/3) = 0.2217

                     log10-error:    total        iterations:
           time      wfs    density  energy       fermi  poisson
iter:   1  22:46:08  -2.15   +inf  -270.717844    3             
iter:   2  22:46:58  -2.27  -2.04  -275.872728    4             
iter:   3  22:47:44  -2.37  -1.76  -277.656198    3             
iter:   4  22:48:30  -2.89  -1.67  -268.990508    3             
iter:   5  22:49:16  -4.29  -2.57  -268.884824    2             
iter:   6  22:50:10  -4.16  -2.86  -268.861782    3             
iter:   7  22:51:06  -4.53  -2.90  -268.848042    3             
iter:   8  22:52:02  -4.41  -3.01  -268.834141    3             
iter:   9  22:52:58  -4.49  -3.13  -268.828535    2             
iter:  10  22:53:55  -4.83  -3.33  -268.845859    2             
iter:  11  22:54:51  -5.29  -2.99  -268.827584    2             
iter:  12  22:55:47  -5.43  -3.26  -268.827778    2             
iter:  13  22:56:43  -5.41  -3.48  -268.827867    3             
iter:  14  22:57:40  -5.92  -3.44  -268.826773    3             
iter:  15  22:58:46  -6.45  -3.63  -268.826964    2             
iter:  16  22:59:54  -6.18  -3.70  -268.828089    2             
iter:  17  23:01:03  -5.93  -3.63  -268.828662    2             
iter:  18  23:02:11  -6.18  -3.27  -268.826759    2             
iter:  19  23:03:20  -6.66  -3.87  -268.826632    2             
iter:  20  23:04:27  -6.19  -3.88  -268.826660    2             
iter:  21  23:05:33  -6.47  -3.91  -268.826748    2             
iter:  22  23:06:40  -6.85  -4.16  -268.826708    2             
iter:  23  23:07:47  -6.90  -4.21  -268.826111    2             
iter:  24  23:08:54  -6.82  -3.78  -268.826596    1             
iter:  25  23:10:01  -7.46  -4.36  -268.826547    2             

Converged after 25 iterations.

Dipole moment: (24.051886, 16.949537, 0.010735) |e|*Ang

Energy contributions relative to reference atoms: (reference = -16429291.423757)

Kinetic:       -157.679006
Potential:      +99.102946
External:        +0.000000
XC:            -202.855540
Entropy (-ST):   -2.125142
Local:           -6.332376
--------------------------
Free energy:   -269.889118
Extrapolated:  -268.826547

Fermi level: 1.35974

Showing only first 2 kpts
 Kpt  Band  Eigenvalues  Occupancy
  0   357      1.32863    0.14429
  0   358      1.35978    0.12498
  0   359      1.39840    0.10114
  0   360      1.43047    0.08255

  1   357      1.23747    0.19314
  1   358      1.28264    0.17094
  1   359      1.28963    0.16711
  1   360      1.32158    0.14857



Forces in eV/Ang:
  0 Ag   -0.41621    0.16180   -1.04561
  1 Ag    0.24944    0.23073   -0.85928
  2 Ir    0.49590   -0.17005    0.03041
  3 Ir   -0.11017    1.20795    1.37831
  4 Ir    0.40450    0.39803    0.87817
  5 Ir   -0.32714   -0.02965    1.22190
  6 Ir   -1.71001   -0.50565    0.74022
  7 Ag   -0.12348   -0.34421   -0.95406
  8 Pt    1.06272   -0.39053    0.48607
  9 Ag    0.13514    0.01105    0.19164
 10 Ir   -0.00832   -0.45464    0.97808
 11 Ir   -0.64300   -0.77306   -0.49065
 12 Ir    0.39375    0.13623    0.26237
 13 Ag   -0.01693   -0.02892    0.18193
 14 Ag    0.06515    0.08239    0.15849
 15 Pt   -0.13977   -0.04408   -0.57617
 16 Ru    0.63921    0.48307   -1.35747
 17 Ir    0.10983    0.30666   -1.24436
 18 Ir   -0.00922    0.00758    0.05430
 19 Pt   -0.00574    0.00720    0.02293
 20 Pt    0.01058   -0.01267    0.02649
 21 Ag    0.06914    0.05618    0.10823
 22 Ag   -0.01003    0.02325    0.02902
 23 Ag   -0.02965    0.02979    0.08500
 24 Pt   -0.00948   -0.01325   -0.00409
 25 Ag    0.02020   -0.03135   -0.00962
 26 Ir    0.01056   -0.00266    0.01227
 27 Ru    0.02648   -0.04243    0.00938
 28 Ir   -0.01789   -0.06679    0.00620
 29 Ir   -0.04030   -0.05197   -0.01865
 30 Ir   -0.07025   -0.04228    0.00859
 31 Ir    0.28770    0.06121   -0.07336
 32 Pt    0.02654    0.02528    0.15379
 33 Ag   -0.05394    0.03877   -0.07312
 34 Ir    0.04384   -0.03766    0.13424
 35 Ru   -0.00668    0.02490    0.04353
 36 Ir   -0.05040    0.04774    0.01715
 37 Ir   -0.05379   -0.01874   -0.05810
 38 Pt   -0.00479    0.00795   -0.01626
 39 Ag   -0.03233   -0.02453    0.04488
 40 Ir    0.00945   -0.07321    0.13736
 41 Pt    0.01156   -0.09334    0.00652
 42 Ir   -0.10379    0.04164    0.19878
 43 Ir   -0.06543    0.12951   -0.14312
 44 Ag    0.03077    0.00136   -0.04240
 45 O    -0.13970   -0.33306   -0.08880
 46 H     0.13553    0.18751   -0.28491

System changes: positions 

Initializing position-dependent things.

Density initialized from wave functions
                                            
                                            
                                            
                                            
                         H                  
                        O                   
                                            
                        Ir     Ag           
            Ag   Ir                         
                   Ir    IPt   Ru           
                  Ag Pt                     
       Ir    IIr    Ir     Pt               
        Ru     Ir     Ir                    
                     Pt     Ag     Ir       
                Ag     Ag     Ag            
           Ir     Pt     Pt                 
                 Pt     Ru     Ir           
            Ir     Ag     Ag                
                  Ir     Ag     Pt          
       Ag    IIr    IIr    Ir               
        Ag     Ag     Ir                    
                                            
                                            
                                            
                                            
                                            

Positions:
   0 Ag     0.000000    1.621936   10.000000    ( 0.0000,  0.0000,  0.0000)
   1 Ag     2.809275    1.621936   10.000000    ( 0.0000,  0.0000,  0.0000)
   2 Ir     5.618550    1.621936   10.000000    ( 0.0000,  0.0000,  0.0000)
   3 Ir     1.404638    4.054840   10.000000    ( 0.0000,  0.0000,  0.0000)
   4 Ir     4.213913    4.054840   10.000000    ( 0.0000,  0.0000,  0.0000)
   5 Ir     7.023188    4.054840   10.000000    ( 0.0000,  0.0000,  0.0000)
   6 Ir     2.809275    6.487743   10.000000    ( 0.0000,  0.0000,  0.0000)
   7 Ag     5.618550    6.487743   10.000000    ( 0.0000,  0.0000,  0.0000)
   8 Pt     8.427826    6.487743   10.000000    ( 0.0000,  0.0000,  0.0000)
   9 Ag     0.000000    0.000000   12.293764    ( 0.0000,  0.0000,  0.0000)
  10 Ir     2.809275    0.000000   12.293764    ( 0.0000,  0.0000,  0.0000)
  11 Ir     5.618550    0.000000   12.293764    ( 0.0000,  0.0000,  0.0000)
  12 Ir     1.404638    2.432904   12.293764    ( 0.0000,  0.0000,  0.0000)
  13 Ag     4.213913    2.432904   12.293764    ( 0.0000,  0.0000,  0.0000)
  14 Ag     7.023188    2.432904   12.293764    ( 0.0000,  0.0000,  0.0000)
  15 Pt     2.809275    4.865807   12.293764    ( 0.0000,  0.0000,  0.0000)
  16 Ru     5.618550    4.865807   12.293764    ( 0.0000,  0.0000,  0.0000)
  17 Ir     8.427826    4.865807   12.293764    ( 0.0000,  0.0000,  0.0000)
  18 Ir     1.442255    0.801185   14.609243    ( 0.0000,  0.0000,  0.0000)
  19 Pt     4.191182    0.731429   14.618307    ( 0.0000,  0.0000,  0.0000)
  20 Pt     7.040961    0.802201   14.645566    ( 0.0000,  0.0000,  0.0000)
  21 Ag     2.801959    3.272188   14.635648    ( 0.0000,  0.0000,  0.0000)
  22 Ag     5.618794    3.233592   14.634633    ( 0.0000,  0.0000,  0.0000)
  23 Ag     8.459960    3.245251   14.633579    ( 0.0000,  0.0000,  0.0000)
  24 Pt     4.243133    5.674009   14.606224    ( 0.0000,  0.0000,  0.0000)
  25 Ag     7.022648    5.620809   14.591416    ( 0.0000,  0.0000,  0.0000)
  26 Ir     9.812416    5.744801   14.534184    ( 0.0000,  0.0000,  0.0000)
  27 Ru     0.104748    1.635686   16.938276    ( 0.0000,  0.0000,  0.0000)
[...]
  19 Pt     4.174140    0.698023   14.616232    ( 0.0000,  0.0000,  0.0000)
  20 Pt     7.036240    0.762761   14.655396    ( 0.0000,  0.0000,  0.0000)
  21 Ag     2.786293    3.240672   14.646225    ( 0.0000,  0.0000,  0.0000)
  22 Ag     5.617643    3.189076   14.645941    ( 0.0000,  0.0000,  0.0000)
  23 Ag     8.461620    3.213416   14.632010    ( 0.0000,  0.0000,  0.0000)
  24 Pt     4.236361    5.641207   14.602432    ( 0.0000,  0.0000,  0.0000)
  25 Ag     7.007894    5.585223   14.602392    ( 0.0000,  0.0000,  0.0000)
  26 Ir     9.801671    5.724550   14.511516    ( 0.0000,  0.0000,  0.0000)
  27 Ru     0.088873    1.547559   16.931735    ( 0.0000,  0.0000,  0.0000)
  28 Ir     2.736342    1.532747   16.894027    ( 0.0000,  0.0000,  0.0000)
  29 Ir     5.523308    1.512213   16.879144    ( 0.0000,  0.0000,  0.0000)
  30 Ir     1.343943    3.895747   17.076848    ( 0.0000,  0.0000,  0.0000)
  31 Ir     4.253848    3.942451   16.996026    ( 0.0000,  0.0000,  0.0000)
  32 Pt     7.104127    3.972365   17.061319    ( 0.0000,  0.0000,  0.0000)
  33 Ag     2.725326    6.380994   16.798787    ( 0.0000,  0.0000,  0.0000)
  34 Ir     5.635429    6.375583   16.925776    ( 0.0000,  0.0000,  0.0000)
  35 Ru     8.377142    6.390301   16.877464    ( 0.0000,  0.0000,  0.0000)
  36 Ir    -0.030844   -0.134553   19.011861    ( 0.0000,  0.0000,  0.0000)
  37 Ir     2.730087   -0.040765   18.996688    ( 0.0000,  0.0000,  0.0000)
  38 Pt     5.561287   -0.171080   19.145511    ( 0.0000,  0.0000,  0.0000)
  39 Ag     1.356798    2.345515   19.593788    ( 0.0000,  0.0000,  0.0000)
  40 Ir     4.185063    2.289277   19.024708    ( 0.0000,  0.0000,  0.0000)
  41 Pt     6.940737    2.145526   19.117391    ( 0.0000,  0.0000,  0.0000)
  42 Ir     2.845889    4.798061   19.045780    ( 0.0000,  0.0000,  0.0000)
  43 Ir     5.439928    4.842120   19.217256    ( 0.0000,  0.0000,  0.0000)
  44 Ag     8.373512    4.789600   19.575921    ( 0.0000,  0.0000,  0.0000)
  45 O      6.058688    4.621488   21.122271    ( 0.0000,  0.0000,  0.0000)
  46 H      5.852285    5.438921   21.640813    ( 0.0000,  0.0000,  0.0000)

Unit cell:
           periodic     x           y           z      points  spacing
  1. axis:    yes    8.445283    0.000000    0.000000    35     0.2090
  2. axis:    yes    4.222641    7.313829    0.000000    35     0.2090
  3. axis:    no     0.000000    0.000000   29.175054   135     0.2161

  Lengths:   8.445283   8.445283  29.175054
  Angles:   90.000000  90.000000  60.000000

Effective grid spacing dv^(1/3) = 0.2217

                     log10-error:    total        iterations:
           time      wfs    density  energy       fermi  poisson
iter:   1  08:38:41  -3.80   +inf  -269.183628    3             
iter:   2  08:39:41  -2.96  -2.60  -274.473071    2             
iter:   3  08:40:48  -3.22  -1.79  -269.089959    3             
iter:   4  08:41:56  -4.63  -3.36  -269.084962    2             
iter:   5  08:43:05  -5.77  -3.71  -269.084773    2             
iter:   6  08:44:13  -5.92  -3.77  -269.084604    2             
iter:   7  08:45:20  -6.06  -3.77  -269.083623    2             
iter:   8  08:46:27  -6.14  -4.04  -269.083357    2             
iter:   9  08:47:36  -6.54  -4.02  -269.085933    2             
iter:  10  08:48:45  -6.57  -3.61  -269.083380    2             
iter:  11  08:49:53  -6.78  -4.14  -269.083736    2             
iter:  12  08:50:49  -7.16  -4.33  -269.083540    2             
iter:  13  08:51:44  -7.28  -4.42  -269.083438    2             
iter:  14  08:52:38  -7.91  -4.42  -269.083513    2             

Converged after 14 iterations.

Dipole moment: (28.148112, 20.224283, 0.107645) |e|*Ang

Energy contributions relative to reference atoms: (reference = -16429291.423757)

Kinetic:       -150.519850
Potential:      +92.729507
External:        +0.000000
XC:            -203.880041
Entropy (-ST):   -2.105587
Local:           -6.360336
--------------------------
Free energy:   -270.136306
Extrapolated:  -269.083513

Fermi level: 1.40938

Showing only first 2 kpts
 Kpt  Band  Eigenvalues  Occupancy
  0   357      1.40321    0.12886
  0   358      1.42604    0.11461
  0   359      1.46573    0.09069
  0   360      1.49979    0.07205

  1   357      1.29218    0.19088
  1   358      1.31282    0.18106
  1   359      1.34018    0.16660
  1   360      1.38195    0.14204



Forces in eV/Ang:
  0 Ag   -0.41859    0.15858   -1.04979
  1 Ag    0.24738    0.23029   -0.85440
  2 Ir    0.49421   -0.19053    0.04927
  3 Ir   -0.11285    1.19377    1.41595
  4 Ir    0.40341    0.40647    0.87482
  5 Ir   -0.32713   -0.01494    1.19775
  6 Ir   -1.70723   -0.50712    0.71977
  7 Ag   -0.12536   -0.34795   -0.95513
  8 Pt    1.05451   -0.40190    0.46927
  9 Ag    0.14322    0.00387    0.23080
 10 Ir   -0.05185   -0.49281    0.99334
 11 Ir   -0.66289   -0.76896   -0.48072
 12 Ir    0.41744    0.07706    0.26834
 13 Ag   -0.04226   -0.02854    0.24061
 14 Ag    0.06814    0.06141    0.22199
 15 Pt   -0.13269   -0.12835   -0.55542
 16 Ru    0.64404    0.44938   -1.33572
 17 Ir    0.06151    0.25124   -1.21263
 18 Ir    0.00399    0.00519   -0.00957
 19 Pt   -0.01460   -0.00575    0.01040
 20 Pt    0.01064    0.01822   -0.00911
 21 Ag   -0.00133    0.00002   -0.02212
 22 Ag   -0.00781    0.00816   -0.01988
 23 Ag   -0.00432    0.00142   -0.00005
 24 Pt   -0.00007   -0.01528   -0.01383
 25 Ag    0.01399   -0.00942   -0.03120
 26 Ir    0.00468   -0.01093   -0.01643
 27 Ru   -0.01576    0.00463    0.00964
 28 Ir   -0.00335    0.00003    0.00970
 29 Ir   -0.01029    0.02048    0.03911
 30 Ir   -0.00314   -0.01146    0.00214
 31 Ir   -0.01726   -0.01075   -0.01209
 32 Pt   -0.02472    0.01075   -0.03072
 33 Ag    0.00227    0.02299    0.02918
 34 Ir    0.00112   -0.02679    0.01158
 35 Ru   -0.00321    0.01171    0.01243
 36 Ir    0.00831   -0.03099    0.00930
 37 Ir    0.01111   -0.02219   -0.02246
 38 Pt    0.02443    0.02160   -0.01617
 39 Ag    0.01738   -0.00738    0.04918
 40 Ir    0.00468   -0.01899   -0.04192
 41 Pt   -0.00688    0.00568   -0.01287
 42 Ir    0.00720   -0.00387   -0.00615
 43 Ir    0.02432    0.01231   -0.05846
 44 Ag    0.03393   -0.01360    0.00041
 45 O    -0.15855   -0.04714    0.14689
 46 H    -0.01955   -0.00410   -0.06427

System changes: positions 

Initializing position-dependent things.

Density initialized from wave functions
                                             
                                             
                                             
                                             
                         H                   
                                             
                         O                   
                               Ag            
                  Ir    Ir                   
            Ag                               
                  AIr    IPt    Ru           
       Ir    IIr    IPt    Pt                
                                             
         Ru    Ir     Ir    Ag     Ir        
                Ag     Ag     Ag             
                                             
           Ir     Pt    RPt    Ir            
                                             
            Ir     Ag    AAg    Pt           
       Ag     Ir    IIr    Ir                
                                             
        Ag     Ag     Ir                     
                                             
                                             
                                             
                                             
                                             

Positions:
   0 Ag     0.000000    1.621936   10.000000    ( 0.0000,  0.0000,  0.0000)
   1 Ag     2.809275    1.621936   10.000000    ( 0.0000,  0.0000,  0.0000)
   2 Ir     5.618550    1.621936   10.000000    ( 0.0000,  0.0000,  0.0000)
   3 Ir     1.404638    4.054840   10.000000    ( 0.0000,  0.0000,  0.0000)
   4 Ir     4.213913    4.054840   10.000000    ( 0.0000,  0.0000,  0.0000)
   5 Ir     7.023188    4.054840   10.000000    ( 0.0000,  0.0000,  0.0000)
   6 Ir     2.809275    6.487743   10.000000    ( 0.0000,  0.0000,  0.0000)
   7 Ag     5.618550    6.487743   10.000000    ( 0.0000,  0.0000,  0.0000)
   8 Pt     8.427826    6.487743   10.000000    ( 0.0000,  0.0000,  0.0000)
   9 Ag     0.000000    0.000000   12.293764    ( 0.0000,  0.0000,  0.0000)
  10 Ir     2.809275    0.000000   12.293764    ( 0.0000,  0.0000,  0.0000)
  11 Ir     5.618550    0.000000   12.293764    ( 0.0000,  0.0000,  0.0000)
  12 Ir     1.404638    2.432904   12.293764    ( 0.0000,  0.0000,  0.0000)
  13 Ag     4.213913    2.432904   12.293764    ( 0.0000,  0.0000,  0.0000)
  14 Ag     7.023188    2.432904   12.293764    ( 0.0000,  0.0000,  0.0000)
  15 Pt     2.809275    4.865807   12.293764    ( 0.0000,  0.0000,  0.0000)
  16 Ru     5.618550    4.865807   12.293764    ( 0.0000,  0.0000,  0.0000)
  17 Ir     8.427826    4.865807   12.293764    ( 0.0000,  0.0000,  0.0000)
  18 Ir     1.428894    0.768161   14.623591    ( 0.0000,  0.0000,  0.0000)
  19 Pt     4.174808    0.696968   14.619784    ( 0.0000,  0.0000,  0.0000)
  20 Pt     7.037493    0.763645   14.655285    ( 0.0000,  0.0000,  0.0000)
  21 Ag     2.788013    3.240034   14.645636    ( 0.0000,  0.0000,  0.0000)
  22 Ag     5.618109    3.189108   14.647681    ( 0.0000,  0.0000,  0.0000)
  23 Ag     8.462910    3.214129   14.633615    ( 0.0000,  0.0000,  0.0000)
  24 Pt     4.236775    5.640856   14.601212    ( 0.0000,  0.0000,  0.0000)
  25 Ag     7.009620    5.584192   14.601468    ( 0.0000,  0.0000,  0.0000)
  26 Ir     9.802785    5.723514   14.511168    ( 0.0000,  0.0000,  0.0000)
  27 Ru     0.088047    1.545928   16.934010    ( 0.0000,  0.0000,  0.0000)
  28 Ir     2.735615    1.529371   16.894731    ( 0.0000,  0.0000,  0.0000)
  29 Ir     5.524068    1.512196   16.882872    ( 0.0000,  0.0000,  0.0000)
  30 Ir     1.344242    3.891408   17.077972    ( 0.0000,  0.0000,  0.0000)
  31 Ir     4.250671    3.939077   16.994415    ( 0.0000,  0.0000,  0.0000)
  32 Pt     7.103269    3.971356   17.060871    ( 0.0000,  0.0000,  0.0000)
  33 Ag     2.725451    6.379196   16.799843    ( 0.0000,  0.0000,  0.0000)
  34 Ir     5.634725    6.372544   16.925186    ( 0.0000,  0.0000,  0.0000)
  35 Ru     8.378388    6.386180   16.879783    ( 0.0000,  0.0000,  0.0000)
  36 Ir    -0.030830   -0.138930   19.013844    ( 0.0000,  0.0000,  0.0000)
  37 Ir     2.731315   -0.045979   18.996836    ( 0.0000,  0.0000,  0.0000)
  38 Pt     5.563980   -0.172240   19.146271    ( 0.0000,  0.0000,  0.0000)
  39 Ag     1.358174    2.338412   19.604735    ( 0.0000,  0.0000,  0.0000)
  40 Ir     4.184257    2.285829   19.022720    ( 0.0000,  0.0000,  0.0000)
  41 Pt     6.940623    2.145193   19.119652    ( 0.0000,  0.0000,  0.0000)
  42 Ir     2.846014    4.794849   19.046646    ( 0.0000,  0.0000,  0.0000)
  43 Ir     5.442108    4.839493   19.214084    ( 0.0000,  0.0000,  0.0000)
  44 Ag     8.378305    4.785964   19.581257    ( 0.0000,  0.0000,  0.0000)
  45 O      6.052665    4.618281   21.123185    ( 0.0000,  0.0000,  0.0000)
  46 H      5.836155    5.433512   21.639669    ( 0.0000,  0.0000,  0.0000)

Unit cell:
           periodic     x           y           z      points  spacing
  1. axis:    yes    8.445283    0.000000    0.000000    35     0.2090
  2. axis:    yes    4.222641    7.313829    0.000000    35     0.2090
  3. axis:    no     0.000000    0.000000   29.175054   135     0.2161

  Lengths:   8.445283   8.445283  29.175054
  Angles:   90.000000  90.000000  60.000000

Effective grid spacing dv^(1/3) = 0.2217

                     log10-error:    total        iterations:
           time      wfs    density  energy       fermi  poisson
iter:   1  08:53:59  -3.79   +inf  -269.152179    3             
iter:   2  08:54:55  -3.27  -2.75  -271.475317    2             
iter:   3  08:55:51  -3.57  -1.93  -269.100810    3             
iter:   4  08:56:47  -4.76  -3.08  -269.086543    3             
iter:   5  08:57:44  -5.85  -3.68  -269.086546    2             
iter:   6  08:58:41  -6.04  -3.82  -269.086343    2             
iter:   7  08:59:39  -5.90  -3.96  -269.086093    2             
iter:   8  09:00:36  -6.37  -4.09  -269.086921    2             
iter:   9  09:01:33  -6.58  -3.89  -269.085578    2             
iter:  10  09:02:30  -6.98  -3.92  -269.086039    2             
iter:  11  09:03:26  -7.08  -4.26  -269.086154    2             
iter:  12  09:04:23  -7.45  -4.27  -269.085885    2             

Converged after 12 iterations.

Dipole moment: (28.041402, 20.563806, 0.106698) |e|*Ang

Energy contributions relative to reference atoms: (reference = -16429291.423757)

Kinetic:       -151.080913
Potential:      +93.196228
External:        +0.000000
XC:            -203.795260
Entropy (-ST):   -2.106245
Local:           -6.352818
--------------------------
Free energy:   -270.139008
Extrapolated:  -269.085885

Fermi level: 1.40832

Showing only first 2 kpts
 Kpt  Band  Eigenvalues  Occupancy
  0   357      1.40180    0.12907
  0   358      1.42490    0.11466
  0   359      1.46496    0.09051
  0   360      1.49695    0.07296

  1   357      1.29123    0.19082
  1   358      1.31153    0.18118
  1   359      1.33893    0.16671
  1   360      1.38031    0.14239



Forces in eV/Ang:
  0 Ag   -0.41783    0.15861   -1.05227
  1 Ag    0.24648    0.22984   -0.85568
  2 Ir    0.49376   -0.19221    0.04491
  3 Ir   -0.11251    1.19053    1.41102
  4 Ir    0.40290    0.40759    0.86897
  5 Ir   -0.32621   -0.01543    1.19127
  6 Ir   -1.70534   -0.50621    0.71316
  7 Ag   -0.12495   -0.34658   -0.95644
  8 Pt    1.05367   -0.40044    0.46576
  9 Ag    0.14235    0.00677    0.22954
 10 Ir   -0.04218   -0.48832    1.00139
 11 Ir   -0.66826   -0.76285   -0.46796
 12 Ir    0.41586    0.07728    0.26892
 13 Ag   -0.03850   -0.03806    0.24869
 14 Ag    0.06757    0.06024    0.22975
 15 Pt   -0.13506   -0.13077   -0.56738
 16 Ru    0.64642    0.44754   -1.33936
 17 Ir    0.06415    0.25006   -1.21885
 18 Ir   -0.01627   -0.01498   -0.00093
 19 Pt    0.00521   -0.01167   -0.01692
 20 Pt   -0.00214    0.00208    0.00314
 21 Ag   -0.01295   -0.00161   -0.02280
 22 Ag   -0.00421   -0.00587   -0.03032
 23 Ag   -0.00366   -0.01100   -0.00805
 24 Pt    0.00359    0.00178    0.00808
 25 Ag    0.00226    0.00838   -0.01783
 26 Ir    0.00581    0.00901    0.00042
 27 Ru   -0.00039   -0.00581    0.02152
 28 Ir   -0.02444   -0.01230    0.02497
 29 Ir    0.00587   -0.00923   -0.01086
 30 Ir   -0.01750    0.00695    0.02127
 31 Ir   -0.00808    0.01643    0.00979
 32 Pt    0.00569   -0.00069   -0.01650
 33 Ag   -0.00106    0.02209    0.00750
 34 Ir   -0.00651    0.01088    0.00113
 35 Ru    0.00089    0.01480   -0.00470
 36 Ir    0.01878    0.00629   -0.03833
 37 Ir   -0.00019   -0.00036   -0.02442
 38 Pt    0.00516    0.00285   -0.02523
 39 Ag    0.01243   -0.00576    0.00242
 40 Ir   -0.01368   -0.00569   -0.00831
 41 Pt    0.02128    0.01630   -0.02971
 42 Ir    0.00513   -0.01429   -0.02987
 43 Ir    0.03926   -0.01669   -0.03949
 44 Ag    0.01171   -0.01169   -0.00957
 45 O    -0.04943   -0.02492    0.08153
 46 H    -0.06821   -0.00020   -0.04216

Timing:                                      incl.     excl.
-------------------------------------------------------------------
Density initialized from wave functions:   110.434   110.432   0.2% |
 Symmetrize density:                         0.002     0.002   0.0% |
Forces:                                    555.163   555.163   1.2% |
Hamiltonian:                                94.384     0.308   0.0% |
 Atomic:                                    26.485    16.709   0.0% |
  XC Correction:                             9.776     9.776   0.0% |
 Calculate atomic Hamiltonians:             37.455    37.455   0.1% |
 Communicate:                                0.431     0.431   0.0% |
 Initialize Hamiltonian:                     0.001     0.001   0.0% |
 Poisson:                                    0.200     0.200   0.0% |
 XC 3D grid:                                29.505    29.505   0.1% |
LCAO initialization:                        54.975     2.744   0.0% |
 LCAO eigensolver:                           5.539     0.002   0.0% |
  Calculate projections:                     0.051     0.051   0.0% |
  DenseAtomicCorrection:                     0.091     0.091   0.0% |
  Distribute overlap matrix:                 0.111     0.111   0.0% |
  Orbital Layouts:                           0.334     0.334   0.0% |
  Potential matrix:                          4.891     4.891   0.0% |
  Sum over cells:                            0.059     0.059   0.0% |
 LCAO to grid:                              44.887    44.887   0.1% |
 Set positions (LCAO WFS):                   1.804     0.717   0.0% |
  Basic WFS set positions:                   0.002     0.002   0.0% |
  Basis functions set positions:             0.000     0.000   0.0% |
  P tci:                                     0.468     0.468   0.0% |
  ST tci:                                    0.459     0.459   0.0% |
  mktci:                                     0.158     0.158   0.0% |
PWDescriptor:                                0.041     0.041   0.0% |
Redistribute:                                0.226     0.226   0.0% |
SCF-cycle:                               46758.273  4401.480   9.2% |---|
 Davidson:                               38143.428  9201.402  19.2% |-------|
  Apply H:                                5935.364  5701.394  11.9% |----|
   HMM T:                                  233.970   233.970   0.5% |
  Subspace diag:                          5559.268     0.222   0.0% |
   calc_h_matrix:                         3024.071  1050.261   2.2% ||
    Apply H:                              1973.810  1895.854   4.0% |-|
     HMM T:                                 77.955    77.955   0.2% |
   diagonalize:                             91.720    91.720   0.2% |
   rotate_psi:                            2443.255  2443.255   5.1% |-|
  calc. matrices:                        11094.630  7126.909  14.9% |-----|
   Apply H:                               3967.721  3811.139   8.0% |--|
    HMM T:                                 156.582   156.582   0.3% |
  diagonalize:                            1447.728  1447.728   3.0% ||
  rotate_psi:                             4905.036  4905.036  10.3% |---|
 Density:                                 2101.103     0.043   0.0% |
  Atomic density matrices:                  13.485    13.485   0.0% |
  Mix:                                     868.982   868.982   1.8% ||
  Multipole moments:                         0.779     0.779   0.0% |
  Pseudo density:                         1217.813  1217.775   2.5% ||
   Symmetrize density:                       0.038     0.038   0.0% |
 Hamiltonian:                             1924.800     6.009   0.0% |
  Atomic:                                  589.896   395.948   0.8% |
   XC Correction:                          193.948   193.948   0.4% |
  Calculate atomic Hamiltonians:           731.846   731.846   1.5% ||
  Communicate:                               7.680     7.680   0.0% |
  Poisson:                                   3.876     3.876   0.0% |
  XC 3D grid:                              585.492   585.492   1.2% |
 Orthonormalize:                           187.462     0.015   0.0% |
  calc_s_matrix:                            25.622    25.622   0.1% |
  inverse-cholesky:                          2.472     2.472   0.0% |
  projections:                              99.784    99.784   0.2% |
  rotate_psi_s:                             59.570    59.570   0.1% |
Set symmetry:                                0.001     0.001   0.0% |
Other:                                     263.657   263.657   0.6% |
-------------------------------------------------------------------
Total:                                             47837.154 100.0%

Date: Fri Mar  4 09:04:39 2022
