
  ___ ___ ___ _ _ _  
 |   |   |_  | | | | 
 | | | | | . | | | | 
 |__ |  _|___|_____|  1.5.1
 |___|_|             

User:   clausen@node046.cluster
Date:   Thu Mar  3 14:32:18 2022
Arch:   x86_64
Pid:    31067
Python: 3.6.12
gpaw:   /software/kemi/gpaw/1.5.1/gpaw
_gpaw:  /software/kemi/gpaw/1.5.1/bin/gpaw-python
ase:    /software/kemi/ase/3.17.0/ase (version 3.17.0)
numpy:  /opt/rh/rh-python36/root/usr/lib64/python3.6/site-packages/numpy (version 1.13.1)
scipy:  /opt/rh/rh-python36/root/usr/lib64/python3.6/site-packages/scipy (version 0.19.1)
units:  Angstrom and eV
cores:  16

Input parameters:
  kpts: [4 4 1]
  mode: {ecut: 400.0,
         gammacentered: False,
         name: pw}
  xc: RPBE

System changes: positions, numbers, cell, pbc, initial_charges, initial_magmoms 

Initialize ...

Pd-setup:
  name: Palladium
  id: 6da19bfba079f22767af9506641940b9
  Z: 46
  valence: 16
  core: 30
  charge: 0.0
  file: /software/kemi/gpaw-setups/0.9.20000/Pd.RPBE.gz
  cutoffs: 1.19(comp), 2.38(filt), 2.28(core), lmax=2
  valence states:
                energy  radius
    5s(0.00)    -3.225   1.228
    4p(6.00)   -51.131   1.360
    5p(0.00)    -0.373   1.360
    4d(10.00)    -3.964   1.228
    *s          23.987   1.228
    *d          23.247   1.228

  Using partial waves for Pd as LCAO basis

Ir-setup:
  name: Iridium
  id: 73b603359d1d5397a85ae3c2440f9033
  Z: 77
  valence: 15
  core: 62
  charge: 0.0
  file: /software/kemi/gpaw-setups/0.9.20000/Ir.RPBE.gz
  cutoffs: 1.26(comp), 2.40(filt), 2.36(core), lmax=2
  valence states:
                energy  radius
    6s(2.00)    -6.219   1.296
    5p(6.00)   -54.684   1.328
    6p(0.00)    -1.215   1.328
    5d(7.00)    -7.118   1.286
    *s          20.992   1.296
    *d          20.093   1.286

  Using partial waves for Ir as LCAO basis

Ru-setup:
  name: Ruthenium
  id: 76477906e28f51dc1b29884d53556fe9
  Z: 44
  valence: 16
  core: 28
  charge: 0.0
  file: /software/kemi/gpaw-setups/0.9.20000/Ru.RPBE.gz
  cutoffs: 1.23(comp), 2.16(filt), 1.30(core), lmax=2
  valence states:
                energy  radius
    4s(2.00)   -76.255   1.281
    5s(1.00)    -4.126   1.281
    4p(6.00)   -46.371   1.286
    5p(0.00)    -0.913   1.286
    4d(7.00)    -5.146   1.254
    *d          22.066   1.254

  Using partial waves for Ru as LCAO basis

Pt-setup:
  name: Platinum
  id: f04f522592575c47ad794f6b4a415b4b
  Z: 78
  valence: 16
  core: 62
  charge: 0.0
  file: /software/kemi/gpaw-setups/0.9.20000/Pt.RPBE.gz
  cutoffs: 1.29(comp), 2.26(filt), 2.26(core), lmax=2
  valence states:
                energy  radius
    6s(1.00)    -5.516   1.307
    5p(6.00)   -55.971   1.371
    6p(0.00)    -0.856   1.371
    5d(9.00)    -6.087   1.307
    *s          21.695   1.307
    *d          21.125   1.307

  Using partial waves for Pt as LCAO basis

Ag-setup:
  name: Silver
  id: c05e55bab2c3858b3f9398f6d75cb77c
  Z: 47
  valence: 17
  core: 30
  charge: 0.0
  file: /software/kemi/gpaw-setups/0.9.20000/Ag.RPBE.gz
  cutoffs: 1.25(comp), 2.35(filt), 2.19(core), lmax=2
  valence states:
                energy  radius
    5s(1.00)    -4.277   1.286
    4p(6.00)   -58.523   1.328
    5p(0.00)    -0.755   1.328
    4d(10.00)    -7.386   1.180
    *s          22.934   1.286
    *d          19.826   1.180

  Using partial waves for Ag as LCAO basis

O-setup:
  name: Oxygen
  id: 08071ca1eed670e7821b24b7eb4d558c
  Z: 8
  valence: 6
  core: 2
  charge: 0.0
  file: /software/kemi/gpaw-setups/0.9.20000/O.RPBE.gz
  cutoffs: 0.67(comp), 1.17(filt), 0.83(core), lmax=2
  valence states:
                energy  radius
    2s(2.00)   -24.041   0.688
    2p(4.00)    -8.984   0.598
    *s           3.170   0.688
    *p          18.228   0.598
    *d           0.000   0.619

  Using partial waves for O as LCAO basis

Reference energy: -12877847.605335

Spin-paired calculation

Occupation numbers:
  Fermi-Dirac: width=0.1000 eV

Convergence criteria:
  Maximum total energy change: 0.0005 eV / electron
  Maximum integral of absolute density change: 0.0001 electrons
  Maximum integral of absolute eigenstate change: 4e-08 eV^2
  Maximum number of iterations: 333

Symmetries present (total): 1

  ( 1  0  0)
  ( 0  1  0)
  ( 0  0  1)

16 k-points: 4 x 4 x 1 Monkhorst-Pack grid
8 k-points in the irreducible part of the Brillouin zone
       k-points in crystal coordinates                weights
   0:     0.12500000   -0.37500000    0.00000000          2/16
   1:     0.12500000   -0.12500000    0.00000000          2/16
   2:     0.12500000    0.12500000    0.00000000          2/16
   3:     0.12500000    0.37500000    0.00000000          2/16
   4:     0.37500000   -0.37500000    0.00000000          2/16
   5:     0.37500000   -0.12500000    0.00000000          2/16
   6:     0.37500000    0.12500000    0.00000000          2/16
   7:     0.37500000    0.37500000    0.00000000          2/16

Wave functions: Plane wave expansion
  Cutoff energy: 400.000 eV
  Number of coefficients (min, max): 32894, 32940
  Pulay-stress correction: 0.000000 eV/Ang^3 (de/decut=0.000000)
  Using FFTW library
  ScaLapack parameters: grid=1x1, blocksize=None
  Wavefunction extrapolation:
    Improved wavefunction reuse through dual PAW basis 

Eigensolver
   Davidson(niter=2, smin=None, normalize=True) 

Densities:
  Coarse grid: 35*35*135 grid
  Fine grid: 70*70*270 grid
  Total Charge: 0.000000 

Density mixing:
  Method: separate
  Backend: pulay
  Linear mixing parameter: 0.05
  Mixing with 5 old densities
  Damping of long wave oscillations: 50 

Hamiltonian:
  XC and Coulomb potentials evaluated on a 70*70*270 grid
  Using the RPBE Exchange-Correlation functional
 

XC parameters: RPBE with 2 nearest neighbor stencil

Memory estimate:
  Process memory now: 151.12 MiB
  Calculator: 549.89 MiB
    Density: 51.27 MiB
      Arrays: 16.41 MiB
      Localized functions: 28.50 MiB
      Mixer: 6.36 MiB
    Hamiltonian: 11.63 MiB
      Arrays: 10.73 MiB
      XC: 0.00 MiB
      Poisson: 0.00 MiB
      vbar: 0.90 MiB
    Wavefunctions: 487.00 MiB
      Arrays psit_nG: 220.15 MiB
      Eigensolver: 251.95 MiB
      Projections: 2.75 MiB
      Projectors: 5.53 MiB
      PW-descriptor: 6.62 MiB

Total number of cores used: 16
Parallelization over k-points: 8
Domain decomposition: 1 x 1 x 2

Number of atoms: 46
Number of atomic orbitals: 550
Number of bands in calculation: 438
Bands to converge: occupied states only
Number of valence electrons: 723

... initialized

Initializing position-dependent things.

Density initialized from atomic densities
Creating initial wave functions:
  438 bands from LCAO basis set

                                             
                                             
                                             
                                             
                                             
                                             
                  Ag                         
                         Ir    Ir            
            Pd      Pd   O Ir                
                   Ru     Pd     Ir          
        Ir    Pt    PAg    Pd                
                                             
        Ir     Pd    IAg    Ir     Pt        
                Ag     Ru     Pd             
                                             
           Pt     Ag    PPd    Ir            
                                             
            Pt     Pt    PPt    Ru           
       Ag     Ag     Ag                      
              Ru    Ir     Pt                
         Pd    Ir     Ru                     
                                             
                                             
                                             
                                             
                                             

Positions:
   0 Pd     0.000000    1.624086   10.000000    ( 0.0000,  0.0000,  0.0000)
   1 Ir     2.812999    1.624086   10.000000    ( 0.0000,  0.0000,  0.0000)
   2 Ru     5.625998    1.624086   10.000000    ( 0.0000,  0.0000,  0.0000)
   3 Ru     1.406500    4.060215   10.000000    ( 0.0000,  0.0000,  0.0000)
   4 Ir     4.219499    4.060215   10.000000    ( 0.0000,  0.0000,  0.0000)
   5 Pt     7.032498    4.060215   10.000000    ( 0.0000,  0.0000,  0.0000)
   6 Pd     2.812999    6.496343   10.000000    ( 0.0000,  0.0000,  0.0000)
   7 Pd     5.625998    6.496343   10.000000    ( 0.0000,  0.0000,  0.0000)
   8 Ru     8.438997    6.496343   10.000000    ( 0.0000,  0.0000,  0.0000)
   9 Ag     0.000000    0.000000   12.296804    ( 0.0000,  0.0000,  0.0000)
  10 Ag     2.812999    0.000000   12.296804    ( 0.0000,  0.0000,  0.0000)
  11 Ag     5.625998    0.000000   12.296804    ( 0.0000,  0.0000,  0.0000)
  12 Pt     1.406500    2.436129   12.296804    ( 0.0000,  0.0000,  0.0000)
  13 Pt     4.219499    2.436129   12.296804    ( 0.0000,  0.0000,  0.0000)
  14 Pt     7.032498    2.436129   12.296804    ( 0.0000,  0.0000,  0.0000)
  15 Ru     2.812999    4.872257   12.296804    ( 0.0000,  0.0000,  0.0000)
  16 Pt     5.625998    4.872257   12.296804    ( 0.0000,  0.0000,  0.0000)
  17 Ir     8.438997    4.872257   12.296804    ( 0.0000,  0.0000,  0.0000)
  18 Pt     1.331112    0.739375   14.657283    ( 0.0000,  0.0000,  0.0000)
  19 Ag     4.181622    0.793852   14.645499    ( 0.0000,  0.0000,  0.0000)
  20 Pd     7.001587    0.862206   14.620346    ( 0.0000,  0.0000,  0.0000)
  21 Ag     2.800841    3.198617   14.645984    ( 0.0000,  0.0000,  0.0000)
  22 Ru     5.661352    3.374873   14.464570    ( 0.0000,  0.0000,  0.0000)
  23 Pd     8.454364    3.209063   14.568969    ( 0.0000,  0.0000,  0.0000)
  24 Ir     4.203312    5.613553   14.568997    ( 0.0000,  0.0000,  0.0000)
  25 Ir     7.031881    5.578044   14.561300    ( 0.0000,  0.0000,  0.0000)
  26 Pt     9.857688    5.665883   14.596939    ( 0.0000,  0.0000,  0.0000)
  27 Ir    -0.077764    1.506761   16.938800    ( 0.0000,  0.0000,  0.0000)
  28 Pd     2.746751    1.593087   16.991368    ( 0.0000,  0.0000,  0.0000)
  29 Ag     5.532334    1.594992   16.918159    ( 0.0000,  0.0000,  0.0000)
  30 Pd     1.401555    4.031321   16.973309    ( 0.0000,  0.0000,  0.0000)
  31 Pd     4.186062    4.107308   16.892321    ( 0.0000,  0.0000,  0.0000)
  32 Pd     7.007491    3.969527   16.736476    ( 0.0000,  0.0000,  0.0000)
  33 Ru     2.845276    6.541012   16.753610    ( 0.0000,  0.0000,  0.0000)
  34 Pd     5.662228    6.450069   16.794393    ( 0.0000,  0.0000,  0.0000)
  35 Ir     8.552515    6.378355   16.920371    ( 0.0000,  0.0000,  0.0000)
  36 Ir     0.061963   -0.029589   18.981657    ( 0.0000,  0.0000,  0.0000)
  37 Pt     2.802470   -0.097062   19.141410    ( 0.0000,  0.0000,  0.0000)
  38 Ag     5.661265    0.013033   19.406409    ( 0.0000,  0.0000,  0.0000)
  39 Pd     1.350042    2.376862   19.278970    ( 0.0000,  0.0000,  0.0000)
  40 Pd     4.315258    2.518491   19.256067    ( 0.0000,  0.0000,  0.0000)
  41 Ir     7.173708    2.513849   19.018418    ( 0.0000,  0.0000,  0.0000)
  42 Ag     2.809713    4.893314   19.379442    ( 0.0000,  0.0000,  0.0000)
  43 Ir     5.700233    4.913916   19.039342    ( 0.0000,  0.0000,  0.0000)
  44 Ir     8.278779    4.849064   19.000358    ( 0.0000,  0.0000,  0.0000)
  45 O      7.120759    0.832431   20.706409    ( 0.0000,  0.0000,  0.0000)

Unit cell:
           periodic     x           y           z      points  spacing
  1. axis:    yes    8.465341    0.000000    0.000000    35     0.2095
  2. axis:    yes    4.232670    7.331200    0.000000    35     0.2095
  3. axis:    no     0.000000    0.000000   29.187217   135     0.2162

  Lengths:   8.465341   8.465341  29.187217
  Angles:   90.000000  90.000000  60.000000

Effective grid spacing dv^(1/3) = 0.2221

                     log10-error:    total        iterations:
           time      wfs    density  energy       fermi  poisson
iter:   1  14:34:18  +0.32   +inf  -320.829829    2             
iter:   2  14:35:16  -0.55  -1.16  -401.236061    37            
iter:   3  14:36:13  -0.64  -1.08  -347.865990    4             
iter:   4  14:37:13  -1.26  -1.15  -268.170690    36            
iter:   5  14:38:12  -1.76  -1.35  -245.880931    37            
iter:   6  14:39:12  -1.96  -1.46  -242.193871    36            
iter:   7  14:40:11  -2.18  -1.51  -239.340096    3             
iter:   8  14:41:10  -2.24  -1.57  -236.691798    3             
iter:   9  14:42:08  -1.78  -1.70  -235.323812    3             
iter:  10  14:43:07  -2.34  -1.96  -236.833638    2             
iter:  11  14:44:07  -3.01  -1.92  -235.570192    3             
iter:  12  14:45:07  -3.37  -2.03  -234.909035    3             
iter:  13  14:46:06  -3.54  -2.19  -234.928308    3             
iter:  14  14:47:06  -3.27  -2.21  -234.859083    3             
iter:  15  14:48:07  -3.42  -2.35  -234.723833    3             
iter:  16  14:49:08  -3.67  -2.51  -234.789878    3             
iter:  17  14:50:10  -3.84  -2.46  -234.910024    3             
iter:  18  14:51:13  -3.72  -2.36  -234.665930    3             
iter:  19  14:52:13  -4.24  -2.66  -234.635360    3             
iter:  20  14:53:13  -4.40  -2.77  -234.625561    3             
iter:  21  14:54:14  -4.68  -2.79  -234.619570    3             
iter:  22  14:55:13  -4.50  -2.86  -234.619204    2             
iter:  23  14:56:13  -4.57  -2.84  -234.625903    2             
iter:  24  14:57:13  -5.09  -2.82  -234.608436    2             
iter:  25  14:58:12  -5.22  -2.97  -234.606788    2             
iter:  26  14:59:12  -4.91  -3.01  -234.606763    3             
iter:  27  15:00:12  -5.00  -3.02  -234.609205    3             
iter:  28  15:01:13  -5.26  -3.07  -234.604652    2             
iter:  29  15:02:15  -5.72  -3.14  -234.606608    2             
iter:  30  15:03:16  -5.69  -3.10  -234.606054    2             
iter:  31  15:04:18  -5.68  -3.14  -234.603517    2             
iter:  32  15:05:19  -5.63  -3.23  -234.601841    2             
iter:  33  15:06:20  -5.79  -3.27  -234.603154    2             
iter:  34  15:07:23  -6.20  -3.30  -234.601668    2             
iter:  35  15:08:23  -6.00  -3.35  -234.602725    2             
iter:  36  15:09:25  -6.08  -3.31  -234.602071    2             
iter:  37  15:10:26  -5.88  -3.41  -234.601781    2             
iter:  38  15:11:27  -6.18  -3.46  -234.601502    2             
iter:  39  15:12:29  -6.12  -3.46  -234.602216    2             
iter:  40  15:13:30  -6.29  -3.50  -234.601152    2             
iter:  41  15:14:31  -6.25  -3.56  -234.601587    2             
iter:  42  15:15:33  -6.36  -3.54  -234.601714    2             
iter:  43  15:16:34  -6.49  -3.63  -234.601594    2             
iter:  44  15:17:35  -6.68  -3.66  -234.601259    2             
iter:  45  15:18:36  -6.64  -3.69  -234.601605    2             
iter:  46  15:19:38  -6.69  -3.73  -234.601040    2             
iter:  47  15:20:39  -6.71  -3.73  -234.601052    2             
iter:  48  15:21:41  -7.05  -3.79  -234.601168    2             
iter:  49  15:22:42  -7.02  -3.82  -234.601057    2             
iter:  50  15:23:43  -6.90  -3.83  -234.600928    2             
iter:  51  15:24:44  -6.96  -3.78  -234.601065    2             
iter:  52  15:25:45  -7.10  -3.88  -234.600736    2             
iter:  53  15:26:46  -7.39  -3.90  -234.600801    2             
iter:  54  15:27:48  -7.45  -3.92  -234.600882    2             
iter:  55  15:28:49  -7.17  -3.98  -234.600763    2             
iter:  56  15:29:50  -7.27  -4.02  -234.600700    2             
iter:  57  15:30:52  -7.49  -3.96  -234.600810    2             
iter:  58  15:31:53  -7.88  -4.12  -234.600691    2             

Converged after 58 iterations.

Dipole moment: (23.446583, 15.501646, -0.270242) |e|*Ang

Energy contributions relative to reference atoms: (reference = -12877847.605335)

Kinetic:       -235.746041
Potential:     +110.439951
External:        +0.000000
XC:            -101.395501
Entropy (-ST):   -2.245502
Local:           -6.776350
--------------------------
Free energy:   -235.723442
Extrapolated:  -234.600691

Fermi level: 0.92679

Showing only first 2 kpts
 Kpt  Band  Eigenvalues  Occupancy
  0   359      0.89639    0.14385
  0   360      0.93377    0.12064
  0   361      0.94874    0.11134
  0   362      0.98017    0.09241

  1   359      0.83625    0.17801
  1   360      0.86651    0.16157
  1   361      0.87718    0.15538
  1   362      0.90530    0.13838



Forces in eV/Ang:
  0 Pd   -0.12662    0.30435   -0.35835
  1 Ir    0.94697    0.67604    0.59978
  2 Ru   -1.07216    0.27388    0.68423
  3 Ru    0.41208    0.30742    1.62894
  4 Ir   -0.56733   -0.78767    1.16191
  5 Pt    0.15044    0.16050    0.03767
  6 Pd   -0.49534   -0.40488   -0.24929
  7 Pd    0.37614   -0.25074   -0.58198
  8 Ru    0.34491   -0.13745    0.54529
  9 Ag   -0.25113   -0.09121    0.04353
 10 Ag   -0.02197   -0.09698    0.04404
 11 Ag    0.08714   -0.16387   -0.13592
 12 Pt    0.09505    0.74513   -0.52822
 13 Pt    0.11496    0.54765   -0.71735
 14 Pt   -0.09643    0.18103   -0.18837
 15 Ru   -0.39160   -0.70447   -0.95352
 16 Pt   -0.42967    0.18693   -0.15660
 17 Ir    0.94784   -0.11922   -1.08783
 18 Pt    0.00368    0.00287    0.03372
 19 Ag   -0.00010   -0.03644    0.02225
 20 Pd   -0.04347   -0.04316    0.02659
 21 Ag   -0.01138   -0.02160    0.00238
 22 Ru    0.02043   -0.00545    0.03440
 23 Pd   -0.03927   -0.05218    0.10011
 24 Ir    0.04675   -0.03847   -0.00863
 25 Ir    0.01524    0.02946   -0.05793
 26 Pt   -0.00176   -0.00607    0.04411
 27 Ir    0.18047    0.04091   -0.52504
 28 Pd    0.02330    0.00012   -0.05486
 29 Ag   -0.06502    0.01756   -0.06330
 30 Pd    0.00697   -0.04452   -0.02467
 31 Pd   -0.03116   -0.08906    0.01246
 32 Pd    0.05944   -0.19610    0.32328
 33 Ru    0.03879   -0.08593   -0.18212
 34 Pd   -0.19245    0.19337    0.29108
 35 Ir    0.11115    0.03642    0.22125
 36 Ir   -0.59316    0.05277    1.40046
 37 Pt    0.00797   -0.05309   -0.12859
 38 Ag   -0.83174   -0.54228   -0.26236
 39 Pd    0.30113    0.12979   -0.00286
 40 Pd   -0.15653    0.10991   -0.02754
 41 Ir   -0.07375   -0.48567    1.55284
 42 Ag   -0.05622   -0.19578   -0.02396
 43 Ir    0.01316   -0.00002   -0.12669
 44 Ir   -0.11371   -0.14685   -0.16475
 45 O     1.32306    0.77508   -2.05354

System changes: positions 

Initializing position-dependent things.

Density initialized from wave functions
                                             
                                             
                                             
                                             
                                             
                                             
                 Ag                          
                         Ir    Ir            
            Pd      Pd   POIr    Ir          
                   Ru                        
       Ir    PPt    PAg    Pd                
               Pd                            
        Ir           IAg    Ir     Pt        
                Ag     Ru     Pd             
                                             
           Pt     Ag    PPd    Ir            
                                             
            Pt     Pt    PPt    Ru           
       Ag     Ag    IAg    Pt                
                                             
        Pd     Ir     Ru                     
                                             
                                             
                                             
                                             
                                             

Positions:
   0 Pd     0.000000    1.624086   10.000000    ( 0.0000,  0.0000,  0.0000)
   1 Ir     2.812999    1.624086   10.000000    ( 0.0000,  0.0000,  0.0000)
   2 Ru     5.625998    1.624086   10.000000    ( 0.0000,  0.0000,  0.0000)
   3 Ru     1.406500    4.060215   10.000000    ( 0.0000,  0.0000,  0.0000)
   4 Ir     4.219499    4.060215   10.000000    ( 0.0000,  0.0000,  0.0000)
   5 Pt     7.032498    4.060215   10.000000    ( 0.0000,  0.0000,  0.0000)
   6 Pd     2.812999    6.496343   10.000000    ( 0.0000,  0.0000,  0.0000)
   7 Pd     5.625998    6.496343   10.000000    ( 0.0000,  0.0000,  0.0000)
   8 Ru     8.438997    6.496343   10.000000    ( 0.0000,  0.0000,  0.0000)
   9 Ag     0.000000    0.000000   12.296804    ( 0.0000,  0.0000,  0.0000)
  10 Ag     2.812999    0.000000   12.296804    ( 0.0000,  0.0000,  0.0000)
  11 Ag     5.625998    0.000000   12.296804    ( 0.0000,  0.0000,  0.0000)
  12 Pt     1.406500    2.436129   12.296804    ( 0.0000,  0.0000,  0.0000)
  13 Pt     4.219499    2.436129   12.296804    ( 0.0000,  0.0000,  0.0000)
  14 Pt     7.032498    2.436129   12.296804    ( 0.0000,  0.0000,  0.0000)
  15 Ru     2.812999    4.872257   12.296804    ( 0.0000,  0.0000,  0.0000)
  16 Pt     5.625998    4.872257   12.296804    ( 0.0000,  0.0000,  0.0000)
  17 Ir     8.438997    4.872257   12.296804    ( 0.0000,  0.0000,  0.0000)
  18 Pt     1.331399    0.739599   14.659914    ( 0.0000,  0.0000,  0.0000)
  19 Ag     4.181615    0.791008   14.647236    ( 0.0000,  0.0000,  0.0000)
  20 Pd     6.998195    0.858838   14.622421    ( 0.0000,  0.0000,  0.0000)
  21 Ag     2.799953    3.196932   14.646170    ( 0.0000,  0.0000,  0.0000)
  22 Ru     5.662946    3.374448   14.467254    ( 0.0000,  0.0000,  0.0000)
  23 Pd     8.451299    3.204991   14.576781    ( 0.0000,  0.0000,  0.0000)
  24 Ir     4.206960    5.610550   14.568323    ( 0.0000,  0.0000,  0.0000)
  25 Ir     7.033071    5.580343   14.556779    ( 0.0000,  0.0000,  0.0000)
  26 Pt     9.857551    5.665409   14.600381    ( 0.0000,  0.0000,  0.0000)
  27 Ir    -0.063680    1.509954   16.897827    ( 0.0000,  0.0000,  0.0000)
  28 Pd     2.748569    1.593096   16.987087    ( 0.0000,  0.0000,  0.0000)
  29 Ag     5.527260    1.596362   16.913220    ( 0.0000,  0.0000,  0.0000)
  30 Pd     1.402099    4.027847   16.971384    ( 0.0000,  0.0000,  0.0000)
  31 Pd     4.183631    4.100358   16.893293    ( 0.0000,  0.0000,  0.0000)
  32 Pd     7.012129    3.954224   16.761704    ( 0.0000,  0.0000,  0.0000)
  33 Ru     2.848303    6.534306   16.739398    ( 0.0000,  0.0000,  0.0000)
  34 Pd     5.647209    6.465159   16.817108    ( 0.0000,  0.0000,  0.0000)
  35 Ir     8.561188    6.381198   16.937637    ( 0.0000,  0.0000,  0.0000)
  36 Ir     0.015674   -0.025471   19.090946    ( 0.0000,  0.0000,  0.0000)
  37 Pt     2.803092   -0.101205   19.131375    ( 0.0000,  0.0000,  0.0000)
  38 Ag     5.596358   -0.029285   19.385936    ( 0.0000,  0.0000,  0.0000)
  39 Pd     1.373542    2.386990   19.278747    ( 0.0000,  0.0000,  0.0000)
  40 Pd     4.303043    2.527069   19.253917    ( 0.0000,  0.0000,  0.0000)
  41 Ir     7.167953    2.475949   19.139598    ( 0.0000,  0.0000,  0.0000)
  42 Ag     2.805325    4.878036   19.377572    ( 0.0000,  0.0000,  0.0000)
  43 Ir     5.701260    4.913914   19.029455    ( 0.0000,  0.0000,  0.0000)
  44 Ir     8.269906    4.837604   18.987502    ( 0.0000,  0.0000,  0.0000)
  45 O      7.224008    0.892916   20.546156    ( 0.0000,  0.0000,  0.0000)

Unit cell:
           periodic     x           y           z      points  spacing
  1. axis:    yes    8.465341    0.000000    0.000000    35     0.2095
  2. axis:    yes    4.232670    7.331200    0.000000    35     0.2095
  3. axis:    no     0.000000    0.000000   29.187217   135     0.2162

  Lengths:   8.465341   8.465341  29.187217
  Angles:   90.000000  90.000000  60.000000

Effective grid spacing dv^(1/3) = 0.2221

                     log10-error:    total        iterations:
           time      wfs    density  energy       fermi  poisson
iter:   1  15:33:22  -1.75   +inf  -239.330941    4             
iter:   2  15:34:24  -1.80  -2.01  -254.541535    32            
iter:   3  15:35:25  -1.71  -1.59  -272.229657    3             
iter:   4  15:36:26  -2.30  -1.47  -236.203983    29            
iter:   5  15:37:28  -3.23  -2.39  -236.027178    3             
iter:   6  15:38:29  -3.49  -2.38  -235.773825    3             
iter:   7  15:39:30  -3.63  -2.49  -235.645444    3             
iter:   8  15:40:32  -4.06  -2.58  -235.585054    3             
iter:   9  15:41:33  -3.98  -2.73  -235.806175    3             
iter:  10  15:42:39  -3.97  -2.39  -235.625634    3             
iter:  11  15:43:39  -3.90  -2.58  -235.513902    3             
iter:  12  15:44:39  -4.03  -2.86  -235.512672    3             
iter:  13  15:45:39  -4.57  -2.95  -235.491297    3             
iter:  14  15:46:40  -5.27  -3.11  -235.488017    2             
iter:  15  15:47:40  -4.81  -3.21  -235.514254    3             
iter:  16  15:48:41  -5.12  -2.85  -235.487040    2             
iter:  17  15:49:42  -5.35  -3.21  -235.480782    2             
iter:  18  15:50:43  -5.79  -3.44  -235.482718    2             
iter:  19  15:51:43  -5.30  -3.43  -235.481354    2             
iter:  20  15:52:44  -5.57  -3.41  -235.480925    2             
iter:  21  15:53:45  -5.80  -3.56  -235.480389    2             
iter:  22  15:54:46  -6.06  -3.72  -235.480737    2             
iter:  23  15:55:48  -6.88  -3.80  -235.480160    2             
iter:  24  15:56:48  -6.13  -3.98  -235.480324    2             
iter:  25  15:57:36  -6.64  -3.97  -235.480377    2             
iter:  26  15:58:24  -7.01  -4.16  -235.480006    2             
iter:  27  15:59:17  -7.03  -4.31  -235.480081    2             
iter:  28  16:00:16  -7.71  -4.61  -235.480063    2             

Converged after 28 iterations.

Dipole moment: (26.454081, 17.405165, -0.139783) |e|*Ang

Energy contributions relative to reference atoms: (reference = -12877847.605335)

Kinetic:       -234.689211
Potential:     +109.083945
External:        +0.000000
XC:            -101.865947
Entropy (-ST):   -2.255550
Local:           -6.881075
--------------------------
Free energy:   -236.607837
Extrapolated:  -235.480063

Fermi level: 0.99239

Showing only first 2 kpts
 Kpt  Band  Eigenvalues  Occupancy
  0   359      0.95619    0.14738
  0   360      0.99718    0.12201
  0   361      1.02050    0.10755
  0   362      1.04640    0.09204

  1   359      0.90510    0.17634
  1   360      0.92567    0.16522
  1   361      0.93756    0.15844
  1   362      0.97546    0.13556



Forces in eV/Ang:
  0 Pd   -0.12753    0.31824   -0.35317
  1 Ir    0.95767    0.67465    0.61186
  2 Ru   -1.08548    0.28427    0.68452
  3 Ru    0.39888    0.30561    1.64227
  4 Ir   -0.56193   -0.79011    1.17532
  5 Pt    0.14515    0.15639    0.03932
  6 Pd   -0.50201   -0.41633   -0.24432
  7 Pd    0.39054   -0.25936   -0.58023
  8 Ru    0.34281   -0.13259    0.53365
  9 Ag   -0.24788   -0.09210    0.05820
 10 Ag   -0.02630   -0.09802    0.05669
 11 Ag    0.08043   -0.17290   -0.13199
 12 Pt    0.09105    0.75419   -0.54000
 13 Pt    0.12306    0.56307   -0.72544
 14 Pt   -0.09744    0.20487   -0.18138
 15 Ru   -0.38571   -0.71816   -0.97513
 16 Pt   -0.43064    0.16639   -0.13364
 17 Ir    0.94969   -0.13019   -1.01428
 18 Pt    0.02775   -0.06433    0.02928
 19 Ag   -0.01373   -0.04424   -0.00711
 20 Pd   -0.04698   -0.05468   -0.03339
 21 Ag    0.00224    0.00166   -0.04570
 22 Ru    0.06040    0.02710    0.05897
 23 Pd   -0.06061   -0.00163    0.09292
 24 Ir    0.06336   -0.03531    0.04298
 25 Ir   -0.02080   -0.03257    0.02632
 26 Pt   -0.03315   -0.00608    0.04519
 27 Ir   -0.02416   -0.19361    0.26559
 28 Pd   -0.00709   -0.02267   -0.03097
 29 Ag    0.17972    0.05230    0.15762
 30 Pd   -0.01940   -0.03312    0.01037
 31 Pd    0.02809    0.00145   -0.01412
 32 Pd   -0.04327   -0.14203    0.20079
 33 Ru    0.11205    0.07134    0.01954
 34 Pd   -0.18541    0.05807    0.16465
 35 Ir   -0.01228   -0.05251   -0.07891
 36 Ir   -0.10734    0.15991    0.27846
 37 Pt   -0.26374   -0.05491   -0.04863
 38 Ag   -0.57048   -0.39134   -0.17449
 39 Pd    0.20820    0.06668   -0.11864
 40 Pd   -0.10052    0.01889   -0.03008
 41 Ir    0.11863   -0.02524    0.48797
 42 Ag   -0.04041   -0.11386   -0.01822
 43 Ir   -0.10390   -0.04427    0.06815
 44 Ir   -0.18028   -0.39657    0.10683
 45 O     0.96852    0.63955   -1.48968

System changes: positions 

Initializing position-dependent things.

Density initialized from wave functions
                                             
                                             
                                             
                                             
                                             
                                             
                 Ag                          
                         IO    Ir            
            Pd     RPd   PdIr    Ir          
                     Ag                      
       Ir    PPt    Pd     Pd                
               Pd     Ag                     
        Ir           Ir     Ir     Pt        
                Ag     Ru     Pd             
                                             
           Pt    RAg    PPd    Ir            
                                             
            Pt     Pt    PPt    Ru           
       Ag     Ag    IAg    Pt                
                                             
        Pd     Ir     Ru                     
                                             
                                             
                                             
                                             
                                             

Positions:
   0 Pd     0.000000    1.624086   10.000000    ( 0.0000,  0.0000,  0.0000)
   1 Ir     2.812999    1.624086   10.000000    ( 0.0000,  0.0000,  0.0000)
   2 Ru     5.625998    1.624086   10.000000    ( 0.0000,  0.0000,  0.0000)
   3 Ru     1.406500    4.060215   10.000000    ( 0.0000,  0.0000,  0.0000)
   4 Ir     4.219499    4.060215   10.000000    ( 0.0000,  0.0000,  0.0000)
   5 Pt     7.032498    4.060215   10.000000    ( 0.0000,  0.0000,  0.0000)
   6 Pd     2.812999    6.496343   10.000000    ( 0.0000,  0.0000,  0.0000)
   7 Pd     5.625998    6.496343   10.000000    ( 0.0000,  0.0000,  0.0000)
   8 Ru     8.438997    6.496343   10.000000    ( 0.0000,  0.0000,  0.0000)
   9 Ag     0.000000    0.000000   12.296804    ( 0.0000,  0.0000,  0.0000)
  10 Ag     2.812999    0.000000   12.296804    ( 0.0000,  0.0000,  0.0000)
  11 Ag     5.625998    0.000000   12.296804    ( 0.0000,  0.0000,  0.0000)
  12 Pt     1.406500    2.436129   12.296804    ( 0.0000,  0.0000,  0.0000)
  13 Pt     4.219499    2.436129   12.296804    ( 0.0000,  0.0000,  0.0000)
  14 Pt     7.032498    2.436129   12.296804    ( 0.0000,  0.0000,  0.0000)
  15 Ru     2.812999    4.872257   12.296804    ( 0.0000,  0.0000,  0.0000)
  16 Pt     5.625998    4.872257   12.296804    ( 0.0000,  0.0000,  0.0000)
  17 Ir     8.438997    4.872257   12.296804    ( 0.0000,  0.0000,  0.0000)
  18 Pt     1.331687    0.739823   14.662546    ( 0.0000,  0.0000,  0.0000)
  19 Ag     4.181608    0.788164   14.648972    ( 0.0000,  0.0000,  0.0000)
  20 Pd     6.994802    0.855471   14.624496    ( 0.0000,  0.0000,  0.0000)
  21 Ag     2.799065    3.195246   14.646355    ( 0.0000,  0.0000,  0.0000)
  22 Ru     5.664540    3.374023   14.469939    ( 0.0000,  0.0000,  0.0000)
  23 Pd     8.448235    3.200918   14.584593    ( 0.0000,  0.0000,  0.0000)
  24 Ir     4.210608    5.607548   14.567649    ( 0.0000,  0.0000,  0.0000)
  25 Ir     7.034260    5.582642   14.552258    ( 0.0000,  0.0000,  0.0000)
  26 Pt     9.857413    5.664935   14.603823    ( 0.0000,  0.0000,  0.0000)
  27 Ir    -0.049597    1.513146   16.856854    ( 0.0000,  0.0000,  0.0000)
  28 Pd     2.750387    1.593105   16.982806    ( 0.0000,  0.0000,  0.0000)
  29 Ag     5.522186    1.597732   16.908280    ( 0.0000,  0.0000,  0.0000)
  30 Pd     1.402643    4.024373   16.969459    ( 0.0000,  0.0000,  0.0000)
  31 Pd     4.181199    4.093408   16.894265    ( 0.0000,  0.0000,  0.0000)
  32 Pd     7.016768    3.938921   16.786932    ( 0.0000,  0.0000,  0.0000)
  33 Ru     2.851330    6.527600   16.725186    ( 0.0000,  0.0000,  0.0000)
  34 Pd     5.632191    6.480248   16.839823    ( 0.0000,  0.0000,  0.0000)
  35 Ir     8.569862    6.384040   16.954903    ( 0.0000,  0.0000,  0.0000)
  36 Ir    -0.030614   -0.021352   19.200235    ( 0.0000,  0.0000,  0.0000)
  37 Pt     2.803715   -0.105348   19.121340    ( 0.0000,  0.0000,  0.0000)
  38 Ag     5.531452   -0.071603   19.365462    ( 0.0000,  0.0000,  0.0000)
  39 Pd     1.397041    2.397119   19.278524    ( 0.0000,  0.0000,  0.0000)
  40 Pd     4.290828    2.535646   19.251768    ( 0.0000,  0.0000,  0.0000)
  41 Ir     7.162197    2.438048   19.260778    ( 0.0000,  0.0000,  0.0000)
  42 Ag     2.800938    4.862758   19.375702    ( 0.0000,  0.0000,  0.0000)
  43 Ir     5.702287    4.913913   19.019569    ( 0.0000,  0.0000,  0.0000)
  44 Ir     8.261032    4.826144   18.974645    ( 0.0000,  0.0000,  0.0000)
  45 O      7.327257    0.953402   20.385902    ( 0.0000,  0.0000,  0.0000)

Unit cell:
           periodic     x           y           z      points  spacing
  1. axis:    yes    8.465341    0.000000    0.000000    35     0.2095
  2. axis:    yes    4.232670    7.331200    0.000000    35     0.2095
  3. axis:    no     0.000000    0.000000   29.187217   135     0.2162

  Lengths:   8.465341   8.465341  29.187217
  Angles:   90.000000  90.000000  60.000000

Effective grid spacing dv^(1/3) = 0.2221

                     log10-error:    total        iterations:
           time      wfs    density  energy       fermi  poisson
iter:   1  16:01:46  -1.71   +inf  -239.784276    4             
iter:   2  16:02:47  -1.72  -1.99  -258.259314    37            
iter:   3  16:03:48  -1.72  -1.56  -266.946816    3             
iter:   4  16:04:49  -2.35  -1.50  -236.227097    37            
iter:   5  16:05:51  -3.20  -2.36  -236.320212    3             
iter:   6  16:06:52  -3.30  -2.21  -235.672081    3             
iter:   7  16:07:52  -3.36  -2.48  -235.538986    3             
iter:   8  16:08:52  -3.99  -2.52  -235.456179    3             
iter:   9  16:09:52  -4.18  -2.72  -235.470527    3             
iter:  10  16:10:53  -4.25  -2.60  -235.473164    2             
iter:  11  16:11:53  -3.74  -2.61  -235.365561    3             
iter:  12  16:12:53  -4.26  -2.95  -235.381569    3             
iter:  13  16:13:54  -4.45  -2.93  -235.352646    3             
iter:  14  16:14:55  -5.12  -3.13  -235.352226    3             
iter:  15  16:15:57  -5.19  -3.21  -235.349061    2             
iter:  16  16:17:00  -5.51  -3.19  -235.350720    2             
iter:  17  16:18:02  -5.54  -3.20  -235.344688    2             
iter:  18  16:19:05  -5.86  -3.41  -235.347024    2             
iter:  19  16:20:08  -5.64  -3.45  -235.344075    2             
iter:  20  16:21:11  -5.72  -3.50  -235.344726    2             
iter:  21  16:22:13  -5.49  -3.60  -235.346854    2             
iter:  22  16:23:17  -5.79  -3.31  -235.345315    2             
iter:  23  16:24:20  -5.80  -3.52  -235.343846    2             
iter:  24  16:25:23  -5.81  -3.75  -235.346629    2             
iter:  25  16:26:25  -6.22  -3.69  -235.343885    2             
iter:  26  16:27:27  -6.80  -3.92  -235.344387    2             
iter:  27  16:28:29  -7.19  -4.10  -235.344167    2             
iter:  28  16:29:31  -7.03  -4.02  -235.344464    2             
iter:  29  16:30:33  -7.08  -3.91  -235.344277    2             
iter:  30  16:31:35  -6.81  -4.31  -235.344583    2             
iter:  31  16:32:38  -7.24  -4.27  -235.343928    2             
iter:  32  16:33:40  -6.93  -4.29  -235.344361    2             
iter:  33  16:34:40  -7.50  -4.50  -235.344218    2             

Converged after 33 iterations.

Dipole moment: (29.440435, 19.116183, 0.002499) |e|*Ang

Energy contributions relative to reference atoms: (reference = -12877847.605335)

Kinetic:       -216.744645
Potential:      +93.874287
External:        +0.000000
XC:            -104.362331
Entropy (-ST):   -2.246910
Local:           -6.988075
--------------------------
Free energy:   -236.467673
Extrapolated:  -235.344218

Fermi level: 1.06261

Showing only first 2 kpts
 Kpt  Band  Eigenvalues  Occupancy
  0   359      1.02193    0.15008
  0   360      1.07755    0.11568
  0   361      1.09630    0.10414
  0   362      1.11726    0.09167

  1   359      0.97816    0.17485
  1   360      0.98733    0.16995
  1   361      1.00545    0.15978
  1   362      1.03809    0.14025



Forces in eV/Ang:
  0 Pd   -0.13192    0.31708   -0.35590
  1 Ir    0.96027    0.66755    0.62257
  2 Ru   -1.08983    0.28767    0.68559
  3 Ru    0.39418    0.30187    1.64931
  4 Ir   -0.55906   -0.78693    1.18581
  5 Pt    0.14370    0.15216    0.03613
  6 Pd   -0.50317   -0.41695   -0.24289
  7 Pd    0.39265   -0.25805   -0.57996
  8 Ru    0.34488   -0.13012    0.53065
  9 Ag   -0.24911   -0.09083    0.06643
 10 Ag   -0.03436   -0.09354    0.07102
 11 Ag    0.07790   -0.17814   -0.12409
 12 Pt    0.08834    0.75152   -0.54987
 13 Pt    0.12634    0.56296   -0.72094
 14 Pt   -0.09815    0.20968   -0.17024
 15 Ru   -0.38039   -0.72136   -0.99548
 16 Pt   -0.43331    0.15649   -0.12264
 17 Ir    0.94873   -0.13666   -0.92789
 18 Pt    0.08153   -0.13059   -0.03059
 19 Ag   -0.02406   -0.04388   -0.03238
 20 Pd   -0.05393   -0.05882   -0.07129
 21 Ag    0.01234    0.01950   -0.07237
 22 Ru    0.08493    0.03006    0.08314
 23 Pd   -0.06737    0.06874    0.05762
 24 Ir    0.07073   -0.02820    0.08959
 25 Ir   -0.05976   -0.08995    0.11053
 26 Pt   -0.07585   -0.01498    0.02452
 27 Ir   -0.14136   -0.27571    0.57964
 28 Pd   -0.03685   -0.05002   -0.01017
 29 Ag    0.34595    0.06288    0.31642
 30 Pd   -0.04382   -0.02592    0.03774
 31 Pd    0.09731    0.08346   -0.05413
 32 Pd   -0.13986   -0.08183   -0.03571
 33 Ru    0.11511    0.19407    0.17401
 34 Pd   -0.13538   -0.10021   -0.01857
 35 Ir   -0.12215   -0.12118   -0.45825
 36 Ir    1.61747   -1.01764   -1.81443
 37 Pt   -0.56330   -0.04586    0.06421
 38 Ag   -0.25724   -0.22928   -0.06589
 39 Pd    0.17597    0.03832   -0.24918
 40 Pd   -0.04203   -0.08234   -0.02861
 41 Ir   -0.11490    2.31763   -1.69027
 42 Ag   -0.02759   -0.01687   -0.00685
 43 Ir   -0.14132   -0.10106    0.29567
 44 Ir   -0.21611   -0.56682    0.46656
 45 O    -0.23295   -0.26182    2.12527

System changes: positions 

Initializing position-dependent things.

Density initialized from wave functions
                                             
                                             
                                             
                                             
                                             
                                             
                 Ag                          
                         IO    Ir            
            Pd     RPd   PdIr    Ir          
                                             
       Ir    PPt    PAg    Pd                
               Pd     Ag                     
        Ir           Ir     Ir     Pt        
                Ag     Ru     Pd             
                                             
           Pt    RAg    PPd    Ir            
                                             
            Pt     Pt    PPt    Ru           
       Ag     Ag    IAg    Pt                
                                             
        Pd     Ir     Ru                     
                                             
                                             
                                             
                                             
                                             

Positions:
   0 Pd     0.000000    1.624086   10.000000    ( 0.0000,  0.0000,  0.0000)
   1 Ir     2.812999    1.624086   10.000000    ( 0.0000,  0.0000,  0.0000)
   2 Ru     5.625998    1.624086   10.000000    ( 0.0000,  0.0000,  0.0000)
   3 Ru     1.406500    4.060215   10.000000    ( 0.0000,  0.0000,  0.0000)
   4 Ir     4.219499    4.060215   10.000000    ( 0.0000,  0.0000,  0.0000)
   5 Pt     7.032498    4.060215   10.000000    ( 0.0000,  0.0000,  0.0000)
   6 Pd     2.812999    6.496343   10.000000    ( 0.0000,  0.0000,  0.0000)
   7 Pd     5.625998    6.496343   10.000000    ( 0.0000,  0.0000,  0.0000)
   8 Ru     8.438997    6.496343   10.000000    ( 0.0000,  0.0000,  0.0000)
   9 Ag     0.000000    0.000000   12.296804    ( 0.0000,  0.0000,  0.0000)
  10 Ag     2.812999    0.000000   12.296804    ( 0.0000,  0.0000,  0.0000)
  11 Ag     5.625998    0.000000   12.296804    ( 0.0000,  0.0000,  0.0000)
  12 Pt     1.406500    2.436129   12.296804    ( 0.0000,  0.0000,  0.0000)
  13 Pt     4.219499    2.436129   12.296804    ( 0.0000,  0.0000,  0.0000)
  14 Pt     7.032498    2.436129   12.296804    ( 0.0000,  0.0000,  0.0000)
  15 Ru     2.812999    4.872257   12.296804    ( 0.0000,  0.0000,  0.0000)
  16 Pt     5.625998    4.872257   12.296804    ( 0.0000,  0.0000,  0.0000)
  17 Ir     8.438997    4.872257   12.296804    ( 0.0000,  0.0000,  0.0000)
  18 Pt     1.331518    0.739691   14.661001    ( 0.0000,  0.0000,  0.0000)
  19 Ag     4.181612    0.789833   14.647953    ( 0.0000,  0.0000,  0.0000)
  20 Pd     6.996794    0.857448   14.623278    ( 0.0000,  0.0000,  0.0000)
  21 Ag     2.799586    3.196235   14.646246    ( 0.0000,  0.0000,  0.0000)
  22 Ru     5.663605    3.374273   14.468363    ( 0.0000,  0.0000,  0.0000)
  23 Pd     8.450034    3.203309   14.580007    ( 0.0000,  0.0000,  0.0000)
  24 Ir     4.208467    5.609310   14.568045    ( 0.0000,  0.0000,  0.0000)
  25 Ir     7.033562    5.581293   14.554912    ( 0.0000,  0.0000,  0.0000)
  26 Pt     9.857494    5.665213   14.601803    ( 0.0000,  0.0000,  0.0000)
  27 Ir    -0.057864    1.511272   16.880906    ( 0.0000,  0.0000,  0.0000)
  28 Pd     2.749320    1.593100   16.985319    ( 0.0000,  0.0000,  0.0000)
  29 Ag     5.525164    1.596928   16.911180    ( 0.0000,  0.0000,  0.0000)
  30 Pd     1.402324    4.026412   16.970589    ( 0.0000,  0.0000,  0.0000)
  31 Pd     4.182627    4.097488   16.893694    ( 0.0000,  0.0000,  0.0000)
  32 Pd     7.014045    3.947904   16.772122    ( 0.0000,  0.0000,  0.0000)
  33 Ru     2.849553    6.531537   16.733529    ( 0.0000,  0.0000,  0.0000)
  34 Pd     5.641007    6.471390   16.826489    ( 0.0000,  0.0000,  0.0000)
  35 Ir     8.564770    6.382372   16.944767    ( 0.0000,  0.0000,  0.0000)
  36 Ir    -0.003441   -0.023770   19.136079    ( 0.0000,  0.0000,  0.0000)
  37 Pt     2.803349   -0.102915   19.127231    ( 0.0000,  0.0000,  0.0000)
  38 Ag     5.569554   -0.046761   19.377481    ( 0.0000,  0.0000,  0.0000)
  39 Pd     1.383246    2.391173   19.278655    ( 0.0000,  0.0000,  0.0000)
  40 Pd     4.297998    2.530611   19.253029    ( 0.0000,  0.0000,  0.0000)
  41 Ir     7.165576    2.460297   19.189642    ( 0.0000,  0.0000,  0.0000)
  42 Ag     2.803513    4.871727   19.376800    ( 0.0000,  0.0000,  0.0000)
  43 Ir     5.701684    4.913914   19.025372    ( 0.0000,  0.0000,  0.0000)
  44 Ir     8.266241    4.832871   18.982192    ( 0.0000,  0.0000,  0.0000)
  45 O      7.266646    0.917895   20.479976    ( 0.0000,  0.0000,  0.0000)

Unit cell:
           periodic     x           y           z      points  spacing
  1. axis:    yes    8.465341    0.000000    0.000000    35     0.2095
  2. axis:    yes    4.232670    7.331200    0.000000    35     0.2095
  3. axis:    no     0.000000    0.000000   29.187217   135     0.2162

  Lengths:   8.465341   8.465341  29.187217
  Angles:   90.000000  90.000000  60.000000

Effective grid spacing dv^(1/3) = 0.2221

                     log10-error:    total        iterations:
           time      wfs    density  energy       fermi  poisson
iter:   1  16:36:08  -1.72   +inf  -244.185522    35            
iter:   2  16:37:09  -1.14  -1.78  -399.243368    37            
iter:   3  16:38:10  -1.47  -1.14  -237.657866    37            
iter:   4  16:39:11  -2.21  -2.09  -241.203356    4             
iter:   5  16:40:11  -2.81  -1.78  -236.080385    3             
iter:   6  16:41:12  -3.60  -2.39  -235.834427    3             
iter:   7  16:42:13  -3.75  -2.53  -235.689576    2             
iter:   8  16:43:14  -3.96  -2.78  -235.642585    3             
iter:   9  16:44:14  -4.34  -2.91  -235.644496    3             
iter:  10  16:45:14  -4.21  -2.91  -235.619895    3             
iter:  11  16:46:15  -4.18  -2.99  -235.621307    3             
iter:  12  16:47:16  -4.56  -2.94  -235.623010    2             
iter:  13  16:48:18  -4.79  -2.98  -235.613642    2             
iter:  14  16:49:19  -5.52  -3.00  -235.602168    2             
iter:  15  16:50:21  -5.42  -3.25  -235.600072    2             
iter:  16  16:51:23  -5.84  -3.49  -235.599355    2             
iter:  17  16:52:25  -5.43  -3.38  -235.600082    2             
iter:  18  16:53:26  -5.65  -3.60  -235.599127    2             
iter:  19  16:54:27  -6.12  -3.72  -235.598839    2             
iter:  20  16:55:28  -5.86  -3.76  -235.600269    2             
iter:  21  16:56:30  -6.16  -3.47  -235.598887    2             
iter:  22  16:57:31  -6.24  -3.83  -235.598255    2             
iter:  23  16:58:32  -6.54  -4.00  -235.599243    2             
iter:  24  16:59:33  -6.89  -3.97  -235.598482    2             
iter:  25  17:00:34  -7.30  -4.28  -235.598492    2             
iter:  26  17:01:36  -7.17  -4.37  -235.598552    2             
iter:  27  17:02:37  -7.57  -4.16  -235.598532    2             

Converged after 27 iterations.

Dipole moment: (27.701065, 18.139295, -0.082048) |e|*Ang

Energy contributions relative to reference atoms: (reference = -12877847.605335)

Kinetic:       -230.477642
Potential:     +105.501071
External:        +0.000000
XC:            -102.593976
Entropy (-ST):   -2.255010
Local:           -6.900480
--------------------------
Free energy:   -236.726037
Extrapolated:  -235.598532

Fermi level: 1.02250

Showing only first 2 kpts
 Kpt  Band  Eigenvalues  Occupancy
  0   359      0.98454    0.14844
  0   360      1.03143    0.11942
  0   361      1.05406    0.10544
  0   362      1.07697    0.09177

  1   359      0.93713    0.17533
  1   360      0.95186    0.16740
  1   361      0.96508    0.15993
  1   362      1.00324    0.13700



Forces in eV/Ang:
  0 Pd   -0.12908    0.31872   -0.34872
  1 Ir    0.95709    0.67351    0.62747
  2 Ru   -1.08689    0.28776    0.69053
  3 Ru    0.39683    0.30335    1.65428
  4 Ir   -0.55977   -0.78880    1.19030
  5 Pt    0.14238    0.15343    0.04802
  6 Pd   -0.50020   -0.41698   -0.23752
  7 Pd    0.39186   -0.26010   -0.57355
  8 Ru    0.34314   -0.13195    0.53935
  9 Ag   -0.24844   -0.09076    0.05900
 10 Ag   -0.02861   -0.09617    0.05659
 11 Ag    0.07939   -0.17489   -0.13317
 12 Pt    0.08977    0.75279   -0.54899
 13 Pt    0.12470    0.56313   -0.73142
 14 Pt   -0.09769    0.20863   -0.18318
 15 Ru   -0.38352   -0.71961   -0.98750
 16 Pt   -0.43035    0.15990   -0.13463
 17 Ir    0.94883   -0.13320   -0.98581
 18 Pt    0.04851   -0.08910    0.00834
 19 Ag   -0.01911   -0.04370   -0.01506
 20 Pd   -0.05125   -0.05741   -0.05580
 21 Ag    0.00570    0.00877   -0.05446
 22 Ru    0.07185    0.03313    0.06783
 23 Pd   -0.06121    0.02430    0.08020
 24 Ir    0.06490   -0.03487    0.05875
 25 Ir   -0.03707   -0.05798    0.06329
 26 Pt   -0.04785   -0.00976    0.04259
 27 Ir   -0.09136   -0.24793    0.46225
 28 Pd   -0.01548   -0.03580   -0.02637
 29 Ag    0.26033    0.06307    0.22620
 30 Pd   -0.03094   -0.02606    0.01277
 31 Pd    0.05271    0.03453   -0.04233
 32 Pd   -0.07924   -0.12676    0.11240
 33 Ru    0.12604    0.12924    0.09259
 34 Pd   -0.16819   -0.00184    0.09034
 35 Ir   -0.05177   -0.07933   -0.23909
 36 Ir    0.42237   -0.12966   -0.42960
 37 Pt   -0.39479   -0.03998    0.00690
 38 Ag   -0.46447   -0.33090   -0.12400
 39 Pd    0.22122    0.06313   -0.20303
 40 Pd   -0.08519   -0.02414   -0.02545
 41 Ir    0.09032    0.63593   -0.23551
 42 Ag   -0.03790   -0.08012   -0.00792
 43 Ir   -0.12677   -0.06053    0.16594
 44 Ir   -0.20374   -0.49709    0.25659
 45 O     0.48300    0.25324   -0.14764

System changes: positions 

Initializing position-dependent things.

Density initialized from wave functions
                                             
                                             
                                             
                                             
                                             
                                             
                 Ag                          
                         IO    Ir            
            Pd     RPd   PdIr    Ir          
                     Ag                      
       Ir    PPt    Pd     Pd                
               Pd     Ag                     
        Ir           Ir     Ir     Pt        
                Ag      Ru    Pd             
                                             
           Pt     Ag    PPd    Ir            
                                             
            Pt     Pt    PPt    Ru           
       Ag     Ag    IAg    Pt                
                                             
        Pd     Ir     Ru                     
                                             
                                             
                                             
                                             
                                             

Positions:
   0 Pd     0.000000    1.624086   10.000000    ( 0.0000,  0.0000,  0.0000)
   1 Ir     2.812999    1.624086   10.000000    ( 0.0000,  0.0000,  0.0000)
   2 Ru     5.625998    1.624086   10.000000    ( 0.0000,  0.0000,  0.0000)
   3 Ru     1.406500    4.060215   10.000000    ( 0.0000,  0.0000,  0.0000)
   4 Ir     4.219499    4.060215   10.000000    ( 0.0000,  0.0000,  0.0000)
   5 Pt     7.032498    4.060215   10.000000    ( 0.0000,  0.0000,  0.0000)
   6 Pd     2.812999    6.496343   10.000000    ( 0.0000,  0.0000,  0.0000)
   7 Pd     5.625998    6.496343   10.000000    ( 0.0000,  0.0000,  0.0000)
   8 Ru     8.438997    6.496343   10.000000    ( 0.0000,  0.0000,  0.0000)
   9 Ag     0.000000    0.000000   12.296804    ( 0.0000,  0.0000,  0.0000)
  10 Ag     2.812999    0.000000   12.296804    ( 0.0000,  0.0000,  0.0000)
  11 Ag     5.625998    0.000000   12.296804    ( 0.0000,  0.0000,  0.0000)
  12 Pt     1.406500    2.436129   12.296804    ( 0.0000,  0.0000,  0.0000)
  13 Pt     4.219499    2.436129   12.296804    ( 0.0000,  0.0000,  0.0000)
  14 Pt     7.032498    2.436129   12.296804    ( 0.0000,  0.0000,  0.0000)
  15 Ru     2.812999    4.872257   12.296804    ( 0.0000,  0.0000,  0.0000)
  16 Pt     5.625998    4.872257   12.296804    ( 0.0000,  0.0000,  0.0000)
  17 Ir     8.438997    4.872257   12.296804    ( 0.0000,  0.0000,  0.0000)
  18 Pt     1.336473    0.730793   14.662550    ( 0.0000,  0.0000,  0.0000)
  19 Ag     4.179688    0.784671   14.646908    ( 0.0000,  0.0000,  0.0000)
  20 Pd     6.990724    0.850765   14.618228    ( 0.0000,  0.0000,  0.0000)
  21 Ag     2.799920    3.196662   14.640821    ( 0.0000,  0.0000,  0.0000)
  22 Ru     5.671260    3.377490   14.475909    ( 0.0000,  0.0000,  0.0000)
  23 Pd     8.443051    3.204652   14.590182    ( 0.0000,  0.0000,  0.0000)
  24 Ir     4.215979    5.604993   14.573770    ( 0.0000,  0.0000,  0.0000)
  25 Ir     7.030156    5.576084   14.560054    ( 0.0000,  0.0000,  0.0000)
  26 Pt     9.852645    5.664104   14.607015    ( 0.0000,  0.0000,  0.0000)
  27 Ir    -0.063245    1.487205   16.916314    ( 0.0000,  0.0000,  0.0000)
  28 Pd     2.748255    1.589503   16.981511    ( 0.0000,  0.0000,  0.0000)
  29 Ag     5.549970    1.603640   16.932589    ( 0.0000,  0.0000,  0.0000)
  30 Pd     1.399360    4.022853   16.971353    ( 0.0000,  0.0000,  0.0000)
  31 Pd     4.187269    4.099082   16.889701    ( 0.0000,  0.0000,  0.0000)
  32 Pd     7.007331    3.931023   16.790242    ( 0.0000,  0.0000,  0.0000)
  33 Ru     2.863044    6.542720   16.738999    ( 0.0000,  0.0000,  0.0000)
  34 Pd     5.620036    6.475283   16.841712    ( 0.0000,  0.0000,  0.0000)
  35 Ir     8.561908    6.375164   16.925392    ( 0.0000,  0.0000,  0.0000)
  36 Ir     0.026519   -0.035694   19.122417    ( 0.0000,  0.0000,  0.0000)
  37 Pt     2.763820   -0.108055   19.125213    ( 0.0000,  0.0000,  0.0000)
  38 Ag     5.505310   -0.091469   19.359480    ( 0.0000,  0.0000,  0.0000)
  39 Pd     1.411841    2.400258   19.258180    ( 0.0000,  0.0000,  0.0000)
  40 Pd     4.286131    2.530501   19.249890    ( 0.0000,  0.0000,  0.0000)
  41 Ir     7.173102    2.513998   19.198708    ( 0.0000,  0.0000,  0.0000)
  42 Ag     2.798516    4.859542   19.375499    ( 0.0000,  0.0000,  0.0000)
  43 Ir     5.689215    4.907826   19.039386    ( 0.0000,  0.0000,  0.0000)
  44 Ir     8.243357    4.779792   19.004519    ( 0.0000,  0.0000,  0.0000)
  45 O      7.343115    0.959704   20.421824    ( 0.0000,  0.0000,  0.0000)

Unit cell:
           periodic     x           y           z      points  spacing
  1. axis:    yes    8.465341    0.000000    0.000000    35     0.2095
  2. axis:    yes    4.232670    7.331200    0.000000    35     0.2095
  3. axis:    no     0.000000    0.000000   29.187217   135     0.2162

  Lengths:   8.465341   8.465341  29.187217
  Angles:   90.000000  90.000000  60.000000

Effective grid spacing dv^(1/3) = 0.2221

                     log10-error:    total        iterations:
           time      wfs    density  energy       fermi  poisson
iter:   1  17:04:07  -1.91   +inf  -249.905611    3             
iter:   2  17:05:08  -0.31  -1.59  -562.907916    35            
iter:   3  17:06:10  -1.19  -0.96  -257.022554    39            
iter:   4  17:07:11  -1.88  -1.61  -237.855350    35            
iter:   5  17:08:13  -2.67  -2.11  -236.137027    3             
iter:   6  17:09:15  -3.38  -2.49  -235.935407    3             
iter:   7  17:10:16  -3.67  -2.64  -235.907676    2             
iter:   8  17:11:17  -3.72  -2.54  -236.178313    2             
iter:   9  17:12:19  -4.02  -2.36  -235.790066    3             
iter:  10  17:13:20  -4.52  -2.89  -235.775040    2             
iter:  11  17:14:22  -4.53  -2.95  -235.777976    3             
iter:  12  17:15:25  -4.81  -3.01  -235.762590    2             
iter:  13  17:16:28  -4.63  -3.11  -235.762015    3             
iter:  14  17:17:32  -4.85  -3.21  -235.780028    3             
iter:  15  17:18:35  -5.23  -2.96  -235.759577    2             
iter:  16  17:19:37  -5.47  -3.28  -235.759745    2             
iter:  17  17:20:40  -5.82  -3.27  -235.761249    2             
iter:  18  17:21:41  -5.46  -3.28  -235.755898    2             
iter:  19  17:22:43  -5.94  -3.46  -235.757387    2             
iter:  20  17:23:47  -6.09  -3.46  -235.757523    2             
iter:  21  17:24:52  -5.84  -3.45  -235.758442    2             
iter:  22  17:25:53  -5.68  -3.36  -235.755384    2             
iter:  23  17:26:54  -6.18  -3.77  -235.756202    2             
iter:  24  17:27:54  -6.08  -3.87  -235.755368    2             
iter:  25  17:28:56  -6.62  -3.78  -235.755970    2             
iter:  26  17:29:56  -6.56  -4.00  -235.755580    2             
iter:  27  17:30:57  -6.84  -4.08  -235.755682    2             
iter:  28  17:31:59  -6.83  -3.84  -235.755358    2             
iter:  29  17:33:01  -7.21  -4.10  -235.755599    2             
iter:  30  17:34:03  -7.06  -4.15  -235.755405    2             
iter:  31  17:35:04  -6.84  -4.05  -235.756266    2             
iter:  32  17:36:06  -7.07  -4.03  -235.755649    2             
iter:  33  17:37:08  -7.69  -4.34  -235.755662    2             

Converged after 33 iterations.

Dipole moment: (26.798447, 20.516886, -0.061189) |e|*Ang

Energy contributions relative to reference atoms: (reference = -12877847.605335)

Kinetic:       -225.025294
Potential:     +100.721409
External:        +0.000000
XC:            -103.422285
Entropy (-ST):   -2.243409
Local:           -6.907788
--------------------------
Free energy:   -236.877367
Extrapolated:  -235.755662

Fermi level: 1.03266

Showing only first 2 kpts
 Kpt  Band  Eigenvalues  Occupancy
  0   359      0.99996    0.14526
  0   360      1.03791    0.12172
  0   361      1.06365    0.10579
  0   362      1.09096    0.08956

  1   359      0.94724    0.17536
  1   360      0.96452    0.16602
  1   361      0.98437    0.15461
  1   362      1.00511    0.14211



Forces in eV/Ang:
  0 Pd   -0.13012    0.31835   -0.35232
  1 Ir    0.95723    0.67135    0.61961
  2 Ru   -1.08878    0.28745    0.69360
  3 Ru    0.39116    0.30517    1.66310
  4 Ir   -0.55722   -0.79155    1.17979
  5 Pt    0.14110    0.15549    0.04721
  6 Pd   -0.50262   -0.41614   -0.24043
  7 Pd    0.39113   -0.25761   -0.57640
  8 Ru    0.34048   -0.13031    0.54606
  9 Ag   -0.24428   -0.09758    0.07746
 10 Ag   -0.03520   -0.10412    0.06931
 11 Ag    0.07432   -0.18676   -0.13366
 12 Pt    0.07116    0.74155   -0.50958
 13 Pt    0.13938    0.56172   -0.71255
 14 Pt   -0.08755    0.21358   -0.15110
 15 Ru   -0.38060   -0.70732   -0.97185
 16 Pt   -0.44142    0.14824   -0.11274
 17 Ir    0.95230   -0.14691   -0.96545
 18 Pt   -0.05364   -0.00759    0.03981
 19 Ag    0.03290    0.03159    0.05992
 20 Pd    0.02575   -0.01206    0.03140
 21 Ag   -0.00926   -0.00520   -0.01204
 22 Ru    0.01395   -0.05048    0.02133
 23 Pd   -0.01312   -0.06351    0.05818
 24 Ir    0.02313    0.00343    0.00465
 25 Ir    0.01452   -0.03055    0.15037
 26 Pt    0.03555   -0.03511    0.01859
 27 Ir   -0.01228   -0.01997    0.04236
 28 Pd    0.09782   -0.05770   -0.07447
 29 Ag    0.01399   -0.10568    0.12204
 30 Pd   -0.01917    0.01389   -0.01248
 31 Pd   -0.02793   -0.03975   -0.03028
 32 Pd   -0.01506    0.08728   -0.07893
 33 Ru   -0.07906   -0.03552    0.03457
 34 Pd    0.04406   -0.13229   -0.08545
 35 Ir   -0.20029   -0.14264   -0.01829
 36 Ir    0.24938   -0.21843   -0.23758
 37 Pt   -0.15515   -0.15821   -0.00038
 38 Ag    0.03066   -0.04992    0.05165
 39 Pd    0.03036   -0.01360   -0.06971
 40 Pd   -0.02276   -0.10047   -0.01053
 41 Ir   -0.14605    0.11121   -0.12412
 42 Ag   -0.02618    0.05675   -0.01040
 43 Ir   -0.14838   -0.05497    0.15937
 44 Ir    0.15823    0.32059    0.02490
 45 O     0.23046    0.24504   -0.20645

System changes: positions 

Initializing position-dependent things.

Density initialized from wave functions
                                             
                                             
                                             
                                             
                                             
                                             
                 Ag                          
                        IrO    Ir            
             Pd    RPd   PdIr   Ir           
                     Ag                      
        Ir   PPt    Pd     Pd                
        Ir     Pd     Ag                     
                     Ir     Ir     Pt        
                Ag      Ru    Pd             
                                             
           Pt     Ag    PPd    Ir            
                                             
            Pt     Pt    PPt    Ru           
       Ag     Ag    IAg    Pt                
                                             
         Pd    Ir     Ru                     
                                             
                                             
                                             
                                             
                                             

Positions:
   0 Pd     0.000000    1.624086   10.000000    ( 0.0000,  0.0000,  0.0000)
   1 Ir     2.812999    1.624086   10.000000    ( 0.0000,  0.0000,  0.0000)
   2 Ru     5.625998    1.624086   10.000000    ( 0.0000,  0.0000,  0.0000)
   3 Ru     1.406500    4.060215   10.000000    ( 0.0000,  0.0000,  0.0000)
   4 Ir     4.219499    4.060215   10.000000    ( 0.0000,  0.0000,  0.0000)
   5 Pt     7.032498    4.060215   10.000000    ( 0.0000,  0.0000,  0.0000)
   6 Pd     2.812999    6.496343   10.000000    ( 0.0000,  0.0000,  0.0000)
   7 Pd     5.625998    6.496343   10.000000    ( 0.0000,  0.0000,  0.0000)
   8 Ru     8.438997    6.496343   10.000000    ( 0.0000,  0.0000,  0.0000)
   9 Ag     0.000000    0.000000   12.296804    ( 0.0000,  0.0000,  0.0000)
  10 Ag     2.812999    0.000000   12.296804    ( 0.0000,  0.0000,  0.0000)
  11 Ag     5.625998    0.000000   12.296804    ( 0.0000,  0.0000,  0.0000)
  12 Pt     1.406500    2.436129   12.296804    ( 0.0000,  0.0000,  0.0000)
  13 Pt     4.219499    2.436129   12.296804    ( 0.0000,  0.0000,  0.0000)
  14 Pt     7.032498    2.436129   12.296804    ( 0.0000,  0.0000,  0.0000)
  15 Ru     2.812999    4.872257   12.296804    ( 0.0000,  0.0000,  0.0000)
  16 Pt     5.625998    4.872257   12.296804    ( 0.0000,  0.0000,  0.0000)
  17 Ir     8.438997    4.872257   12.296804    ( 0.0000,  0.0000,  0.0000)
  18 Pt     1.331839    0.726557   14.668111    ( 0.0000,  0.0000,  0.0000)
  19 Ag     4.182958    0.786405   14.653885    ( 0.0000,  0.0000,  0.0000)
  20 Pd     6.991379    0.846607   14.620268    ( 0.0000,  0.0000,  0.0000)
  21 Ag     2.798870    3.196092   14.637342    ( 0.0000,  0.0000,  0.0000)
  22 Ru     5.675908    3.372547   14.481475    ( 0.0000,  0.0000,  0.0000)
  23 Pd     8.438669    3.197214   14.601500    ( 0.0000,  0.0000,  0.0000)
  24 Ir     4.221807    5.603619   14.576436    ( 0.0000,  0.0000,  0.0000)
  25 Ir     7.030712    5.570565   14.579950    ( 0.0000,  0.0000,  0.0000)
  26 Pt     9.855135    5.659403   14.611421    ( 0.0000,  0.0000,  0.0000)
  27 Ir    -0.065925    1.475966   16.932306    ( 0.0000,  0.0000,  0.0000)
  28 Pd     2.759825    1.581161   16.970807    ( 0.0000,  0.0000,  0.0000)
  29 Ag     5.560649    1.593415   16.955110    ( 0.0000,  0.0000,  0.0000)
  30 Pd     1.395958    4.023003   16.970013    ( 0.0000,  0.0000,  0.0000)
  31 Pd     4.185477    4.094452   16.884591    ( 0.0000,  0.0000,  0.0000)
  32 Pd     7.003265    3.934401   16.788920    ( 0.0000,  0.0000,  0.0000)
  33 Ru     2.858679    6.542204   16.744408    ( 0.0000,  0.0000,  0.0000)
  34 Pd     5.616659    6.461577   16.838367    ( 0.0000,  0.0000,  0.0000)
  35 Ir     8.537054    6.355335   16.916934    ( 0.0000,  0.0000,  0.0000)
  36 Ir     0.065269   -0.066404   19.094868    ( 0.0000,  0.0000,  0.0000)
  37 Pt     2.730256   -0.129405   19.123826    ( 0.0000,  0.0000,  0.0000)
  38 Ag     5.481213   -0.116715   19.357816    ( 0.0000,  0.0000,  0.0000)
  39 Pd     1.427589    2.402598   19.242054    ( 0.0000,  0.0000,  0.0000)
  40 Pd     4.278219    2.518777   19.247313    ( 0.0000,  0.0000,  0.0000)
  41 Ir     7.157869    2.545361   19.194114    ( 0.0000,  0.0000,  0.0000)
  42 Ag     2.793217    4.860975   19.373642    ( 0.0000,  0.0000,  0.0000)
  43 Ir     5.666615    4.898883   19.063379    ( 0.0000,  0.0000,  0.0000)
  44 Ir     8.253468    4.798148   19.015140    ( 0.0000,  0.0000,  0.0000)
  45 O      7.405688    1.008587   20.365689    ( 0.0000,  0.0000,  0.0000)

Unit cell:
           periodic     x           y           z      points  spacing
  1. axis:    yes    8.465341    0.000000    0.000000    35     0.2095
  2. axis:    yes    4.232670    7.331200    0.000000    35     0.2095
  3. axis:    no     0.000000    0.000000   29.187217   135     0.2162

  Lengths:   8.465341   8.465341  29.187217
  Angles:   90.000000  90.000000  60.000000

Effective grid spacing dv^(1/3) = 0.2221

                     log10-error:    total        iterations:
           time      wfs    density  energy       fermi  poisson
iter:   1  17:38:37  -2.20   +inf  -238.937430    3             
iter:   2  17:39:39  -1.37  -1.91  -330.074712    37            
iter:   3  17:40:41  -1.87  -1.25  -240.417765    34            
iter:   4  17:41:41  -2.53  -1.94  -236.107929    4             
iter:   5  17:42:40  -3.46  -2.53  -235.904363    3             
iter:   6  17:43:39  -4.16  -2.74  -235.868044    2             
iter:   7  17:44:38  -4.46  -2.84  -235.847082    2             
iter:   8  17:45:37  -4.36  -2.97  -235.826023    2             
iter:   9  17:46:37  -4.82  -3.13  -235.823132    2             
iter:  10  17:47:37  -5.07  -3.21  -235.828110    2             
iter:  11  17:48:36  -4.94  -3.11  -235.824446    2             
iter:  12  17:49:36  -5.17  -3.11  -235.822910    3             
iter:  13  17:50:35  -5.44  -3.34  -235.818745    2             
iter:  14  17:51:34  -5.89  -3.45  -235.818622    2             
iter:  15  17:52:35  -6.16  -3.54  -235.818540    2             
iter:  16  17:53:35  -6.20  -3.56  -235.817940    2             
iter:  17  17:54:35  -5.48  -3.57  -235.826103    2             
iter:  18  17:55:35  -5.72  -3.12  -235.818107    2             
iter:  19  17:56:35  -6.53  -3.70  -235.817015    2             
iter:  20  17:57:35  -6.60  -3.85  -235.817141    2             
iter:  21  17:58:35  -6.52  -3.94  -235.816965    2             
iter:  22  17:59:35  -6.61  -4.05  -235.816661    2             
iter:  23  18:00:35  -6.51  -4.03  -235.816805    2             
iter:  24  18:01:34  -5.99  -3.92  -235.821899    2             
iter:  25  18:02:34  -6.14  -3.39  -235.816718    2             
iter:  26  18:03:32  -7.10  -4.36  -235.816927    2             
iter:  27  18:04:32  -7.79  -4.38  -235.816932    2             

Converged after 27 iterations.

Dipole moment: (25.496034, 23.197544, -0.047158) |e|*Ang

Energy contributions relative to reference atoms: (reference = -12877847.605335)

Kinetic:       -221.154816
Potential:      +97.304898
External:        +0.000000
XC:            -103.931632
Entropy (-ST):   -2.241435
Local:           -6.914665
--------------------------
Free energy:   -236.937649
Extrapolated:  -235.816932

Fermi level: 1.03733

Showing only first 2 kpts
 Kpt  Band  Eigenvalues  Occupancy
  0   359      1.00830    0.14302
  0   360      1.04166    0.12229
  0   361      1.06732    0.10640
  0   362      1.09992    0.08711

  1   359      0.95585    0.17328
  1   360      0.96830    0.16651
  1   361      0.99231    0.15267
  1   362      1.00165    0.14707



Forces in eV/Ang:
  0 Pd   -0.13008    0.31899   -0.35400
  1 Ir    0.95769    0.67601    0.61763
  2 Ru   -1.08829    0.28818    0.69244
  3 Ru    0.39255    0.30531    1.66799
  4 Ir   -0.56491   -0.79554    1.17128
  5 Pt    0.13959    0.15762    0.05124
  6 Pd   -0.50088   -0.41634   -0.24148
  7 Pd    0.38986   -0.25713   -0.57467
  8 Ru    0.33593   -0.13235    0.55612
  9 Ag   -0.23995   -0.10044    0.08288
 10 Ag   -0.03568   -0.12194    0.12704
 11 Ag    0.06863   -0.19436   -0.11391
 12 Pt    0.05411    0.73585   -0.49295
 13 Pt    0.14914    0.56251   -0.70078
 14 Pt   -0.07518    0.21622   -0.13049
 15 Ru   -0.37944   -0.69848   -0.95781
 16 Pt   -0.40842    0.13284   -0.05878
 17 Ir    0.93874   -0.16568   -0.93828
 18 Pt   -0.01937    0.02928   -0.00108
 19 Ag    0.04536    0.00517    0.02626
 20 Pd    0.00801   -0.00994    0.05306
 21 Ag   -0.00837   -0.01430   -0.00724
 22 Ru   -0.04274   -0.05033   -0.05127
 23 Pd    0.04055   -0.05345   -0.02620
 24 Ir   -0.04360   -0.01494   -0.03132
 25 Ir    0.04817    0.02373   -0.01520
 26 Pt    0.03663   -0.01976   -0.02929
 27 Ir   -0.00015    0.09033   -0.07872
 28 Pd    0.02427   -0.07607   -0.01475
 29 Ag   -0.05433   -0.12813    0.01620
 30 Pd    0.00507   -0.02700   -0.02189
 31 Pd   -0.02827   -0.08715    0.00695
 32 Pd   -0.00140    0.04291    0.05339
 33 Ru   -0.06158   -0.11330    0.00030
 34 Pd    0.08772   -0.14980   -0.13957
 35 Ir   -0.10749    0.02058   -0.07015
 36 Ir   -0.10058   -0.12873    0.05105
 37 Pt    0.20142   -0.02617    0.02778
 38 Ag    0.16726    0.10898    0.10945
 39 Pd   -0.11585   -0.06030   -0.07629
 40 Pd   -0.01059   -0.08464    0.01962
 41 Ir   -0.07321    0.29111   -0.14382
 42 Ag   -0.02041    0.03803   -0.00177
 43 Ir    0.11298   -0.13846    0.00594
 44 Ir   -0.07848    0.20449   -0.10826
 45 O    -0.12132   -0.17565   -0.13155

System changes: positions 

Initializing position-dependent things.

Density initialized from wave functions
                                             
                                             
                                             
                                             
                                             
                                             
                 Ag     Ir                   
                          O    Ir            
            Pd     RPd   PdIr   Ir           
                     Ag                      
        Ir   PPt    Pd     Pd                
        Ir     Pd     Ag                     
                     Ir     Ir     Pt        
                Ag      Ru    Pd             
                                             
           Pt     Ag    PPd    Ir            
                                             
            Pt     Pt    PPt    Ru           
       Ag     Ag    IAg    Pt                
                                             
         Pd    Ir     Ru                     
                                             
                                             
                                             
                                             
                                             

Positions:
   0 Pd     0.000000    1.624086   10.000000    ( 0.0000,  0.0000,  0.0000)
   1 Ir     2.812999    1.624086   10.000000    ( 0.0000,  0.0000,  0.0000)
   2 Ru     5.625998    1.624086   10.000000    ( 0.0000,  0.0000,  0.0000)
   3 Ru     1.406500    4.060215   10.000000    ( 0.0000,  0.0000,  0.0000)
   4 Ir     4.219499    4.060215   10.000000    ( 0.0000,  0.0000,  0.0000)
   5 Pt     7.032498    4.060215   10.000000    ( 0.0000,  0.0000,  0.0000)
   6 Pd     2.812999    6.496343   10.000000    ( 0.0000,  0.0000,  0.0000)
   7 Pd     5.625998    6.496343   10.000000    ( 0.0000,  0.0000,  0.0000)
   8 Ru     8.438997    6.496343   10.000000    ( 0.0000,  0.0000,  0.0000)
   9 Ag     0.000000    0.000000   12.296804    ( 0.0000,  0.0000,  0.0000)
  10 Ag     2.812999    0.000000   12.296804    ( 0.0000,  0.0000,  0.0000)
  11 Ag     5.625998    0.000000   12.296804    ( 0.0000,  0.0000,  0.0000)
  12 Pt     1.406500    2.436129   12.296804    ( 0.0000,  0.0000,  0.0000)
  13 Pt     4.219499    2.436129   12.296804    ( 0.0000,  0.0000,  0.0000)
  14 Pt     7.032498    2.436129   12.296804    ( 0.0000,  0.0000,  0.0000)
  15 Ru     2.812999    4.872257   12.296804    ( 0.0000,  0.0000,  0.0000)
  16 Pt     5.625998    4.872257   12.296804    ( 0.0000,  0.0000,  0.0000)
  17 Ir     8.438997    4.872257   12.296804    ( 0.0000,  0.0000,  0.0000)
  18 Pt     1.328924    0.727804   14.669487    ( 0.0000,  0.0000,  0.0000)
  19 Ag     4.188091    0.787271   14.658180    ( 0.0000,  0.0000,  0.0000)
  20 Pd     6.992204    0.844380   14.625583    ( 0.0000,  0.0000,  0.0000)
  21 Ag     2.797836    3.194661   14.635466    ( 0.0000,  0.0000,  0.0000)
  22 Ru     5.673365    3.366555   14.478321    ( 0.0000,  0.0000,  0.0000)
  23 Pd     8.441165    3.190312   14.602208    ( 0.0000,  0.0000,  0.0000)
  24 Ir     4.219416    5.601762   14.574449    ( 0.0000,  0.0000,  0.0000)
  25 Ir     7.035260    5.571004   14.584344    ( 0.0000,  0.0000,  0.0000)
  26 Pt     9.859106    5.656208   14.609914    ( 0.0000,  0.0000,  0.0000)
  27 Ir    -0.067472    1.480356   16.932336    ( 0.0000,  0.0000,  0.0000)
  28 Pd     2.765183    1.571485   16.966490    ( 0.0000,  0.0000,  0.0000)
  29 Ag     5.559642    1.578643   16.963909    ( 0.0000,  0.0000,  0.0000)
  30 Pd     1.395365    4.020466   16.967673    ( 0.0000,  0.0000,  0.0000)
  31 Pd     4.182589    4.085237   16.883649    ( 0.0000,  0.0000,  0.0000)
  32 Pd     7.001549    3.939329   16.793372    ( 0.0000,  0.0000,  0.0000)
  33 Ru     2.852062    6.532016   16.746725    ( 0.0000,  0.0000,  0.0000)
  34 Pd     5.623823    6.443111   16.823874    ( 0.0000,  0.0000,  0.0000)
  35 Ir     8.519548    6.351454   16.906426    ( 0.0000,  0.0000,  0.0000)
  36 Ir     0.069431   -0.087728   19.087166    ( 0.0000,  0.0000,  0.0000)
  37 Pt     2.738576   -0.137782   19.126417    ( 0.0000,  0.0000,  0.0000)
  38 Ag     5.490506   -0.113388   19.367865    ( 0.0000,  0.0000,  0.0000)
  39 Pd     1.421102    2.397463   19.229531    ( 0.0000,  0.0000,  0.0000)
  40 Pd     4.275048    2.507155   19.248432    ( 0.0000,  0.0000,  0.0000)
  41 Ir     7.147282    2.585454   19.174601    ( 0.0000,  0.0000,  0.0000)
  42 Ag     2.789793    4.865101   19.372987    ( 0.0000,  0.0000,  0.0000)
  43 Ir     5.670629    4.882996   19.071497    ( 0.0000,  0.0000,  0.0000)
  44 Ir     8.248164    4.820886   19.009194    ( 0.0000,  0.0000,  0.0000)
  45 O      7.410240    1.004514   20.341909    ( 0.0000,  0.0000,  0.0000)

Unit cell:
           periodic     x           y           z      points  spacing
  1. axis:    yes    8.465341    0.000000    0.000000    35     0.2095
  2. axis:    yes    4.232670    7.331200    0.000000    35     0.2095
  3. axis:    no     0.000000    0.000000   29.187217   135     0.2162

  Lengths:   8.465341   8.465341  29.187217
  Angles:   90.000000  90.000000  60.000000

Effective grid spacing dv^(1/3) = 0.2221

                     log10-error:    total        iterations:
           time      wfs    density  energy       fermi  poisson
iter:   1  18:05:58  -2.52   +inf  -236.197751    3             
iter:   2  18:06:58  -2.80  -2.44  -239.887166    3             
iter:   3  18:07:56  -3.01  -1.86  -236.468161    3             
iter:   4  18:08:56  -3.94  -2.25  -235.871324    3             
iter:   5  18:09:56  -4.67  -2.97  -235.868089    3             
iter:   6  18:10:56  -4.98  -3.07  -235.854040    3             
iter:   7  18:11:55  -5.01  -3.18  -235.851133    2             
iter:   8  18:12:54  -4.59  -3.30  -235.845657    2             
iter:   9  18:13:53  -5.02  -3.46  -235.845273    2             
iter:  10  18:14:53  -5.64  -3.68  -235.844910    2             
iter:  11  18:15:52  -5.99  -3.59  -235.845897    2             
iter:  12  18:16:58  -6.08  -3.59  -235.845772    2             
iter:  13  18:17:55  -6.24  -3.75  -235.844400    2             
iter:  14  18:18:42  -6.49  -3.83  -235.844945    2             
iter:  15  18:19:29  -6.63  -4.00  -235.845136    2             
iter:  16  18:20:22  -6.86  -4.06  -235.844664    2             
iter:  17  18:21:21  -6.90  -4.08  -235.845080    2             
iter:  18  18:22:21  -7.15  -4.02  -235.844927    2             
iter:  19  18:23:21  -7.10  -4.32  -235.844458    2             
iter:  20  18:24:21  -7.37  -4.26  -235.844823    2             
iter:  21  18:25:23  -7.60  -4.45  -235.844798    2             

Converged after 21 iterations.

Dipole moment: (25.469015, 23.911108, -0.046166) |e|*Ang

Energy contributions relative to reference atoms: (reference = -12877847.605335)

Kinetic:       -221.306895
Potential:      +97.437125
External:        +0.000000
XC:            -103.942870
Entropy (-ST):   -2.241037
Local:           -6.911640
--------------------------
Free energy:   -236.965316
Extrapolated:  -235.844798

Fermi level: 1.03672

Showing only first 2 kpts
 Kpt  Band  Eigenvalues  Occupancy
  0   359      1.00794    0.14287
  0   360      1.04112    0.12225
  0   361      1.06577    0.10697
  0   362      1.09835    0.08765

  1   359      0.95936    0.17107
  1   360      0.96559    0.16767
  1   361      0.98805    0.15484
  1   362      1.00164    0.14670



Forces in eV/Ang:
  0 Pd   -0.13108    0.32053   -0.35344
  1 Ir    0.96109    0.68100    0.61432
  2 Ru   -1.08798    0.28979    0.68802
  3 Ru    0.39497    0.30222    1.66373
  4 Ir   -0.56889   -0.80056    1.16454
  5 Pt    0.13861    0.15865    0.05396
  6 Pd   -0.50237   -0.41660   -0.24025
  7 Pd    0.38899   -0.25911   -0.57384
  8 Ru    0.33558   -0.13491    0.55623
  9 Ag   -0.24325   -0.09888    0.08790
 10 Ag   -0.03011   -0.12319    0.15309
 11 Ag    0.07022   -0.19151   -0.10574
 12 Pt    0.05263    0.73537   -0.50457
 13 Pt    0.14669    0.55628   -0.70567
 14 Pt   -0.07164    0.20864   -0.12295
 15 Ru   -0.37724   -0.69805   -0.96049
 16 Pt   -0.38751    0.12717   -0.03852
 17 Ir    0.92589   -0.17716   -0.93602
 18 Pt    0.01575    0.00413   -0.02270
 19 Ag    0.01790    0.00225   -0.04210
 20 Pd    0.00145   -0.01510    0.03776
 21 Ag    0.00223   -0.03123    0.00001
 22 Ru   -0.01158    0.01390   -0.02765
 23 Pd    0.00029    0.00008   -0.03048
 24 Ir   -0.03361   -0.03681   -0.02718
 25 Ir    0.02838   -0.03585   -0.09770
 26 Pt    0.00498   -0.01339   -0.03543
 27 Ir   -0.00557   -0.03700    0.02220
 28 Pd   -0.04393   -0.06335    0.01370
 29 Ag   -0.01549   -0.06907   -0.01775
 30 Pd   -0.00928   -0.01240   -0.01661
 31 Pd   -0.00332   -0.09070    0.01862
 32 Pd   -0.03722   -0.06106   -0.10759
 33 Ru    0.04224   -0.05399    0.00519
 34 Pd   -0.01184   -0.02952    0.02315
 35 Ir    0.03052    0.06488   -0.06023
 36 Ir   -0.10555   -0.00229    0.03080
 37 Pt    0.08349    0.07423   -0.02880
 38 Ag    0.15298    0.10704    0.08661
 39 Pd   -0.14746   -0.07107   -0.07562
 40 Pd   -0.04370   -0.04782    0.02212
 41 Ir    0.00825   -0.28109    0.22472
 42 Ag   -0.02412   -0.05735   -0.00327
 43 Ir    0.00133    0.01393   -0.06468
 44 Ir    0.13554    0.17150   -0.06857
 45 O    -0.13476    0.16977   -0.36963

System changes: positions 

Initializing position-dependent things.

Density initialized from wave functions
                                             
                                             
                                             
                                             
                                             
                                             
                 Ag      Ir                  
                          O    Ir            
            Pd     RPd   PdIr   Ir           
                     Ag                      
        Ir   PPt    Pd     Pd                
        Ir     Pd     Ag                     
                     Ir     Ir     Pt        
                Ag      Ru    Pd             
                                             
           Pt     Ag    PPd    Ir            
                                             
            Pt     Pt    PPt    Ru           
       Ag     Ag    IAg    Pt                
                                             
         Pd    Ir     Ru                     
                                             
                                             
                                             
                                             
                                             

Positions:
   0 Pd     0.000000    1.624086   10.000000    ( 0.0000,  0.0000,  0.0000)
   1 Ir     2.812999    1.624086   10.000000    ( 0.0000,  0.0000,  0.0000)
   2 Ru     5.625998    1.624086   10.000000    ( 0.0000,  0.0000,  0.0000)
   3 Ru     1.406500    4.060215   10.000000    ( 0.0000,  0.0000,  0.0000)
   4 Ir     4.219499    4.060215   10.000000    ( 0.0000,  0.0000,  0.0000)
   5 Pt     7.032498    4.060215   10.000000    ( 0.0000,  0.0000,  0.0000)
   6 Pd     2.812999    6.496343   10.000000    ( 0.0000,  0.0000,  0.0000)
   7 Pd     5.625998    6.496343   10.000000    ( 0.0000,  0.0000,  0.0000)
   8 Ru     8.438997    6.496343   10.000000    ( 0.0000,  0.0000,  0.0000)
   9 Ag     0.000000    0.000000   12.296804    ( 0.0000,  0.0000,  0.0000)
  10 Ag     2.812999    0.000000   12.296804    ( 0.0000,  0.0000,  0.0000)
  11 Ag     5.625998    0.000000   12.296804    ( 0.0000,  0.0000,  0.0000)
  12 Pt     1.406500    2.436129   12.296804    ( 0.0000,  0.0000,  0.0000)
  13 Pt     4.219499    2.436129   12.296804    ( 0.0000,  0.0000,  0.0000)
  14 Pt     7.032498    2.436129   12.296804    ( 0.0000,  0.0000,  0.0000)
  15 Ru     2.812999    4.872257   12.296804    ( 0.0000,  0.0000,  0.0000)
  16 Pt     5.625998    4.872257   12.296804    ( 0.0000,  0.0000,  0.0000)
  17 Ir     8.438997    4.872257   12.296804    ( 0.0000,  0.0000,  0.0000)
[...]
  20 Pd     6.996270    0.838176   14.632868    ( 0.0000,  0.0000,  0.0000)
  21 Ag     2.796727    3.183798   14.636142    ( 0.0000,  0.0000,  0.0000)
  22 Ru     5.669698    3.364714   14.471161    ( 0.0000,  0.0000,  0.0000)
  23 Pd     8.441754    3.185114   14.593568    ( 0.0000,  0.0000,  0.0000)
  24 Ir     4.213774    5.591530   14.569644    ( 0.0000,  0.0000,  0.0000)
  25 Ir     7.042067    5.563517   14.570092    ( 0.0000,  0.0000,  0.0000)
  26 Pt     9.862223    5.651089   14.601783    ( 0.0000,  0.0000,  0.0000)
  27 Ir    -0.072067    1.465714   16.938695    ( 0.0000,  0.0000,  0.0000)
  28 Pd     2.756769    1.554681   16.959044    ( 0.0000,  0.0000,  0.0000)
  29 Ag     5.557318    1.557988   16.968404    ( 0.0000,  0.0000,  0.0000)
  30 Pd     1.390917    4.017743   16.957979    ( 0.0000,  0.0000,  0.0000)
  31 Pd     4.179857    4.059080   16.887276    ( 0.0000,  0.0000,  0.0000)
  32 Pd     6.999077    3.921883   16.777736    ( 0.0000,  0.0000,  0.0000)
  33 Ru     2.860580    6.512169   16.745981    ( 0.0000,  0.0000,  0.0000)
  34 Pd     5.621810    6.428013   16.821942    ( 0.0000,  0.0000,  0.0000)
  35 Ir     8.521990    6.355773   16.890204    ( 0.0000,  0.0000,  0.0000)
  36 Ir     0.063076   -0.115529   19.077992    ( 0.0000,  0.0000,  0.0000)
  37 Pt     2.754728   -0.124451   19.118942    ( 0.0000,  0.0000,  0.0000)
  38 Ag     5.517367   -0.100043   19.388819    ( 0.0000,  0.0000,  0.0000)
  39 Pd     1.387941    2.377784   19.204250    ( 0.0000,  0.0000,  0.0000)
  40 Pd     4.258182    2.491362   19.252755    ( 0.0000,  0.0000,  0.0000)
  41 Ir     7.137656    2.609505   19.181087    ( 0.0000,  0.0000,  0.0000)
  42 Ag     2.778600    4.841523   19.369748    ( 0.0000,  0.0000,  0.0000)
  43 Ir     5.682619    4.882924   19.060427    ( 0.0000,  0.0000,  0.0000)
  44 Ir     8.261913    4.844524   18.985338    ( 0.0000,  0.0000,  0.0000)
  45 O      7.395811    1.015234   20.308940    ( 0.0000,  0.0000,  0.0000)

Unit cell:
           periodic     x           y           z      points  spacing
  1. axis:    yes    8.465341    0.000000    0.000000    35     0.2095
  2. axis:    yes    4.232670    7.331200    0.000000    35     0.2095
  3. axis:    no     0.000000    0.000000   29.187217   135     0.2162

  Lengths:   8.465341   8.465341  29.187217
  Angles:   90.000000  90.000000  60.000000

Effective grid spacing dv^(1/3) = 0.2221

                     log10-error:    total        iterations:
           time      wfs    density  energy       fermi  poisson
iter:   1  19:12:43  -3.31   +inf  -236.243287    3             
iter:   2  19:13:43  -2.39  -2.37  -253.488455    3             
iter:   3  19:14:42  -2.67  -1.56  -235.910843    3             
iter:   4  19:15:41  -3.86  -3.04  -235.896899    3             
iter:   5  19:16:40  -4.96  -3.03  -235.889546    3             
iter:   6  19:17:39  -5.20  -3.28  -235.882964    3             
iter:   7  19:18:38  -5.42  -3.38  -235.880589    2             
iter:   8  19:19:37  -5.68  -3.65  -235.880413    2             
iter:   9  19:20:36  -5.79  -3.50  -235.880244    2             
iter:  10  19:21:35  -6.26  -3.67  -235.878652    2             
iter:  11  19:22:34  -6.13  -3.84  -235.880050    2             
iter:  12  19:23:33  -6.57  -3.78  -235.878979    2             
iter:  13  19:24:32  -6.60  -3.96  -235.879461    2             
iter:  14  19:25:31  -6.97  -3.82  -235.879160    2             
iter:  15  19:26:30  -6.86  -4.06  -235.879112    2             
iter:  16  19:27:29  -6.69  -3.98  -235.878330    2             
iter:  17  19:28:28  -7.24  -4.13  -235.878919    2             
iter:  18  19:29:29  -7.34  -4.18  -235.878512    2             
iter:  19  19:30:29  -7.83  -4.38  -235.878618    2             

Converged after 19 iterations.

Dipole moment: (26.112162, 23.413579, -0.033788) |e|*Ang

Energy contributions relative to reference atoms: (reference = -12877847.605335)

Kinetic:       -218.675386
Potential:      +95.210906
External:        +0.000000
XC:            -104.384599
Entropy (-ST):   -2.234090
Local:           -6.912493
--------------------------
Free energy:   -236.995663
Extrapolated:  -235.878618

Fermi level: 1.04273

Showing only first 2 kpts
 Kpt  Band  Eigenvalues  Occupancy
  0   359      1.01143    0.14441
  0   360      1.04762    0.12195
  0   361      1.07047    0.10777
  0   362      1.10294    0.08847

  1   359      0.96399    0.17182
  1   360      0.97421    0.16622
  1   361      0.99283    0.15556
  1   362      1.00875    0.14603



Forces in eV/Ang:
  0 Pd   -0.13129    0.32049   -0.35587
  1 Ir    0.96010    0.68495    0.61158
  2 Ru   -1.08624    0.29144    0.68286
  3 Ru    0.39762    0.30085    1.64881
  4 Ir   -0.56836   -0.80109    1.14793
  5 Pt    0.14278    0.16067    0.04646
  6 Pd   -0.50245   -0.41823   -0.24123
  7 Pd    0.38802   -0.25957   -0.57598
  8 Ru    0.33593   -0.14413    0.55467
  9 Ag   -0.24838   -0.09985    0.08600
 10 Ag   -0.04077   -0.11920    0.11848
 11 Ag    0.09185   -0.18797   -0.12850
 12 Pt    0.06011    0.72166   -0.53861
 13 Pt    0.13791    0.56328   -0.74663
 14 Pt   -0.07533    0.17982   -0.13781
 15 Ru   -0.37057   -0.71152   -0.96991
 16 Pt   -0.40469    0.12945   -0.09778
 17 Ir    0.92831   -0.17976   -0.98023
 18 Pt    0.00603   -0.00784   -0.01544
 19 Ag    0.01070   -0.02288    0.01356
 20 Pd   -0.01373   -0.00657   -0.01516
 21 Ag   -0.01048   -0.00077   -0.01736
 22 Ru   -0.00132   -0.02136   -0.00013
 23 Pd    0.01065   -0.01857   -0.01239
 24 Ir   -0.00652   -0.03361   -0.00844
 25 Ir    0.01024   -0.01076    0.02752
 26 Pt   -0.00142   -0.00460   -0.01557
 27 Ir   -0.02175   -0.00972    0.04618
 28 Pd    0.00035   -0.00219   -0.02635
 29 Ag   -0.00110   -0.01681    0.00423
 30 Pd    0.01430   -0.04582   -0.04541
 31 Pd    0.02429    0.00270   -0.00445
 32 Pd   -0.01186   -0.01134   -0.04010
 33 Ru   -0.01658   -0.00470    0.00956
 34 Pd    0.03408   -0.03375   -0.01175
 35 Ir   -0.00750    0.02093   -0.01693
 36 Ir   -0.00844   -0.03491   -0.03988
 37 Pt    0.03217   -0.01179   -0.01424
 38 Ag    0.00278   -0.02085    0.01220
 39 Pd   -0.00242   -0.02253   -0.03118
 40 Pd    0.02318   -0.02417   -0.00207
 41 Ir   -0.07266   -0.14342    0.04060
 42 Ag   -0.01446   -0.01475   -0.00430
 43 Ir   -0.04838    0.01426    0.01669
 44 Ir    0.02601    0.09821    0.01020
 45 O    -0.09826    0.02461   -0.00155

System changes: positions 

Initializing position-dependent things.

Density initialized from wave functions
                                             
                                             
                                             
                                             
                                             
                                             
                 Ag      Ir                  
                          O    Ir            
            Pd     Pd    PdIr   Ir           
                     Ag                      
        Ir   PPt    Pd     Pd                
        Ir     Pd     Ag                     
                     Ir     Ir     Pt        
                Ag      Ru    Pd             
                                             
           Pt     Ag    PPd    Ir            
                                             
            Pt     Pt    PPt    Ru           
       Ag     Ag    IAg    Pt                
                                             
         Pd    Ir     Ru                     
                                             
                                             
                                             
                                             
                                             

Positions:
   0 Pd     0.000000    1.624086   10.000000    ( 0.0000,  0.0000,  0.0000)
   1 Ir     2.812999    1.624086   10.000000    ( 0.0000,  0.0000,  0.0000)
   2 Ru     5.625998    1.624086   10.000000    ( 0.0000,  0.0000,  0.0000)
   3 Ru     1.406500    4.060215   10.000000    ( 0.0000,  0.0000,  0.0000)
   4 Ir     4.219499    4.060215   10.000000    ( 0.0000,  0.0000,  0.0000)
   5 Pt     7.032498    4.060215   10.000000    ( 0.0000,  0.0000,  0.0000)
   6 Pd     2.812999    6.496343   10.000000    ( 0.0000,  0.0000,  0.0000)
   7 Pd     5.625998    6.496343   10.000000    ( 0.0000,  0.0000,  0.0000)
   8 Ru     8.438997    6.496343   10.000000    ( 0.0000,  0.0000,  0.0000)
   9 Ag     0.000000    0.000000   12.296804    ( 0.0000,  0.0000,  0.0000)
  10 Ag     2.812999    0.000000   12.296804    ( 0.0000,  0.0000,  0.0000)
  11 Ag     5.625998    0.000000   12.296804    ( 0.0000,  0.0000,  0.0000)
  12 Pt     1.406500    2.436129   12.296804    ( 0.0000,  0.0000,  0.0000)
  13 Pt     4.219499    2.436129   12.296804    ( 0.0000,  0.0000,  0.0000)
  14 Pt     7.032498    2.436129   12.296804    ( 0.0000,  0.0000,  0.0000)
  15 Ru     2.812999    4.872257   12.296804    ( 0.0000,  0.0000,  0.0000)
  16 Pt     5.625998    4.872257   12.296804    ( 0.0000,  0.0000,  0.0000)
  17 Ir     8.438997    4.872257   12.296804    ( 0.0000,  0.0000,  0.0000)
  18 Pt     1.329701    0.717376   14.666421    ( 0.0000,  0.0000,  0.0000)
  19 Ag     4.194121    0.786318   14.645989    ( 0.0000,  0.0000,  0.0000)
  20 Pd     6.995765    0.836951   14.631396    ( 0.0000,  0.0000,  0.0000)
  21 Ag     2.795545    3.182652   14.634954    ( 0.0000,  0.0000,  0.0000)
  22 Ru     5.669207    3.362385   14.470694    ( 0.0000,  0.0000,  0.0000)
  23 Pd     8.442845    3.182732   14.591580    ( 0.0000,  0.0000,  0.0000)
  24 Ir     4.213471    5.588051   14.569169    ( 0.0000,  0.0000,  0.0000)
  25 Ir     7.042950    5.562561   14.572402    ( 0.0000,  0.0000,  0.0000)
  26 Pt     9.862354    5.650361   14.600185    ( 0.0000,  0.0000,  0.0000)
  27 Ir    -0.074648    1.463194   16.943137    ( 0.0000,  0.0000,  0.0000)
  28 Pd     2.756251    1.554015   16.955006    ( 0.0000,  0.0000,  0.0000)
  29 Ag     5.557335    1.555615   16.969733    ( 0.0000,  0.0000,  0.0000)
  30 Pd     1.391740    4.013715   16.952844    ( 0.0000,  0.0000,  0.0000)
  31 Pd     4.181584    4.057493   16.886991    ( 0.0000,  0.0000,  0.0000)
  32 Pd     6.998926    3.919156   16.775719    ( 0.0000,  0.0000,  0.0000)
  33 Ru     2.859984    6.509793   16.746003    ( 0.0000,  0.0000,  0.0000)
  34 Pd     5.624184    6.423876   16.819752    ( 0.0000,  0.0000,  0.0000)
  35 Ir     8.522032    6.356663   16.887634    ( 0.0000,  0.0000,  0.0000)
  36 Ir     0.060916   -0.120113   19.076087    ( 0.0000,  0.0000,  0.0000)
  37 Pt     2.758379   -0.124571   19.117462    ( 0.0000,  0.0000,  0.0000)
  38 Ag     5.517706   -0.102589   19.390822    ( 0.0000,  0.0000,  0.0000)
  39 Pd     1.385791    2.374519   19.199855    ( 0.0000,  0.0000,  0.0000)
  40 Pd     4.258077    2.488588   19.252591    ( 0.0000,  0.0000,  0.0000)
  41 Ir     7.131288    2.607048   19.182371    ( 0.0000,  0.0000,  0.0000)
  42 Ag     2.776026    4.836941   19.368886    ( 0.0000,  0.0000,  0.0000)
  43 Ir     5.681849    4.883748   19.060959    ( 0.0000,  0.0000,  0.0000)
  44 Ir     8.261241    4.849405   18.983777    ( 0.0000,  0.0000,  0.0000)
  45 O      7.392197    1.016245   20.307123    ( 0.0000,  0.0000,  0.0000)

Unit cell:
           periodic     x           y           z      points  spacing
  1. axis:    yes    8.465341    0.000000    0.000000    35     0.2095
  2. axis:    yes    4.232670    7.331200    0.000000    35     0.2095
  3. axis:    no     0.000000    0.000000   29.187217   135     0.2162

  Lengths:   8.465341   8.465341  29.187217
  Angles:   90.000000  90.000000  60.000000

Effective grid spacing dv^(1/3) = 0.2221

                     log10-error:    total        iterations:
           time      wfs    density  energy       fermi  poisson
iter:   1  19:31:58  -3.65   +inf  -236.007540    3             
iter:   2  19:32:59  -2.95  -2.61  -241.265428    2             
iter:   3  19:34:02  -3.15  -1.79  -235.919144    3             
iter:   4  19:35:03  -4.39  -2.85  -235.891448    3             
iter:   5  19:36:00  -5.38  -3.28  -235.882271    2             
iter:   6  19:36:59  -5.75  -3.70  -235.881051    2             
iter:   7  19:38:01  -6.14  -3.80  -235.881199    2             
iter:   8  19:39:02  -6.23  -3.85  -235.881195    2             
iter:   9  19:40:01  -6.45  -3.77  -235.880815    2             
iter:  10  19:41:03  -6.20  -3.92  -235.881028    2             
iter:  11  19:42:03  -6.66  -4.15  -235.880422    2             
iter:  12  19:43:03  -7.06  -3.94  -235.880816    2             
iter:  13  19:44:04  -7.42  -4.25  -235.880746    2             

Converged after 13 iterations.

Dipole moment: (26.257791, 23.526748, -0.034145) |e|*Ang

Energy contributions relative to reference atoms: (reference = -12877847.605335)

Kinetic:       -218.927699
Potential:      +95.455638
External:        +0.000000
XC:            -104.376143
Entropy (-ST):   -2.233639
Local:           -6.915723
--------------------------
Free energy:   -236.997566
Extrapolated:  -235.880746

Fermi level: 1.04293

Showing only first 2 kpts
 Kpt  Band  Eigenvalues  Occupancy
  0   359      1.01144    0.14452
  0   360      1.04766    0.12205
  0   361      1.07025    0.10803
  0   362      1.10268    0.08873

  1   359      0.96385    0.17200
  1   360      0.97424    0.16632
  1   361      0.99320    0.15546
  1   362      1.00931    0.14582



Forces in eV/Ang:
  0 Pd   -0.13236    0.31997   -0.35416
  1 Ir    0.96111    0.68489    0.61442
  2 Ru   -1.08534    0.29250    0.68263
  3 Ru    0.39810    0.29949    1.64983
  4 Ir   -0.56727   -0.80281    1.14877
  5 Pt    0.14116    0.16115    0.04936
  6 Pd   -0.50199   -0.41787   -0.24031
  7 Pd    0.38906   -0.25965   -0.57201
  8 Ru    0.33341   -0.14387    0.55808
  9 Ag   -0.24644   -0.10348    0.08852
 10 Ag   -0.04257   -0.12466    0.12207
 11 Ag    0.09084   -0.18632   -0.13629
 12 Pt    0.05887    0.71355   -0.55099
 13 Pt    0.13929    0.55678   -0.75348
 14 Pt   -0.07649    0.17824   -0.14112
 15 Ru   -0.37062   -0.70843   -0.97900
 16 Pt   -0.39429    0.13051   -0.08614
 17 Ir    0.92041   -0.18022   -0.98489
 18 Pt   -0.02332   -0.01537    0.01392
 19 Ag    0.00272   -0.00303   -0.00322
 20 Pd    0.01992   -0.00384    0.01781
 21 Ag    0.00432   -0.00942   -0.01139
 22 Ru    0.01557   -0.00105    0.00198
 23 Pd   -0.01583   -0.00740    0.01025
 24 Ir    0.00931    0.00543    0.00909
 25 Ir   -0.01043   -0.02339   -0.01435
 26 Pt    0.00269   -0.00897    0.00188
 27 Ir    0.00142   -0.00458   -0.00911
 28 Pd   -0.01278    0.00636    0.01148
 29 Ag   -0.00271   -0.00475   -0.01750
 30 Pd   -0.02953    0.00078    0.02127
 31 Pd   -0.00092    0.00409   -0.00215
 32 Pd    0.01824   -0.00512    0.02220
 33 Ru   -0.00401    0.00030   -0.02471
 34 Pd   -0.01920    0.02199    0.01124
 35 Ir    0.01555   -0.03341   -0.00912
 36 Ir    0.01701   -0.01338    0.03740
 37 Pt   -0.04902    0.02947   -0.00514
 38 Ag    0.01251   -0.03669    0.00810
 39 Pd   -0.02707    0.01003    0.01068
 40 Pd   -0.02476    0.00957   -0.00807
 41 Ir    0.04877    0.04671    0.01215
 42 Ag   -0.02222   -0.02241    0.00144
 43 Ir   -0.00660   -0.00878    0.02038
 44 Ir   -0.01040   -0.09377   -0.00772
 45 O    -0.01632    0.01409    0.01445

Timing:                                      incl.     excl.
-------------------------------------------------------------------
Density initialized from wave functions:    28.947    28.946   0.2% |
 Symmetrize density:                         0.001     0.001   0.0% |
Forces:                                    167.183   167.183   0.9% |
Hamiltonian:                                24.932     0.106   0.0% |
 Atomic:                                     5.851     3.404   0.0% |
  XC Correction:                             2.448     2.448   0.0% |
 Calculate atomic Hamiltonians:              7.407     7.407   0.0% |
 Communicate:                                2.910     2.910   0.0% |
 Initialize Hamiltonian:                     0.000     0.000   0.0% |
 Poisson:                                    0.046     0.046   0.0% |
 XC 3D grid:                                 8.610     8.610   0.0% |
LCAO initialization:                        49.531     3.742   0.0% |
 LCAO eigensolver:                           5.290     0.002   0.0% |
  Calculate projections:                     0.035     0.035   0.0% |
  DenseAtomicCorrection:                     0.068     0.068   0.0% |
  Distribute overlap matrix:                 0.012     0.012   0.0% |
  Orbital Layouts:                           0.470     0.470   0.0% |
  Potential matrix:                          4.659     4.659   0.0% |
  Sum over cells:                            0.044     0.044   0.0% |
 LCAO to grid:                              38.920    38.920   0.2% |
 Set positions (LCAO WFS):                   1.579     0.432   0.0% |
  Basic WFS set positions:                   0.002     0.002   0.0% |
  Basis functions set positions:             0.000     0.000   0.0% |
  P tci:                                     0.541     0.541   0.0% |
  ST tci:                                    0.446     0.446   0.0% |
  mktci:                                     0.158     0.158   0.0% |
PWDescriptor:                                0.035     0.035   0.0% |
Redistribute:                                3.176     3.176   0.0% |
SCF-cycle:                               18374.924  1919.017  10.3% |---|
 Davidson:                               14961.863  3720.871  19.9% |-------|
  Apply H:                                2603.182  2535.495  13.5% |----|
   HMM T:                                   67.687    67.687   0.4% |
  Subspace diag:                          2078.210     0.080   0.0% |
   calc_h_matrix:                         1218.628   350.907   1.9% ||
    Apply H:                               867.721   843.213   4.5% |-|
     HMM T:                                 24.508    24.508   0.1% |
   diagonalize:                            103.506   103.506   0.6% |
   rotate_psi:                             755.997   755.997   4.0% |-|
  calc. matrices:                         4392.553  2718.531  14.5% |-----|
   Apply H:                               1674.022  1628.593   8.7% |--|
    HMM T:                                  45.428    45.428   0.2% |
  diagonalize:                             612.097   612.097   3.3% ||
  rotate_psi:                             1554.950  1554.950   8.3% |--|
 Density:                                  778.839     0.016   0.0% |
  Atomic density matrices:                   4.935     4.935   0.0% |
  Mix:                                     258.768   258.768   1.4% ||
  Multipole moments:                         0.291     0.291   0.0% |
  Pseudo density:                          514.830   514.812   2.7% ||
   Symmetrize density:                       0.018     0.018   0.0% |
 Hamiltonian:                              664.028     2.837   0.0% |
  Atomic:                                  156.333    88.617   0.5% |
   XC Correction:                           67.716    67.716   0.4% |
  Calculate atomic Hamiltonians:           202.987   202.987   1.1% |
  Communicate:                              69.919    69.919   0.4% |
  Poisson:                                   1.192     1.192   0.0% |
  XC 3D grid:                              230.760   230.760   1.2% |
 Orthonormalize:                            51.178     0.004   0.0% |
  calc_s_matrix:                             5.686     5.686   0.0% |
  inverse-cholesky:                          2.858     2.858   0.0% |
  projections:                              29.610    29.610   0.2% |
  rotate_psi_s:                             13.020    13.020   0.1% |
Set symmetry:                                0.002     0.002   0.0% |
Other:                                      71.917    71.917   0.4% |
-------------------------------------------------------------------
Total:                                             18720.648 100.0%

Date: Thu Mar  3 19:44:19 2022
