
  ___ ___ ___ _ _ _  
 |   |   |_  | | | | 
 | | | | | . | | | | 
 |__ |  _|___|_____|  1.5.1
 |___|_|             

User:   clausen@node245.cluster
Date:   Fri Mar  4 01:12:32 2022
Arch:   x86_64
Pid:    153147
Python: 3.6.12
gpaw:   /software/kemi/gpaw/1.5.1/gpaw
_gpaw:  /software/kemi/gpaw/1.5.1/bin/gpaw-python
ase:    /software/kemi/ase/3.17.0/ase (version 3.17.0)
numpy:  /opt/rh/rh-python36/root/usr/lib64/python3.6/site-packages/numpy (version 1.13.1)
scipy:  /opt/rh/rh-python36/root/usr/lib64/python3.6/site-packages/scipy (version 0.19.1)
units:  Angstrom and eV
cores:  16

Input parameters:
  kpts: [4 4 1]
  mode: {ecut: 400.0,
         gammacentered: False,
         name: pw}
  xc: RPBE

System changes: positions, numbers, cell, pbc, initial_charges, initial_magmoms 

Initialize ...

Pd-setup:
  name: Palladium
  id: 6da19bfba079f22767af9506641940b9
  Z: 46
  valence: 16
  core: 30
  charge: 0.0
  file: /software/kemi/gpaw-setups/0.9.20000/Pd.RPBE.gz
  cutoffs: 1.19(comp), 2.38(filt), 2.28(core), lmax=2
  valence states:
                energy  radius
    5s(0.00)    -3.225   1.228
    4p(6.00)   -51.131   1.360
    5p(0.00)    -0.373   1.360
    4d(10.00)    -3.964   1.228
    *s          23.987   1.228
    *d          23.247   1.228

  Using partial waves for Pd as LCAO basis

Ag-setup:
  name: Silver
  id: c05e55bab2c3858b3f9398f6d75cb77c
  Z: 47
  valence: 17
  core: 30
  charge: 0.0
  file: /software/kemi/gpaw-setups/0.9.20000/Ag.RPBE.gz
  cutoffs: 1.25(comp), 2.35(filt), 2.19(core), lmax=2
  valence states:
                energy  radius
    5s(1.00)    -4.277   1.286
    4p(6.00)   -58.523   1.328
    5p(0.00)    -0.755   1.328
    4d(10.00)    -7.386   1.180
    *s          22.934   1.286
    *d          19.826   1.180

  Using partial waves for Ag as LCAO basis

Pt-setup:
  name: Platinum
  id: f04f522592575c47ad794f6b4a415b4b
  Z: 78
  valence: 16
  core: 62
  charge: 0.0
  file: /software/kemi/gpaw-setups/0.9.20000/Pt.RPBE.gz
  cutoffs: 1.29(comp), 2.26(filt), 2.26(core), lmax=2
  valence states:
                energy  radius
    6s(1.00)    -5.516   1.307
    5p(6.00)   -55.971   1.371
    6p(0.00)    -0.856   1.371
    5d(9.00)    -6.087   1.307
    *s          21.695   1.307
    *d          21.125   1.307

  Using partial waves for Pt as LCAO basis

Ru-setup:
  name: Ruthenium
  id: 76477906e28f51dc1b29884d53556fe9
  Z: 44
  valence: 16
  core: 28
  charge: 0.0
  file: /software/kemi/gpaw-setups/0.9.20000/Ru.RPBE.gz
  cutoffs: 1.23(comp), 2.16(filt), 1.30(core), lmax=2
  valence states:
                energy  radius
    4s(2.00)   -76.255   1.281
    5s(1.00)    -4.126   1.281
    4p(6.00)   -46.371   1.286
    5p(0.00)    -0.913   1.286
    4d(7.00)    -5.146   1.254
    *d          22.066   1.254

  Using partial waves for Ru as LCAO basis

O-setup:
  name: Oxygen
  id: 08071ca1eed670e7821b24b7eb4d558c
  Z: 8
  valence: 6
  core: 2
  charge: 0.0
  file: /software/kemi/gpaw-setups/0.9.20000/O.RPBE.gz
  cutoffs: 0.67(comp), 1.17(filt), 0.83(core), lmax=2
  valence states:
                energy  radius
    2s(2.00)   -24.041   0.688
    2p(4.00)    -8.984   0.598
    *s           3.170   0.688
    *p          18.228   0.598
    *d           0.000   0.619

  Using partial waves for O as LCAO basis

Reference energy: -9073453.423555

Spin-paired calculation

Occupation numbers:
  Fermi-Dirac: width=0.1000 eV

Convergence criteria:
  Maximum total energy change: 0.0005 eV / electron
  Maximum integral of absolute density change: 0.0001 electrons
  Maximum integral of absolute eigenstate change: 4e-08 eV^2
  Maximum number of iterations: 333

Symmetries present (total): 1

  ( 1  0  0)
  ( 0  1  0)
  ( 0  0  1)

16 k-points: 4 x 4 x 1 Monkhorst-Pack grid
8 k-points in the irreducible part of the Brillouin zone
       k-points in crystal coordinates                weights
   0:     0.12500000   -0.37500000    0.00000000          2/16
   1:     0.12500000   -0.12500000    0.00000000          2/16
   2:     0.12500000    0.12500000    0.00000000          2/16
   3:     0.12500000    0.37500000    0.00000000          2/16
   4:     0.37500000   -0.37500000    0.00000000          2/16
   5:     0.37500000   -0.12500000    0.00000000          2/16
   6:     0.37500000    0.12500000    0.00000000          2/16
   7:     0.37500000    0.37500000    0.00000000          2/16

Wave functions: Plane wave expansion
  Cutoff energy: 400.000 eV
  Number of coefficients (min, max): 32266, 32339
  Pulay-stress correction: 0.000000 eV/Ang^3 (de/decut=0.000000)
  Using FFTW library
  ScaLapack parameters: grid=1x1, blocksize=None
  Wavefunction extrapolation:
    Improved wavefunction reuse through dual PAW basis 

Eigensolver
   Davidson(niter=2, smin=None, normalize=True) 

Densities:
  Coarse grid: 35*35*135 grid
  Fine grid: 70*70*270 grid
  Total Charge: 0.000000 

Density mixing:
  Method: separate
  Backend: pulay
  Linear mixing parameter: 0.05
  Mixing with 5 old densities
  Damping of long wave oscillations: 50 

Hamiltonian:
  XC and Coulomb potentials evaluated on a 70*70*270 grid
  Using the RPBE Exchange-Correlation functional
 

XC parameters: RPBE with 2 nearest neighbor stencil

Memory estimate:
  Process memory now: 166.15 MiB
  Calculator: 548.11 MiB
    Density: 48.38 MiB
      Arrays: 16.41 MiB
      Localized functions: 25.61 MiB
      Mixer: 6.36 MiB
    Hamiltonian: 11.51 MiB
      Arrays: 10.73 MiB
      XC: 0.00 MiB
      Poisson: 0.00 MiB
      vbar: 0.78 MiB
    Wavefunctions: 488.23 MiB
      Arrays psit_nG: 220.57 MiB
      Eigensolver: 253.54 MiB
      Projections: 2.81 MiB
      Projectors: 4.69 MiB
      PW-descriptor: 6.62 MiB

Total number of cores used: 16
Parallelization over k-points: 8
Domain decomposition: 1 x 1 x 2

Number of atoms: 46
Number of atomic orbitals: 551
Number of bands in calculation: 447
Bands to converge: occupied states only
Number of valence electrons: 738

... initialized

Initializing position-dependent things.

Density initialized from atomic densities
Creating initial wave functions:
  447 bands from LCAO basis set

                                             
                                             
                                             
                                             
                                             
                                             
                         Pd   O              
                 Pt            Ru            
            Pt    APd    PPd    Ru           
                                             
        Pd    Ru     Pd    Pt                
                                             
        Pt     Pd    PPd    Pd     Ag        
                Ag     Ag     Ag             
                                             
           Ag    PAg    APt    Pd            
                                             
            Pd     Ru     Ag     Pd          
       Ag     Ru     Ru                      
             Pd     Pd     Pt                
        Pd     Ag     Pt                     
                                             
                                             
                                             
                                             
                                             

Positions:
   0 Pd     0.000000    1.633958   10.000000    ( 0.0000,  0.0000,  0.0000)
   1 Ag     2.830098    1.633958   10.000000    ( 0.0000,  0.0000,  0.0000)
   2 Pt     5.660196    1.633958   10.000000    ( 0.0000,  0.0000,  0.0000)
   3 Pd     1.415049    4.084895   10.000000    ( 0.0000,  0.0000,  0.0000)
   4 Pd     4.245147    4.084895   10.000000    ( 0.0000,  0.0000,  0.0000)
   5 Pt     7.075245    4.084895   10.000000    ( 0.0000,  0.0000,  0.0000)
   6 Pd     2.830098    6.535832   10.000000    ( 0.0000,  0.0000,  0.0000)
   7 Ag     5.660196    6.535832   10.000000    ( 0.0000,  0.0000,  0.0000)
   8 Pd     8.490294    6.535832   10.000000    ( 0.0000,  0.0000,  0.0000)
   9 Ag     0.000000    0.000000   12.310765    ( 0.0000,  0.0000,  0.0000)
  10 Ru     2.830098    0.000000   12.310765    ( 0.0000,  0.0000,  0.0000)
  11 Ru     5.660196    0.000000   12.310765    ( 0.0000,  0.0000,  0.0000)
  12 Pd     1.415049    2.450937   12.310765    ( 0.0000,  0.0000,  0.0000)
  13 Ru     4.245147    2.450937   12.310765    ( 0.0000,  0.0000,  0.0000)
  14 Ag     7.075245    2.450937   12.310765    ( 0.0000,  0.0000,  0.0000)
  15 Pd     2.830098    4.901874   12.310765    ( 0.0000,  0.0000,  0.0000)
  16 Ag     5.660196    4.901874   12.310765    ( 0.0000,  0.0000,  0.0000)
  17 Pd     8.490294    4.901874   12.310765    ( 0.0000,  0.0000,  0.0000)
  18 Ag     1.422839    0.836358   14.687202    ( 0.0000,  0.0000,  0.0000)
  19 Ag     4.228290    0.834029   14.668537    ( 0.0000,  0.0000,  0.0000)
  20 Pt     7.000876    0.833422   14.677349    ( 0.0000,  0.0000,  0.0000)
  21 Ag     2.849410    3.275055   14.697646    ( 0.0000,  0.0000,  0.0000)
  22 Ag     5.607020    3.276035   14.715763    ( 0.0000,  0.0000,  0.0000)
  23 Ag     8.407636    3.278571   14.701685    ( 0.0000,  0.0000,  0.0000)
  24 Pd     4.226650    5.664441   14.783889    ( 0.0000,  0.0000,  0.0000)
  25 Pd     7.021524    5.717496   14.695770    ( 0.0000,  0.0000,  0.0000)
  26 Ag     9.810161    5.688371   14.690489    ( 0.0000,  0.0000,  0.0000)
  27 Pt     0.030364    1.654579   17.054310    ( 0.0000,  0.0000,  0.0000)
  28 Pd     2.863636    1.668211   17.080253    ( 0.0000,  0.0000,  0.0000)
  29 Pd     5.584811    1.668389   17.077768    ( 0.0000,  0.0000,  0.0000)
  30 Pd     1.451673    4.084780   17.054426    ( 0.0000,  0.0000,  0.0000)
  31 Ru     4.287216    4.070209   17.299465    ( 0.0000,  0.0000,  0.0000)
  32 Pt     6.976254    4.091014   17.095978    ( 0.0000,  0.0000,  0.0000)
  33 Ag     2.791829    6.501265   17.070936    ( 0.0000,  0.0000,  0.0000)
  34 Pt     5.617052    6.449501   17.092744    ( 0.0000,  0.0000,  0.0000)
  35 Ru     8.289070    6.444709   17.186717    ( 0.0000,  0.0000,  0.0000)
  36 Pd     0.109969    0.038419   19.432145    ( 0.0000,  0.0000,  0.0000)
  37 Ru     2.913932   -0.060119   19.211827    ( 0.0000,  0.0000,  0.0000)
  38 Pd     5.607656    0.003198   19.432032    ( 0.0000,  0.0000,  0.0000)
  39 Pt     1.441354    2.458850   19.369405    ( 0.0000,  0.0000,  0.0000)
  40 Pd     4.211433    2.427374   19.463642    ( 0.0000,  0.0000,  0.0000)
  41 Pd     7.082631    2.483306   19.414916    ( 0.0000,  0.0000,  0.0000)
  42 Pt     2.814800    4.836018   19.384744    ( 0.0000,  0.0000,  0.0000)
  43 Pd     5.686541    4.887569   19.522731    ( 0.0000,  0.0000,  0.0000)
  44 Ru     8.428363    4.985817   19.203811    ( 0.0000,  0.0000,  0.0000)
  45 O      8.443949    3.309324   20.822731    ( 0.0000,  0.0000,  0.0000)

Unit cell:
           periodic     x           y           z      points  spacing
  1. axis:    yes    8.379498    0.000000    0.000000    35     0.2073
  2. axis:    yes    4.189749    7.256858    0.000000    35     0.2073
  3. axis:    no     0.000000    0.000000   29.243062   135     0.2166

  Lengths:   8.379498   8.379498  29.243062
  Angles:   90.000000  90.000000  60.000000

Effective grid spacing dv^(1/3) = 0.2207

                     log10-error:    total        iterations:
           time      wfs    density  energy       fermi  poisson
iter:   1  01:14:32  +0.49   +inf  -238.813494    3             
iter:   2  01:15:28  -1.07  -1.21  -209.912358    3             
iter:   3  01:16:25  -1.37  -1.32  -231.886121    37            
iter:   4  01:17:21  -1.29  -1.27  -257.582989    3             
iter:   5  01:18:17  -1.50  -1.22  -193.575910    36            
iter:   6  01:19:13  -1.90  -1.49  -187.651191    36            
iter:   7  01:20:10  -2.39  -1.62  -186.599338    4             
iter:   8  01:21:07  -2.38  -1.66  -184.503759    3             
iter:   9  01:22:04  -2.04  -1.79  -183.419334    3             
iter:  10  01:23:01  -2.75  -1.97  -182.849340    4             
iter:  11  01:23:58  -3.19  -2.04  -182.357647    3             
iter:  12  01:24:55  -3.26  -2.14  -182.553926    3             
iter:  13  01:25:52  -3.22  -2.14  -182.756865    3             
iter:  14  01:26:49  -3.25  -2.12  -182.142993    3             
iter:  15  01:27:46  -3.38  -2.33  -181.948173    3             
iter:  16  01:28:43  -3.51  -2.48  -181.972179    3             
iter:  17  01:29:53  -3.77  -2.52  -181.850481    3             
iter:  18  01:31:03  -3.92  -2.70  -181.810384    3             
iter:  19  01:32:13  -3.97  -2.87  -181.911641    2             
iter:  20  01:33:22  -4.47  -2.61  -181.815908    3             
iter:  21  01:34:33  -4.50  -2.89  -181.796076    2             
iter:  22  01:35:43  -4.64  -3.10  -181.793660    3             
iter:  23  01:36:53  -5.23  -3.12  -181.795623    2             
iter:  24  01:38:03  -5.21  -3.19  -181.792439    2             
iter:  25  01:39:14  -5.20  -3.26  -181.796285    2             
iter:  26  01:40:24  -5.49  -3.15  -181.791051    2             
iter:  27  01:41:35  -5.63  -3.34  -181.791021    2             
iter:  28  01:42:45  -5.65  -3.44  -181.790983    2             
iter:  29  01:43:56  -5.71  -3.37  -181.794761    2             
iter:  30  01:45:06  -5.99  -3.35  -181.790786    2             
iter:  31  01:46:16  -6.28  -3.58  -181.790431    2             
iter:  32  01:47:26  -6.12  -3.61  -181.789559    2             
iter:  33  01:48:35  -6.35  -3.65  -181.790735    2             
iter:  34  01:49:45  -6.54  -3.70  -181.789999    2             
iter:  35  01:50:55  -6.75  -3.76  -181.790395    2             
iter:  36  01:52:05  -7.09  -3.74  -181.790154    2             
iter:  37  01:53:15  -6.74  -3.83  -181.790082    2             
iter:  38  01:54:24  -6.78  -3.89  -181.789572    2             
iter:  39  01:55:34  -6.82  -3.93  -181.790504    2             
iter:  40  01:56:44  -7.26  -3.88  -181.790055    2             
iter:  41  01:57:53  -7.40  -4.04  -181.789961    2             

Converged after 41 iterations.

Dipole moment: (24.678850, 21.630238, -0.336057) |e|*Ang

Energy contributions relative to reference atoms: (reference = -9073453.423555)

Kinetic:       -180.792288
Potential:      +34.449888
External:        +0.000000
XC:             -30.002500
Entropy (-ST):   -2.005124
Local:           -4.442499
--------------------------
Free energy:   -182.792523
Extrapolated:  -181.789961

Fermi level: 0.77162

Showing only first 2 kpts
 Kpt  Band  Eigenvalues  Occupancy
  0   367      0.75786    0.13358
  0   368      0.79962    0.10761
  0   369      0.80868    0.10210
  0   370      0.87794    0.06417

  1   367      0.67031    0.18340
  1   368      0.68508    0.17595
  1   369      0.73082    0.15015
  1   370      0.74053    0.14428



Forces in eV/Ang:
  0 Pd    0.08420    0.51316   -0.42023
  1 Ag    0.12382    0.49111   -0.51520
  2 Pt   -0.23782    0.51359    0.82921
  3 Pd    0.09068    0.03200   -0.07832
  4 Pd    0.12554   -0.39132    0.20215
  5 Pt   -0.14067   -0.29825   -0.09415
  6 Pd   -0.18244   -0.38236   -0.04815
  7 Ag   -0.11672   -0.45983   -0.71358
  8 Pd   -0.25315   -0.29623    0.27540
  9 Ag    0.51449    0.21480    0.43448
 10 Ru    2.21955    1.29188    0.39568
 11 Ru   -1.85185    0.87092   -0.34851
 12 Pd    1.12384   -0.25085    0.00127
 13 Ru   -0.52466   -1.49049   -0.84731
 14 Ag   -0.45154    0.12361    0.28555
 15 Pd    0.18204   -0.57309    0.08813
 16 Ag   -0.18400   -0.38106    0.33207
 17 Pd   -0.37088    0.55031   -0.01817
 18 Ag   -0.01623    0.00399    0.01143
 19 Ag   -0.00909   -0.00606   -0.04297
 20 Pt   -0.00904   -0.03242   -0.03759
 21 Ag   -0.00208   -0.00282    0.02549
 22 Ag    0.02000   -0.02184    0.01536
 23 Ag   -0.00960   -0.00272    0.06961
 24 Pd    0.01593    0.02548    0.02584
 25 Pd    0.04210    0.01756    0.06151
 26 Ag   -0.01021   -0.01038    0.02735
 27 Pt   -0.02893   -0.04731   -0.19911
 28 Pd   -0.10928    0.07234    0.31743
 29 Pd    0.07516   -0.03985    0.15504
 30 Pd    0.00942    0.05313   -0.12238
 31 Ru   -0.00985    0.01308   -0.00672
 32 Pt   -0.00732    0.06503   -0.22230
 33 Ag    0.01536    0.05936    0.01540
 34 Pt    0.00023    0.02971   -0.02703
 35 Ru    0.04223    0.14512   -0.12021
 36 Pd   -0.00515   -0.28943   -0.01131
 37 Ru   -0.09963    0.08684   -0.02570
 38 Pd   -0.04238   -0.05726   -0.08857
 39 Pt    0.03259    0.04449    0.81343
 40 Pd   -0.11604   -0.06832   -0.06449
 41 Pd   -0.21089    0.03763    0.39505
 42 Pt    0.20417    0.17183   -0.11723
 43 Pd   -0.18129    0.08350   -0.08955
 44 Ru   -0.17942   -0.80926    1.52190
 45 O     0.35530    0.35369   -2.08287

System changes: positions 

Initializing position-dependent things.

Density initialized from wave functions
                                             
                                             
                                             
                                             
                                             
                                             
                 Pt     Pd    ORu            
                                             
            Pt    APd    PPd    Ru           
                                             
        Pd    Ru     Pd    Pt                
        Pt     Pd     Pd                     
                     Pd     Pd     Ag        
                Ag     Ag     Ag             
                                             
           Ag    PAg    APt    Pd            
                                             
            Pd     Ru     Ag     Pd          
       Ag    PRu    PRu    Pt                
                                             
        Pd     Ag     Pt                     
                                             
                                             
                                             
                                             
                                             

Positions:
   0 Pd     0.000000    1.633958   10.000000    ( 0.0000,  0.0000,  0.0000)
   1 Ag     2.830098    1.633958   10.000000    ( 0.0000,  0.0000,  0.0000)
   2 Pt     5.660196    1.633958   10.000000    ( 0.0000,  0.0000,  0.0000)
   3 Pd     1.415049    4.084895   10.000000    ( 0.0000,  0.0000,  0.0000)
   4 Pd     4.245147    4.084895   10.000000    ( 0.0000,  0.0000,  0.0000)
   5 Pt     7.075245    4.084895   10.000000    ( 0.0000,  0.0000,  0.0000)
   6 Pd     2.830098    6.535832   10.000000    ( 0.0000,  0.0000,  0.0000)
   7 Ag     5.660196    6.535832   10.000000    ( 0.0000,  0.0000,  0.0000)
   8 Pd     8.490294    6.535832   10.000000    ( 0.0000,  0.0000,  0.0000)
   9 Ag     0.000000    0.000000   12.310765    ( 0.0000,  0.0000,  0.0000)
  10 Ru     2.830098    0.000000   12.310765    ( 0.0000,  0.0000,  0.0000)
  11 Ru     5.660196    0.000000   12.310765    ( 0.0000,  0.0000,  0.0000)
  12 Pd     1.415049    2.450937   12.310765    ( 0.0000,  0.0000,  0.0000)
  13 Ru     4.245147    2.450937   12.310765    ( 0.0000,  0.0000,  0.0000)
  14 Ag     7.075245    2.450937   12.310765    ( 0.0000,  0.0000,  0.0000)
  15 Pd     2.830098    4.901874   12.310765    ( 0.0000,  0.0000,  0.0000)
  16 Ag     5.660196    4.901874   12.310765    ( 0.0000,  0.0000,  0.0000)
  17 Pd     8.490294    4.901874   12.310765    ( 0.0000,  0.0000,  0.0000)
  18 Ag     1.421324    0.836731   14.688269    ( 0.0000,  0.0000,  0.0000)
  19 Ag     4.227441    0.833464   14.664526    ( 0.0000,  0.0000,  0.0000)
  20 Pt     7.000032    0.830395   14.673840    ( 0.0000,  0.0000,  0.0000)
  21 Ag     2.849216    3.274791   14.700026    ( 0.0000,  0.0000,  0.0000)
  22 Ag     5.608887    3.273996   14.717197    ( 0.0000,  0.0000,  0.0000)
  23 Ag     8.406740    3.278317   14.708184    ( 0.0000,  0.0000,  0.0000)
  24 Pd     4.228137    5.666819   14.786302    ( 0.0000,  0.0000,  0.0000)
  25 Pd     7.025455    5.719135   14.701512    ( 0.0000,  0.0000,  0.0000)
  26 Ag     9.809208    5.687402   14.693042    ( 0.0000,  0.0000,  0.0000)
  27 Pt     0.027663    1.650163   17.035722    ( 0.0000,  0.0000,  0.0000)
  28 Pd     2.853434    1.674964   17.109886    ( 0.0000,  0.0000,  0.0000)
  29 Pd     5.591828    1.664669   17.092242    ( 0.0000,  0.0000,  0.0000)
  30 Pd     1.452552    4.089740   17.043001    ( 0.0000,  0.0000,  0.0000)
  31 Ru     4.286296    4.071430   17.298837    ( 0.0000,  0.0000,  0.0000)
  32 Pt     6.975571    4.097085   17.075225    ( 0.0000,  0.0000,  0.0000)
  33 Ag     2.793263    6.506806   17.072373    ( 0.0000,  0.0000,  0.0000)
  34 Pt     5.617074    6.452274   17.090220    ( 0.0000,  0.0000,  0.0000)
  35 Ru     8.293013    6.458257   17.175494    ( 0.0000,  0.0000,  0.0000)
  36 Pd     0.109488    0.011399   19.431089    ( 0.0000,  0.0000,  0.0000)
  37 Ru     2.904631   -0.052012   19.209427    ( 0.0000,  0.0000,  0.0000)
  38 Pd     5.603700   -0.002147   19.423764    ( 0.0000,  0.0000,  0.0000)
  39 Pt     1.444397    2.463003   19.445343    ( 0.0000,  0.0000,  0.0000)
  40 Pd     4.200600    2.420996   19.457621    ( 0.0000,  0.0000,  0.0000)
  41 Pd     7.062943    2.486818   19.451795    ( 0.0000,  0.0000,  0.0000)
  42 Pt     2.833860    4.852059   19.373800    ( 0.0000,  0.0000,  0.0000)
  43 Pd     5.669616    4.895364   19.514371    ( 0.0000,  0.0000,  0.0000)
  44 Ru     8.411613    4.910268   19.345889    ( 0.0000,  0.0000,  0.0000)
  45 O      8.477118    3.342343   20.628284    ( 0.0000,  0.0000,  0.0000)

Unit cell:
           periodic     x           y           z      points  spacing
  1. axis:    yes    8.379498    0.000000    0.000000    35     0.2073
  2. axis:    yes    4.189749    7.256858    0.000000    35     0.2073
  3. axis:    no     0.000000    0.000000   29.243062   135     0.2166

  Lengths:   8.379498   8.379498  29.243062
  Angles:   90.000000  90.000000  60.000000

Effective grid spacing dv^(1/3) = 0.2207

                     log10-error:    total        iterations:
           time      wfs    density  energy       fermi  poisson
iter:   1  01:59:34  -1.71   +inf  -186.698093    4             
iter:   2  02:00:41  -2.05  -2.00  -193.225149    35            
iter:   3  02:01:48  -1.91  -1.76  -212.959944    3             
iter:   4  02:02:57  -2.19  -1.54  -185.703679    36            
iter:   5  02:04:06  -3.48  -2.01  -182.926316    3             
iter:   6  02:05:13  -3.71  -2.41  -182.545695    3             
iter:   7  02:06:22  -3.60  -2.57  -182.739742    3             
iter:   8  02:07:29  -3.94  -2.36  -182.306471    3             
iter:   9  02:08:36  -3.98  -2.80  -182.250622    3             
iter:  10  02:09:44  -4.57  -2.89  -182.244114    2             
iter:  11  02:10:51  -4.05  -2.97  -182.354413    2             
iter:  12  02:11:58  -4.16  -2.58  -182.276266    2             
iter:  13  02:13:06  -4.31  -2.78  -182.217830    3             
iter:  14  02:14:16  -5.05  -3.17  -182.206358    3             
iter:  15  02:15:26  -5.63  -3.37  -182.204905    2             
iter:  16  02:16:37  -5.88  -3.45  -182.207469    2             
iter:  17  02:17:47  -5.82  -3.41  -182.205382    2             
iter:  18  02:18:58  -5.97  -3.51  -182.204614    2             
iter:  19  02:20:09  -6.09  -3.64  -182.206889    2             
iter:  20  02:21:20  -6.07  -3.54  -182.205108    2             
iter:  21  02:22:30  -6.03  -3.60  -182.204185    2             
iter:  22  02:23:38  -6.03  -3.74  -182.206143    2             
iter:  23  02:24:45  -6.37  -3.73  -182.205293    2             
iter:  24  02:25:52  -6.69  -4.04  -182.204622    2             
iter:  25  02:27:00  -6.57  -4.02  -182.205748    2             
iter:  26  02:28:08  -6.93  -3.84  -182.205154    2             
iter:  27  02:29:15  -6.74  -4.13  -182.204548    2             
iter:  28  02:30:23  -7.18  -4.05  -182.204898    2             
iter:  29  02:31:30  -7.23  -4.09  -182.204991    2             
iter:  30  02:32:38  -7.10  -4.18  -182.204408    2             
iter:  31  02:33:46  -7.26  -4.16  -182.204656    2             
iter:  32  02:34:54  -7.31  -4.29  -182.204908    2             
iter:  33  02:36:00  -7.62  -4.36  -182.204656    2             

Converged after 33 iterations.

Dipole moment: (24.456909, 22.831423, -0.190733) |e|*Ang

Energy contributions relative to reference atoms: (reference = -9073453.423555)

Kinetic:       -174.139286
Potential:      +28.436172
External:        +0.000000
XC:             -31.069938
Entropy (-ST):   -1.995598
Local:           -4.433806
--------------------------
Free energy:   -183.202455
Extrapolated:  -182.204656

Fermi level: 0.84439

Showing only first 2 kpts
 Kpt  Band  Eigenvalues  Occupancy
  0   367      0.83259    0.13237
  0   368      0.87314    0.10715
  0   369      0.88523    0.09982
  0   370      0.93997    0.06943

  1   367      0.75460    0.17763
  1   368      0.77075    0.16905
  1   369      0.79802    0.15347
  1   370      0.82188    0.13901



Forces in eV/Ang:
  0 Pd    0.10218    0.50937   -0.41760
  1 Ag    0.10925    0.49387   -0.51584
  2 Pt   -0.24484    0.50651    0.82963
  3 Pd    0.10379    0.03060   -0.07968
  4 Pd    0.10628   -0.38072    0.20486
  5 Pt   -0.13444   -0.29320   -0.08173
  6 Pd   -0.17446   -0.39667   -0.04738
  7 Ag   -0.12280   -0.45329   -0.70579
  8 Pd   -0.25025   -0.29538    0.27918
  9 Ag    0.52335    0.21321    0.42394
 10 Ru    2.19547    1.28313    0.40304
 11 Ru   -1.84098    0.85549   -0.34367
 12 Pd    1.11283   -0.24872    0.01165
 13 Ru   -0.53197   -1.46566   -0.80898
 14 Ag   -0.43186    0.13572    0.29152
 15 Pd    0.18842   -0.57853    0.08829
 16 Ag   -0.18251   -0.37804    0.35748
 17 Pd   -0.37393    0.54155    0.00411
 18 Ag    0.03954    0.01059   -0.02627
 19 Ag   -0.02455    0.03151    0.04872
 20 Pt   -0.02515   -0.02910   -0.05657
 21 Ag    0.00986   -0.00852    0.02152
 22 Ag   -0.01520   -0.01466   -0.01582
 23 Ag    0.01287    0.00712   -0.06695
 24 Pd    0.00653   -0.01262   -0.00936
 25 Pd    0.01816   -0.00514   -0.00275
 26 Ag    0.01382   -0.01585    0.00236
 27 Pt    0.00864    0.04683    0.05182
 28 Pd   -0.10735    0.08516    0.15317
 29 Pd   -0.00764   -0.00301    0.08816
 30 Pd   -0.09721    0.08501    0.12067
 31 Ru   -0.04041   -0.02005   -0.06070
 32 Pt    0.15290    0.14454    0.09089
 33 Ag   -0.02458    0.02506   -0.04679
 34 Pt    0.05122    0.01828   -0.05233
 35 Ru   -0.09007   -0.08497    0.48276
 36 Pd   -0.06499   -0.06785   -0.03663
 37 Ru    0.16912   -0.29324   -0.13641
 38 Pd   -0.15531   -0.21327   -0.09456
 39 Pt    0.98627   -0.70827   -0.45268
 40 Pd   -0.03654   -0.10283   -0.00394
 41 Pd   -0.89859   -0.58103   -0.43435
 42 Pt    0.09220    0.13634   -0.06311
 43 Pd   -0.15503    0.00404   -0.08832
 44 Ru   -0.10265    0.32115    0.28697
 45 O     0.07147    1.18353    0.23257

System changes: positions 

Initializing position-dependent things.

Density initialized from wave functions
                                             
                                             
                                             
                                             
                                             
                                             
                  Pt    Pd     Ou            
                                             
             Pt   APd    PPd    Ru           
        Pd           Ru                      
              Ru     Pd    Pt                
        Pt     Pd    PPd                     
                            Pd     Ag        
                Ag     Ag     Ag             
                                             
           Ag    PAg    APt    Pd            
                                             
            Pd     Ru     Ag     Pd          
       Ag    PRu    PRu    Pt                
                                             
        Pd     Ag     Pt                     
                                             
                                             
                                             
                                             
                                             

Positions:
   0 Pd     0.000000    1.633958   10.000000    ( 0.0000,  0.0000,  0.0000)
   1 Ag     2.830098    1.633958   10.000000    ( 0.0000,  0.0000,  0.0000)
   2 Pt     5.660196    1.633958   10.000000    ( 0.0000,  0.0000,  0.0000)
   3 Pd     1.415049    4.084895   10.000000    ( 0.0000,  0.0000,  0.0000)
   4 Pd     4.245147    4.084895   10.000000    ( 0.0000,  0.0000,  0.0000)
   5 Pt     7.075245    4.084895   10.000000    ( 0.0000,  0.0000,  0.0000)
   6 Pd     2.830098    6.535832   10.000000    ( 0.0000,  0.0000,  0.0000)
   7 Ag     5.660196    6.535832   10.000000    ( 0.0000,  0.0000,  0.0000)
   8 Pd     8.490294    6.535832   10.000000    ( 0.0000,  0.0000,  0.0000)
   9 Ag     0.000000    0.000000   12.310765    ( 0.0000,  0.0000,  0.0000)
  10 Ru     2.830098    0.000000   12.310765    ( 0.0000,  0.0000,  0.0000)
  11 Ru     5.660196    0.000000   12.310765    ( 0.0000,  0.0000,  0.0000)
  12 Pd     1.415049    2.450937   12.310765    ( 0.0000,  0.0000,  0.0000)
  13 Ru     4.245147    2.450937   12.310765    ( 0.0000,  0.0000,  0.0000)
  14 Ag     7.075245    2.450937   12.310765    ( 0.0000,  0.0000,  0.0000)
  15 Pd     2.830098    4.901874   12.310765    ( 0.0000,  0.0000,  0.0000)
  16 Ag     5.660196    4.901874   12.310765    ( 0.0000,  0.0000,  0.0000)
  17 Pd     8.490294    4.901874   12.310765    ( 0.0000,  0.0000,  0.0000)
  18 Ag     1.424280    0.838003   14.686342    ( 0.0000,  0.0000,  0.0000)
  19 Ag     4.224499    0.836217   14.666843    ( 0.0000,  0.0000,  0.0000)
  20 Pt     6.997034    0.825659   14.666100    ( 0.0000,  0.0000,  0.0000)
  21 Ag     2.850066    3.273789   14.703617    ( 0.0000,  0.0000,  0.0000)
  22 Ag     5.608544    3.271292   14.716527    ( 0.0000,  0.0000,  0.0000)
  23 Ag     8.407452    3.278862   14.705611    ( 0.0000,  0.0000,  0.0000)
  24 Pd     4.229699    5.667048   14.786872    ( 0.0000,  0.0000,  0.0000)
  25 Pd     7.029673    5.719643   14.704792    ( 0.0000,  0.0000,  0.0000)
  26 Ag     9.809980    5.685242   14.694853    ( 0.0000,  0.0000,  0.0000)
  27 Pt     0.026844    1.652043   17.029330    ( 0.0000,  0.0000,  0.0000)
  28 Pd     2.836557    1.687526   17.143292    ( 0.0000,  0.0000,  0.0000)
  29 Pd     5.595415    1.662072   17.109872    ( 0.0000,  0.0000,  0.0000)
  30 Pd     1.443525    4.101177   17.047817    ( 0.0000,  0.0000,  0.0000)
  31 Ru     4.281749    4.070212   17.292472    ( 0.0000,  0.0000,  0.0000)
  32 Pt     6.990203    4.115070   17.071341    ( 0.0000,  0.0000,  0.0000)
  33 Ag     2.791730    6.512701   17.068656    ( 0.0000,  0.0000,  0.0000)
  34 Pt     5.622130    6.455789   17.083507    ( 0.0000,  0.0000,  0.0000)
  35 Ru     8.286582    6.458269   17.216086    ( 0.0000,  0.0000,  0.0000)
  36 Pd     0.102792   -0.011989   19.426830    ( 0.0000,  0.0000,  0.0000)
  37 Ru     2.915532   -0.075871   19.194513    ( 0.0000,  0.0000,  0.0000)
  38 Pd     5.585962   -0.026451   19.409341    ( 0.0000,  0.0000,  0.0000)
  39 Pt     1.543385    2.395836   19.447732    ( 0.0000,  0.0000,  0.0000)
  40 Pd     4.190303    2.406927   19.453510    ( 0.0000,  0.0000,  0.0000)
  41 Pd     6.962295    2.431784   19.431835    ( 0.0000,  0.0000,  0.0000)
  42 Pt     2.854725    4.875403   19.360819    ( 0.0000,  0.0000,  0.0000)
  43 Pd     5.643886    4.900582   19.500506    ( 0.0000,  0.0000,  0.0000)
  44 Ru     8.391149    4.895170   19.462001    ( 0.0000,  0.0000,  0.0000)
  45 O      8.504666    3.479289   20.530941    ( 0.0000,  0.0000,  0.0000)

Unit cell:
           periodic     x           y           z      points  spacing
  1. axis:    yes    8.379498    0.000000    0.000000    35     0.2073
  2. axis:    yes    4.189749    7.256858    0.000000    35     0.2073
  3. axis:    no     0.000000    0.000000   29.243062   135     0.2166

  Lengths:   8.379498   8.379498  29.243062
  Angles:   90.000000  90.000000  60.000000

Effective grid spacing dv^(1/3) = 0.2207

                     log10-error:    total        iterations:
           time      wfs    density  energy       fermi  poisson
iter:   1  02:37:37  -1.59   +inf  -194.525117    3             
iter:   2  02:38:46  -0.89  -1.72  -375.739971    39            
iter:   3  02:39:54  -1.44  -1.15  -189.573065    38            
iter:   4  02:41:02  -2.28  -1.85  -183.157753    35            
iter:   5  02:42:10  -2.91  -2.34  -183.100972    3             
iter:   6  02:43:18  -3.66  -2.23  -182.579628    2             
iter:   7  02:44:25  -3.57  -2.55  -183.051981    3             
iter:   8  02:45:33  -3.54  -2.30  -182.464197    3             
iter:   9  02:46:41  -4.17  -2.56  -182.329433    3             
iter:  10  02:47:49  -4.20  -2.86  -182.433079    2             
iter:  11  02:48:54  -4.27  -2.58  -182.306348    3             
iter:  12  02:49:51  -4.13  -2.95  -182.285669    2             
iter:  13  02:50:48  -4.56  -3.02  -182.279695    3             
iter:  14  02:51:46  -5.04  -3.22  -182.277209    3             
iter:  15  02:52:43  -5.56  -3.20  -182.273950    2             
iter:  16  02:53:38  -5.60  -3.36  -182.276660    2             
iter:  17  02:54:35  -5.23  -3.25  -182.289394    2             
iter:  18  02:55:32  -5.30  -3.12  -182.273587    2             
iter:  19  02:56:28  -5.80  -3.48  -182.273882    2             
iter:  20  02:57:34  -5.87  -3.76  -182.273199    2             
iter:  21  02:58:43  -5.89  -3.80  -182.273323    2             
iter:  22  02:59:53  -6.26  -3.86  -182.274106    2             
iter:  23  03:01:03  -6.38  -3.89  -182.273823    2             
iter:  24  03:02:13  -6.18  -3.76  -182.274630    2             
iter:  25  03:03:23  -6.28  -3.57  -182.273624    2             
iter:  26  03:04:33  -6.99  -3.97  -182.273212    2             
iter:  27  03:05:44  -6.96  -4.14  -182.273356    2             
iter:  28  03:06:53  -7.16  -4.10  -182.273456    2             
iter:  29  03:08:05  -7.24  -4.14  -182.273201    2             
iter:  30  03:09:15  -6.91  -4.27  -182.273443    2             
iter:  31  03:10:26  -7.30  -4.14  -182.273355    2             
iter:  32  03:11:36  -7.50  -4.20  -182.273136    2             

Converged after 32 iterations.

Dipole moment: (20.036684, 25.971397, -0.128933) |e|*Ang

Energy contributions relative to reference atoms: (reference = -9073453.423555)

Kinetic:       -163.737338
Potential:      +19.734492
External:        +0.000000
XC:             -32.741131
Entropy (-ST):   -1.994212
Local:           -4.532054
--------------------------
Free energy:   -183.270242
Extrapolated:  -182.273136

Fermi level: 0.87229

Showing only first 2 kpts
 Kpt  Band  Eigenvalues  Occupancy
  0   367      0.85851    0.13359
  0   368      0.90105    0.10714
  0   369      0.91146    0.10083
  0   370      0.96215    0.07233

  1   367      0.78643    0.17559
  1   368      0.80743    0.16417
  1   369      0.81942    0.15729
  1   370      0.85736    0.13431



Forces in eV/Ang:
  0 Pd    0.10262    0.51116   -0.42312
  1 Ag    0.10691    0.49428   -0.52017
  2 Pt   -0.24507    0.50834    0.82472
  3 Pd    0.10466    0.03304   -0.08506
  4 Pd    0.10690   -0.37749    0.19920
  5 Pt   -0.13435   -0.29619   -0.08959
  6 Pd   -0.17374   -0.39816   -0.05144
  7 Ag   -0.12573   -0.45474   -0.71114
  8 Pd   -0.24503   -0.29520    0.28035
  9 Ag    0.53219    0.20829    0.41047
 10 Ru    2.20286    1.27922    0.40154
 11 Ru   -1.85157    0.85000   -0.34030
 12 Pd    1.11699   -0.24573    0.01002
 13 Ru   -0.53713   -1.46695   -0.80497
 14 Ag   -0.42853    0.14420    0.28182
 15 Pd    0.19204   -0.58148    0.08657
 16 Ag   -0.17913   -0.37756    0.36304
 17 Pd   -0.37416    0.54369    0.00672
 18 Ag    0.02399    0.00403   -0.01306
 19 Ag   -0.01812    0.00593    0.16176
 20 Pt   -0.01438    0.00961   -0.02350
 21 Ag   -0.00970    0.00677    0.04006
 22 Ag    0.02064   -0.00018    0.03126
 23 Ag    0.00726   -0.01070   -0.05729
 24 Pd    0.00496   -0.01757   -0.01594
 25 Pd    0.00175   -0.00796   -0.02195
 26 Ag   -0.00038   -0.00390   -0.00282
 27 Pt    0.01984    0.10617    0.19686
 28 Pd    0.05671   -0.03154   -0.29018
 29 Pd   -0.10507    0.01208   -0.18342
 30 Pd   -0.16279    0.04331    0.25296
 31 Ru   -0.00198   -0.04339   -0.10430
 32 Pt    0.10273   -0.05898    0.21448
 33 Ag   -0.00732    0.02878   -0.12166
 34 Pt   -0.09713    0.02814   -0.12828
 35 Ru    0.05742   -0.11304    0.09744
 36 Pd   -0.07592    0.25309   -0.05899
 37 Ru   -0.10354   -0.10818    0.27893
 38 Pd   -0.04723   -0.24574    0.07662
 39 Pt   -0.20720   -0.29955   -0.22883
 40 Pd    0.29089   -0.05261    0.11766
 41 Pd    0.07985   -0.23744   -0.14603
 42 Pt   -0.04016   -0.11456   -0.00323
 43 Pd   -0.07327   -0.15558   -0.07044
 44 Ru    0.11098    2.05428   -1.55082
 45 O    -0.00937   -1.07513    1.89837

System changes: positions 

Initializing position-dependent things.

Density initialized from wave functions
                                             
                                             
                                             
                                             
                                             
                                             
                  Pt    Pd    ORu            
                                             
             Pt   APd    PPd    Ru           
                     Ru                      
        Pd    Ru     Pd    Pt                
        Pt     Pd     Pd                     
                     Pd     Pd     Ag        
                Ag     Ag     Ag             
                                             
           Ag    PAg    APt    Pd            
                                             
            Pd     Ru     Ag     Pd          
       Ag    PRu    PRu    Pt                
                                             
        Pd     Ag     Pt                     
                                             
                                             
                                             
                                             
                                             

Positions:
   0 Pd     0.000000    1.633958   10.000000    ( 0.0000,  0.0000,  0.0000)
   1 Ag     2.830098    1.633958   10.000000    ( 0.0000,  0.0000,  0.0000)
   2 Pt     5.660196    1.633958   10.000000    ( 0.0000,  0.0000,  0.0000)
   3 Pd     1.415049    4.084895   10.000000    ( 0.0000,  0.0000,  0.0000)
   4 Pd     4.245147    4.084895   10.000000    ( 0.0000,  0.0000,  0.0000)
   5 Pt     7.075245    4.084895   10.000000    ( 0.0000,  0.0000,  0.0000)
   6 Pd     2.830098    6.535832   10.000000    ( 0.0000,  0.0000,  0.0000)
   7 Ag     5.660196    6.535832   10.000000    ( 0.0000,  0.0000,  0.0000)
   8 Pd     8.490294    6.535832   10.000000    ( 0.0000,  0.0000,  0.0000)
   9 Ag     0.000000    0.000000   12.310765    ( 0.0000,  0.0000,  0.0000)
  10 Ru     2.830098    0.000000   12.310765    ( 0.0000,  0.0000,  0.0000)
  11 Ru     5.660196    0.000000   12.310765    ( 0.0000,  0.0000,  0.0000)
  12 Pd     1.415049    2.450937   12.310765    ( 0.0000,  0.0000,  0.0000)
  13 Ru     4.245147    2.450937   12.310765    ( 0.0000,  0.0000,  0.0000)
  14 Ag     7.075245    2.450937   12.310765    ( 0.0000,  0.0000,  0.0000)
  15 Pd     2.830098    4.901874   12.310765    ( 0.0000,  0.0000,  0.0000)
  16 Ag     5.660196    4.901874   12.310765    ( 0.0000,  0.0000,  0.0000)
  17 Pd     8.490294    4.901874   12.310765    ( 0.0000,  0.0000,  0.0000)
  18 Ag     1.422761    0.837349   14.687332    ( 0.0000,  0.0000,  0.0000)
  19 Ag     4.226011    0.834802   14.665653    ( 0.0000,  0.0000,  0.0000)
  20 Pt     6.998574    0.828092   14.670076    ( 0.0000,  0.0000,  0.0000)
  21 Ag     2.849629    3.274304   14.701772    ( 0.0000,  0.0000,  0.0000)
  22 Ag     5.608720    3.272681   14.716871    ( 0.0000,  0.0000,  0.0000)
  23 Ag     8.407086    3.278582   14.706933    ( 0.0000,  0.0000,  0.0000)
  24 Pd     4.228896    5.666930   14.786579    ( 0.0000,  0.0000,  0.0000)
  25 Pd     7.027506    5.719382   14.703107    ( 0.0000,  0.0000,  0.0000)
  26 Ag     9.809584    5.686352   14.693922    ( 0.0000,  0.0000,  0.0000)
  27 Pt     0.027265    1.651077   17.032613    ( 0.0000,  0.0000,  0.0000)
  28 Pd     2.845227    1.681072   17.126130    ( 0.0000,  0.0000,  0.0000)
  29 Pd     5.593572    1.663406   17.100815    ( 0.0000,  0.0000,  0.0000)
  30 Pd     1.448163    4.095301   17.045343    ( 0.0000,  0.0000,  0.0000)
  31 Ru     4.284085    4.070838   17.295742    ( 0.0000,  0.0000,  0.0000)
  32 Pt     6.982686    4.105830   17.073337    ( 0.0000,  0.0000,  0.0000)
  33 Ag     2.792518    6.509673   17.070566    ( 0.0000,  0.0000,  0.0000)
  34 Pt     5.619533    6.453983   17.086956    ( 0.0000,  0.0000,  0.0000)
  35 Ru     8.289886    6.458263   17.195232    ( 0.0000,  0.0000,  0.0000)
  36 Pd     0.106232    0.000026   19.429018    ( 0.0000,  0.0000,  0.0000)
  37 Ru     2.909932   -0.063614   19.202175    ( 0.0000,  0.0000,  0.0000)
  38 Pd     5.595075   -0.013965   19.416750    ( 0.0000,  0.0000,  0.0000)
  39 Pt     1.492530    2.430343   19.446505    ( 0.0000,  0.0000,  0.0000)
  40 Pd     4.195593    2.414155   19.455622    ( 0.0000,  0.0000,  0.0000)
  41 Pd     7.014002    2.460057   19.442090    ( 0.0000,  0.0000,  0.0000)
  42 Pt     2.844006    4.863410   19.367488    ( 0.0000,  0.0000,  0.0000)
  43 Pd     5.657105    4.897901   19.507629    ( 0.0000,  0.0000,  0.0000)
  44 Ru     8.401662    4.902926   19.402349    ( 0.0000,  0.0000,  0.0000)
  45 O      8.490514    3.408934   20.580951    ( 0.0000,  0.0000,  0.0000)

Unit cell:
           periodic     x           y           z      points  spacing
  1. axis:    yes    8.379498    0.000000    0.000000    35     0.2073
  2. axis:    yes    4.189749    7.256858    0.000000    35     0.2073
  3. axis:    no     0.000000    0.000000   29.243062   135     0.2166

  Lengths:   8.379498   8.379498  29.243062
  Angles:   90.000000  90.000000  60.000000

Effective grid spacing dv^(1/3) = 0.2207

                     log10-error:    total        iterations:
           time      wfs    density  energy       fermi  poisson
iter:   1  03:13:19  -2.01   +inf  -187.138459    4             
iter:   2  03:14:29  -1.43  -1.90  -284.763135    37            
iter:   3  03:15:40  -1.74  -1.28  -183.505747    35            
iter:   4  03:16:50  -2.75  -2.23  -182.699704    3             
iter:   5  03:18:01  -3.61  -2.43  -182.681079    3             
iter:   6  03:19:11  -3.80  -2.50  -182.463384    3             
iter:   7  03:20:21  -4.32  -2.68  -182.405305    2             
iter:   8  03:21:32  -4.26  -2.92  -182.441260    3             
iter:   9  03:22:43  -4.69  -2.81  -182.398426    2             
iter:  10  03:23:53  -4.75  -2.94  -182.382720    2             
iter:  11  03:25:03  -4.81  -3.16  -182.391777    3             
iter:  12  03:26:14  -4.80  -3.02  -182.400995    3             
iter:  13  03:27:25  -4.96  -2.96  -182.369178    2             
iter:  14  03:28:36  -5.66  -3.48  -182.372483    2             
iter:  15  03:29:46  -5.76  -3.37  -182.371537    2             
iter:  16  03:30:55  -5.89  -3.47  -182.369348    2             
iter:  17  03:32:06  -6.31  -3.81  -182.370228    2             
iter:  18  03:33:17  -6.08  -3.60  -182.370719    2             
iter:  19  03:34:28  -6.15  -3.68  -182.369305    2             
iter:  20  03:35:39  -6.54  -3.98  -182.368908    2             
iter:  21  03:36:50  -6.83  -4.15  -182.369910    2             
iter:  22  03:38:01  -6.91  -3.95  -182.369243    2             
iter:  23  03:39:11  -7.33  -4.43  -182.369031    2             
iter:  24  03:40:23  -7.79  -4.36  -182.369103    2             

Converged after 24 iterations.

Dipole moment: (22.171269, 24.363293, -0.167116) |e|*Ang

Energy contributions relative to reference atoms: (reference = -9073453.423555)

Kinetic:       -171.294461
Potential:      +25.943542
External:        +0.000000
XC:             -31.579966
Entropy (-ST):   -1.994055
Local:           -4.441190
--------------------------
Free energy:   -183.366131
Extrapolated:  -182.369103

Fermi level: 0.85397

Showing only first 2 kpts
 Kpt  Band  Eigenvalues  Occupancy
  0   367      0.84146    0.13281
  0   368      0.88464    0.10598
  0   369      0.89298    0.10092
  0   370      0.94431    0.07209

  1   367      0.76647    0.17644
  1   368      0.78504    0.16645
  1   369      0.80350    0.15589
  1   370      0.83535    0.13660



Forces in eV/Ang:
  0 Pd    0.10116    0.51209   -0.42406
  1 Ag    0.10884    0.49622   -0.51959
  2 Pt   -0.24398    0.50631    0.82192
  3 Pd    0.10534    0.03325   -0.08736
  4 Pd    0.10401   -0.37887    0.20003
  5 Pt   -0.13256   -0.29593   -0.09036
  6 Pd   -0.17614   -0.39915   -0.05147
  7 Ag   -0.12513   -0.45488   -0.70927
  8 Pd   -0.24387   -0.29735    0.27519
  9 Ag    0.52582    0.21115    0.41716
 10 Ru    2.20118    1.28005    0.40413
 11 Ru   -1.84681    0.85079   -0.34452
 12 Pd    1.11276   -0.24465    0.01074
 13 Ru   -0.53453   -1.46382   -0.80522
 14 Ag   -0.42909    0.14110    0.28458
 15 Pd    0.19021   -0.58085    0.08421
 16 Ag   -0.18122   -0.38019    0.35951
 17 Pd   -0.37340    0.54187    0.00258
 18 Ag    0.03213    0.00566   -0.01767
 19 Ag   -0.02203    0.01501    0.11100
 20 Pt   -0.01951   -0.01010   -0.03379
 21 Ag    0.00054    0.00001    0.03086
 22 Ag    0.00171   -0.00630    0.01174
 23 Ag    0.01039   -0.00210   -0.06283
 24 Pd    0.00677   -0.01520   -0.00682
 25 Pd    0.01030   -0.00460   -0.00796
 26 Ag    0.00619   -0.00856    0.00306
 27 Pt    0.01188    0.08291    0.12585
 28 Pd   -0.04037    0.03709   -0.05944
 29 Pd   -0.04137    0.01728   -0.03881
 30 Pd   -0.14656    0.07090    0.19770
 31 Ru   -0.01837   -0.02807   -0.08271
 32 Pt    0.14594    0.05096    0.16389
 33 Ag   -0.01878    0.02384   -0.08442
 34 Pt   -0.01777    0.01617   -0.09561
 35 Ru   -0.01701   -0.10598    0.29383
 36 Pd   -0.07058    0.10920   -0.03144
 37 Ru    0.05569   -0.24099    0.05730
 38 Pd   -0.09308   -0.21970   -0.02061
 39 Pt    0.35516   -0.51004   -0.34162
 40 Pd    0.11350   -0.06438    0.06424
 41 Pd   -0.32124   -0.41096   -0.25185
 42 Pt    0.03086    0.02059   -0.05294
 43 Pd   -0.12924   -0.06800   -0.09294
 44 Ru    0.01689    0.72229   -0.27062
 45 O     0.05331    0.55959    0.61608

System changes: positions 

Initializing position-dependent things.

Density initialized from wave functions
                                             
                                             
                                             
                                             
                                             
                                             
                  Pt    Pd     Ou            
                                             
             Pt   APd    PPd    Ru           
                     Ru                      
        Pd    Ru     Pd    Pt                
        Pt     Pd     Pd                     
                     Pd     Pd     Ag        
                Ag     Ag     Ag             
                                             
           Ag    PAg    APt    Pd            
                                             
            Pd     Ru     Ag     Pd          
       Ag    PRu    PRu    Pt                
                                             
        Pd     Ag     Pt                     
                                             
                                             
                                             
                                             
                                             

Positions:
   0 Pd     0.000000    1.633958   10.000000    ( 0.0000,  0.0000,  0.0000)
   1 Ag     2.830098    1.633958   10.000000    ( 0.0000,  0.0000,  0.0000)
   2 Pt     5.660196    1.633958   10.000000    ( 0.0000,  0.0000,  0.0000)
   3 Pd     1.415049    4.084895   10.000000    ( 0.0000,  0.0000,  0.0000)
   4 Pd     4.245147    4.084895   10.000000    ( 0.0000,  0.0000,  0.0000)
   5 Pt     7.075245    4.084895   10.000000    ( 0.0000,  0.0000,  0.0000)
   6 Pd     2.830098    6.535832   10.000000    ( 0.0000,  0.0000,  0.0000)
   7 Ag     5.660196    6.535832   10.000000    ( 0.0000,  0.0000,  0.0000)
   8 Pd     8.490294    6.535832   10.000000    ( 0.0000,  0.0000,  0.0000)
   9 Ag     0.000000    0.000000   12.310765    ( 0.0000,  0.0000,  0.0000)
  10 Ru     2.830098    0.000000   12.310765    ( 0.0000,  0.0000,  0.0000)
  11 Ru     5.660196    0.000000   12.310765    ( 0.0000,  0.0000,  0.0000)
  12 Pd     1.415049    2.450937   12.310765    ( 0.0000,  0.0000,  0.0000)
  13 Ru     4.245147    2.450937   12.310765    ( 0.0000,  0.0000,  0.0000)
  14 Ag     7.075245    2.450937   12.310765    ( 0.0000,  0.0000,  0.0000)
  15 Pd     2.830098    4.901874   12.310765    ( 0.0000,  0.0000,  0.0000)
  16 Ag     5.660196    4.901874   12.310765    ( 0.0000,  0.0000,  0.0000)
  17 Pd     8.490294    4.901874   12.310765    ( 0.0000,  0.0000,  0.0000)
  18 Ag     1.425762    0.838024   14.685860    ( 0.0000,  0.0000,  0.0000)
  19 Ag     4.223239    0.835976   14.678320    ( 0.0000,  0.0000,  0.0000)
  20 Pt     6.996161    0.826280   14.665456    ( 0.0000,  0.0000,  0.0000)
  21 Ag     2.849424    3.274394   14.706345    ( 0.0000,  0.0000,  0.0000)
  22 Ag     5.609930    3.271424   14.719308    ( 0.0000,  0.0000,  0.0000)
  23 Ag     8.407913    3.278056   14.702080    ( 0.0000,  0.0000,  0.0000)
  24 Pd     4.230198    5.665962   14.786693    ( 0.0000,  0.0000,  0.0000)
  25 Pd     7.029894    5.719438   14.704089    ( 0.0000,  0.0000,  0.0000)
  26 Ag     9.809798    5.685186   14.695182    ( 0.0000,  0.0000,  0.0000)
  27 Pt     0.027754    1.659820   17.042140    ( 0.0000,  0.0000,  0.0000)
  28 Pd     2.838456    1.686665   17.125133    ( 0.0000,  0.0000,  0.0000)
  29 Pd     5.590557    1.664522   17.098711    ( 0.0000,  0.0000,  0.0000)
  30 Pd     1.430594    4.104873   17.065685    ( 0.0000,  0.0000,  0.0000)
  31 Ru     4.282125    4.067872   17.285560    ( 0.0000,  0.0000,  0.0000)
  32 Pt     6.999050    4.111806   17.086451    ( 0.0000,  0.0000,  0.0000)
  33 Ag     2.790987    6.514320   17.060575    ( 0.0000,  0.0000,  0.0000)
  34 Pt     5.616030    6.456764   17.074176    ( 0.0000,  0.0000,  0.0000)
  35 Ru     8.290870    6.450386   17.221006    ( 0.0000,  0.0000,  0.0000)
  36 Pd     0.097843    0.006892   19.425151    ( 0.0000,  0.0000,  0.0000)
  37 Ru     2.910654   -0.087327   19.212044    ( 0.0000,  0.0000,  0.0000)
  38 Pd     5.584334   -0.041188   19.413071    ( 0.0000,  0.0000,  0.0000)
  39 Pt     1.520900    2.377479   19.436208    ( 0.0000,  0.0000,  0.0000)
  40 Pd     4.208034    2.405356   19.462344    ( 0.0000,  0.0000,  0.0000)
  41 Pd     6.982561    2.417741   19.429966    ( 0.0000,  0.0000,  0.0000)
  42 Pt     2.852903    4.868912   19.357802    ( 0.0000,  0.0000,  0.0000)
  43 Pd     5.636904    4.891285   19.493941    ( 0.0000,  0.0000,  0.0000)
  44 Ru     8.400294    4.967978   19.409062    ( 0.0000,  0.0000,  0.0000)
  45 O      8.507841    3.471401   20.591871    ( 0.0000,  0.0000,  0.0000)

Unit cell:
           periodic     x           y           z      points  spacing
  1. axis:    yes    8.379498    0.000000    0.000000    35     0.2073
  2. axis:    yes    4.189749    7.256858    0.000000    35     0.2073
  3. axis:    no     0.000000    0.000000   29.243062   135     0.2166

  Lengths:   8.379498   8.379498  29.243062
  Angles:   90.000000  90.000000  60.000000

Effective grid spacing dv^(1/3) = 0.2207

                     log10-error:    total        iterations:
           time      wfs    density  energy       fermi  poisson
iter:   1  03:42:05  -2.08   +inf  -184.139539    3             
iter:   2  03:43:12  -2.00  -2.15  -215.267537    35            
iter:   3  03:44:20  -2.31  -1.53  -183.144353    35            
iter:   4  03:45:28  -3.21  -2.40  -182.870439    3             
iter:   5  03:46:36  -3.70  -2.40  -182.521656    3             
iter:   6  03:47:43  -4.27  -2.75  -182.500223    3             
iter:   7  03:48:51  -4.43  -2.87  -182.525470    2             
iter:   8  03:49:58  -4.46  -2.79  -182.475797    3             
iter:   9  03:51:07  -4.95  -3.09  -182.469937    3             
iter:  10  03:52:15  -4.64  -3.27  -182.479743    2             
iter:  11  03:53:24  -4.82  -3.08  -182.496510    2             
iter:  12  03:54:32  -5.12  -2.89  -182.464336    2             
iter:  13  03:55:40  -5.68  -3.58  -182.466518    2             
iter:  14  03:56:49  -5.79  -3.48  -182.463569    2             
iter:  15  03:57:58  -6.00  -3.52  -182.464107    2             
iter:  16  03:59:07  -6.35  -3.73  -182.463136    2             
iter:  17  04:00:15  -5.91  -3.71  -182.465753    2             
iter:  18  04:01:24  -6.17  -3.61  -182.463720    2             
iter:  19  04:02:32  -6.25  -3.72  -182.463034    2             
iter:  20  04:03:40  -6.68  -4.02  -182.463492    2             
iter:  21  04:04:48  -7.09  -4.30  -182.463484    2             
iter:  22  04:05:55  -7.25  -4.31  -182.463090    2             
iter:  23  04:07:03  -7.15  -4.30  -182.463231    2             
iter:  24  04:08:11  -7.61  -4.59  -182.463425    2             

Converged after 24 iterations.

Dipole moment: (20.782024, 26.243616, -0.191952) |e|*Ang

Energy contributions relative to reference atoms: (reference = -9073453.423555)

Kinetic:       -172.247700
Potential:      +26.694052
External:        +0.000000
XC:             -31.472241
Entropy (-ST):   -1.995583
Local:           -4.439744
--------------------------
Free energy:   -183.461216
Extrapolated:  -182.463425

Fermi level: 0.84155

Showing only first 2 kpts
 Kpt  Band  Eigenvalues  Occupancy
  0   367      0.82881    0.13295
  0   368      0.87055    0.10700
  0   369      0.88296    0.09948
  0   370      0.93997    0.06801

  1   367      0.75379    0.17658
  1   368      0.77170    0.16696
  1   369      0.78463    0.15964
  1   370      0.82570    0.13489



Forces in eV/Ang:
  0 Pd    0.10086    0.51016   -0.41805
  1 Ag    0.10924    0.49371   -0.51637
  2 Pt   -0.24597    0.50849    0.83159
  3 Pd    0.10524    0.03302   -0.08083
  4 Pd    0.10694   -0.37854    0.20508
  5 Pt   -0.13468   -0.29563   -0.08331
  6 Pd   -0.17370   -0.39848   -0.04638
  7 Ag   -0.12494   -0.45455   -0.70613
  8 Pd   -0.24613   -0.29591    0.28083
  9 Ag    0.53247    0.20898    0.41446
 10 Ru    2.21371    1.28334    0.41630
 11 Ru   -1.86389    0.85569   -0.32647
 12 Pd    1.12004   -0.24627    0.00990
 13 Ru   -0.53541   -1.47861   -0.78540
 14 Ag   -0.43315    0.14382    0.27800
 15 Pd    0.19074   -0.58303    0.09531
 16 Ag   -0.17904   -0.37919    0.36607
 17 Pd   -0.37239    0.54837    0.00443
 18 Ag   -0.01693    0.01190   -0.01035
 19 Ag   -0.00150    0.00129    0.06323
 20 Pt    0.00314    0.01531   -0.01958
 21 Ag   -0.01884    0.02203    0.04005
 22 Ag    0.02569    0.01259    0.02156
 23 Ag    0.01005   -0.00787   -0.00473
 24 Pd   -0.00029   -0.01951   -0.04429
 25 Pd    0.00671   -0.02038   -0.00799
 26 Ag   -0.00683   -0.01890    0.00241
 27 Pt    0.00728    0.02916    0.05087
 28 Pd    0.06046   -0.04911   -0.03732
 29 Pd   -0.06842   -0.00210   -0.06945
 30 Pd   -0.02811   -0.01303    0.12536
 31 Ru   -0.00497   -0.04100   -0.04583
 32 Pt   -0.03321   -0.04852    0.10215
 33 Ag   -0.00197    0.03007   -0.05594
 34 Pt    0.02963    0.02802   -0.00924
 35 Ru   -0.02038    0.00815   -0.05708
 36 Pd   -0.05449   -0.00009   -0.06242
 37 Ru   -0.14728    0.03442    0.10542
 38 Pd    0.08470    0.04153    0.02764
 39 Pt   -0.17793    0.13693    0.02240
 40 Pd    0.04458   -0.05323   -0.00788
 41 Pd    0.19872    0.06011    0.04411
 42 Pt   -0.06735   -0.16395   -0.02900
 43 Pd    0.00242   -0.12483   -0.06779
 44 Ru    0.02660   -0.13438    0.16079
 45 O    -0.03563    0.28222   -0.27951

System changes: positions 

Initializing position-dependent things.

Density initialized from wave functions
                                             
                                             
                                             
                                             
                                             
                                             
                  Pt    Pd     Ou            
                                             
             Pt   APd    PPd    Ru           
                     Ru                      
        Pd    Ru     Pd    Pt                
        Pt     Pd     Pd                     
                     Pd     Pd     Ag        
                Ag     Ag     Ag             
                                             
           Ag    PAg    APt    Pd            
                                             
            Pd     Ru     Ag     Pd          
       Ag    PRu    PRu    Pt                
                                             
        Pd     Ag     Pt                     
                                             
                                             
                                             
                                             
                                             

Positions:
   0 Pd     0.000000    1.633958   10.000000    ( 0.0000,  0.0000,  0.0000)
   1 Ag     2.830098    1.633958   10.000000    ( 0.0000,  0.0000,  0.0000)
   2 Pt     5.660196    1.633958   10.000000    ( 0.0000,  0.0000,  0.0000)
   3 Pd     1.415049    4.084895   10.000000    ( 0.0000,  0.0000,  0.0000)
   4 Pd     4.245147    4.084895   10.000000    ( 0.0000,  0.0000,  0.0000)
   5 Pt     7.075245    4.084895   10.000000    ( 0.0000,  0.0000,  0.0000)
   6 Pd     2.830098    6.535832   10.000000    ( 0.0000,  0.0000,  0.0000)
   7 Ag     5.660196    6.535832   10.000000    ( 0.0000,  0.0000,  0.0000)
   8 Pd     8.490294    6.535832   10.000000    ( 0.0000,  0.0000,  0.0000)
   9 Ag     0.000000    0.000000   12.310765    ( 0.0000,  0.0000,  0.0000)
  10 Ru     2.830098    0.000000   12.310765    ( 0.0000,  0.0000,  0.0000)
  11 Ru     5.660196    0.000000   12.310765    ( 0.0000,  0.0000,  0.0000)
  12 Pd     1.415049    2.450937   12.310765    ( 0.0000,  0.0000,  0.0000)
  13 Ru     4.245147    2.450937   12.310765    ( 0.0000,  0.0000,  0.0000)
  14 Ag     7.075245    2.450937   12.310765    ( 0.0000,  0.0000,  0.0000)
  15 Pd     2.830098    4.901874   12.310765    ( 0.0000,  0.0000,  0.0000)
  16 Ag     5.660196    4.901874   12.310765    ( 0.0000,  0.0000,  0.0000)
  17 Pd     8.490294    4.901874   12.310765    ( 0.0000,  0.0000,  0.0000)
  18 Ag     1.425009    0.839345   14.684419    ( 0.0000,  0.0000,  0.0000)
  19 Ag     4.222392    0.836500   14.687435    ( 0.0000,  0.0000,  0.0000)
  20 Pt     6.995834    0.827268   14.662392    ( 0.0000,  0.0000,  0.0000)
  21 Ag     2.847629    3.276481   14.711223    ( 0.0000,  0.0000,  0.0000)
  22 Ag     5.612548    3.272319   14.721811    ( 0.0000,  0.0000,  0.0000)
  23 Ag     8.409123    3.277224   14.700155    ( 0.0000,  0.0000,  0.0000)
  24 Pd     4.230461    5.663793   14.782420    ( 0.0000,  0.0000,  0.0000)
  25 Pd     7.031070    5.717459   14.703433    ( 0.0000,  0.0000,  0.0000)
  26 Ag     9.809270    5.683078   14.695655    ( 0.0000,  0.0000,  0.0000)
  27 Pt     0.028640    1.664816   17.049653    ( 0.0000,  0.0000,  0.0000)
  28 Pd     2.842443    1.683467   17.121461    ( 0.0000,  0.0000,  0.0000)
  29 Pd     5.583214    1.664624   17.091737    ( 0.0000,  0.0000,  0.0000)
  30 Pd     1.423588    4.106027   17.082855    ( 0.0000,  0.0000,  0.0000)
  31 Ru     4.281065    4.063203   17.278688    ( 0.0000,  0.0000,  0.0000)
  32 Pt     7.000178    4.109008   17.099845    ( 0.0000,  0.0000,  0.0000)
  33 Ag     2.790331    6.518223   17.052805    ( 0.0000,  0.0000,  0.0000)
  34 Pt     5.618283    6.460077   17.070280    ( 0.0000,  0.0000,  0.0000)
  35 Ru     8.288704    6.448813   17.223513    ( 0.0000,  0.0000,  0.0000)
  36 Pd     0.090527    0.008614   19.418214    ( 0.0000,  0.0000,  0.0000)
  37 Ru     2.897660   -0.090691   19.223756    ( 0.0000,  0.0000,  0.0000)
  38 Pd     5.589434   -0.044084   19.414640    ( 0.0000,  0.0000,  0.0000)
  39 Pt     1.514311    2.375735   19.432808    ( 0.0000,  0.0000,  0.0000)
  40 Pd     4.215091    2.398017   19.463182    ( 0.0000,  0.0000,  0.0000)
  41 Pd     6.991107    2.411571   19.429004    ( 0.0000,  0.0000,  0.0000)
  42 Pt     2.848512    4.854806   19.352819    ( 0.0000,  0.0000,  0.0000)
  43 Pd     5.632297    4.877804   19.484223    ( 0.0000,  0.0000,  0.0000)
  44 Ru     8.402398    4.972354   19.424505    ( 0.0000,  0.0000,  0.0000)
  45 O      8.508007    3.516494   20.572145    ( 0.0000,  0.0000,  0.0000)

Unit cell:
           periodic     x           y           z      points  spacing
  1. axis:    yes    8.379498    0.000000    0.000000    35     0.2073
  2. axis:    yes    4.189749    7.256858    0.000000    35     0.2073
  3. axis:    no     0.000000    0.000000   29.243062   135     0.2166

  Lengths:   8.379498   8.379498  29.243062
  Angles:   90.000000  90.000000  60.000000

Effective grid spacing dv^(1/3) = 0.2207

                     log10-error:    total        iterations:
           time      wfs    density  energy       fermi  poisson
iter:   1  04:09:49  -2.81   +inf  -182.896932    3             
iter:   2  04:10:57  -2.63  -2.48  -191.357213    4             
iter:   3  04:12:04  -2.74  -1.75  -183.583481    3             
iter:   4  04:13:12  -3.93  -2.20  -182.605832    3             
iter:   5  04:14:19  -4.55  -2.81  -182.523057    3             
iter:   6  04:15:26  -4.74  -3.04  -182.524317    2             
iter:   7  04:16:33  -4.99  -2.90  -182.496772    3             
iter:   8  04:17:40  -4.84  -3.23  -182.485925    3             
iter:   9  04:18:47  -5.87  -3.17  -182.480953    2             
iter:  10  04:19:54  -5.43  -3.50  -182.480859    2             
iter:  11  04:21:00  -5.67  -3.54  -182.479175    2             
iter:  12  04:22:07  -5.49  -3.46  -182.477765    2             
iter:  13  04:23:15  -6.13  -3.81  -182.478381    2             
iter:  14  04:24:22  -6.72  -3.90  -182.478137    2             
iter:  15  04:25:29  -6.26  -3.93  -182.479667    2             
iter:  16  04:26:36  -6.60  -3.59  -182.478082    2             
iter:  17  04:27:43  -7.21  -4.11  -182.478149    2             
iter:  18  04:28:50  -7.03  -4.21  -182.477966    2             
iter:  19  04:29:58  -7.16  -4.29  -182.478411    2             
iter:  20  04:31:05  -6.92  -4.21  -182.478029    2             
iter:  21  04:32:11  -7.42  -4.48  -182.478216    2             

Converged after 21 iterations.

Dipole moment: (21.151809, 26.543047, -0.172180) |e|*Ang

Energy contributions relative to reference atoms: (reference = -9073453.423555)

Kinetic:       -169.857023
Potential:      +24.646152
External:        +0.000000
XC:             -31.818417
Entropy (-ST):   -1.997082
Local:           -4.450386
--------------------------
Free energy:   -183.476757
Extrapolated:  -182.478216

Fermi level: 0.85054

Showing only first 2 kpts
 Kpt  Band  Eigenvalues  Occupancy
  0   367      0.83641    0.13382
  0   368      0.87830    0.10776
  0   369      0.89408    0.09821
  0   370      0.95104    0.06699

  1   367      0.76403    0.17593
  1   368      0.78104    0.16677
  1   369      0.79374    0.15958
  1   370      0.83566    0.13429



Forces in eV/Ang:
  0 Pd    0.09938    0.51030   -0.42297
  1 Ag    0.10803    0.49447   -0.51969
  2 Pt   -0.24371    0.50944    0.82821
  3 Pd    0.10498    0.03438   -0.08611
  4 Pd    0.10680   -0.37680    0.20244
  5 Pt   -0.13431   -0.29610   -0.08974
  6 Pd   -0.17353   -0.39893   -0.04890
  7 Ag   -0.12628   -0.45524   -0.70945
  8 Pd   -0.24355   -0.29870    0.27702
  9 Ag    0.53305    0.20806    0.40522
 10 Ru    2.22251    1.28273    0.42324
 11 Ru   -1.87064    0.85739   -0.32121
 12 Pd    1.12407   -0.24284    0.00692
 13 Ru   -0.53718   -1.48199   -0.76734
 14 Ag   -0.43391    0.14802    0.26945
 15 Pd    0.18890   -0.58702    0.09513
 16 Ag   -0.17846   -0.38204    0.36108
 17 Pd   -0.37105    0.54862   -0.00126
 18 Ag   -0.01912   -0.00307    0.00408
 19 Ag   -0.00186   -0.00869    0.00577
 20 Pt    0.00209    0.00418   -0.00645
 21 Ag   -0.00927    0.00771    0.03520
 22 Ag    0.01540    0.01068    0.01088
 23 Ag    0.00182   -0.00120    0.04603
 24 Pd    0.00498    0.00675   -0.02362
 25 Pd   -0.00384   -0.01010    0.00951
 26 Ag   -0.00689   -0.00405    0.01443
 27 Pt   -0.00677   -0.00276   -0.01784
 28 Pd    0.00496   -0.02899    0.01171
 29 Pd    0.01672   -0.01333   -0.02405
 30 Pd   -0.00743   -0.01707    0.01477
 31 Ru   -0.02174   -0.02288   -0.02295
 32 Pt   -0.05083   -0.03536    0.01931
 33 Ag    0.00628   -0.00516   -0.01664
 34 Pt    0.01778   -0.00526    0.01048
 35 Ru   -0.04982    0.05182    0.00732
 36 Pd   -0.01809   -0.07499   -0.02951
 37 Ru   -0.06930    0.04723   -0.01652
 38 Pd    0.04570    0.05168    0.00422
 39 Pt   -0.05479    0.06670   -0.00125
 40 Pd   -0.01814   -0.03693   -0.01782
 41 Pd    0.09131    0.03045    0.03305
 42 Pt    0.00968   -0.07884   -0.01657
 43 Pd   -0.02472   -0.05034   -0.04034
 44 Ru   -0.00149    0.33336   -0.23072
 45 O    -0.08185   -0.22964    0.35792

System changes: positions 

Initializing position-dependent things.

Density initialized from wave functions
                                             
                                             
                                             
                                             
                                             
                                             
                 Pt     Pd     Ou            
                                             
             Pt   APd    PPd    Ru           
                                             
        Pd    Ru     Pd    Pt                
        Pt     Pd     Pd                     
                     Pd     Pd     Ag        
                Ag     Ag     Ag             
                                             
           Ag    PAg    APt    Pd            
                                             
            Pd     Ru     Ag     Pd          
       Ag    PRu    PRu    Pt                
                                             
        Pd     Ag     Pt                     
                                             
                                             
                                             
                                             
                                             

Positions:
   0 Pd     0.000000    1.633958   10.000000    ( 0.0000,  0.0000,  0.0000)
   1 Ag     2.830098    1.633958   10.000000    ( 0.0000,  0.0000,  0.0000)
   2 Pt     5.660196    1.633958   10.000000    ( 0.0000,  0.0000,  0.0000)
   3 Pd     1.415049    4.084895   10.000000    ( 0.0000,  0.0000,  0.0000)
   4 Pd     4.245147    4.084895   10.000000    ( 0.0000,  0.0000,  0.0000)
   5 Pt     7.075245    4.084895   10.000000    ( 0.0000,  0.0000,  0.0000)
   6 Pd     2.830098    6.535832   10.000000    ( 0.0000,  0.0000,  0.0000)
   7 Ag     5.660196    6.535832   10.000000    ( 0.0000,  0.0000,  0.0000)
   8 Pd     8.490294    6.535832   10.000000    ( 0.0000,  0.0000,  0.0000)
   9 Ag     0.000000    0.000000   12.310765    ( 0.0000,  0.0000,  0.0000)
  10 Ru     2.830098    0.000000   12.310765    ( 0.0000,  0.0000,  0.0000)
  11 Ru     5.660196    0.000000   12.310765    ( 0.0000,  0.0000,  0.0000)
  12 Pd     1.415049    2.450937   12.310765    ( 0.0000,  0.0000,  0.0000)
  13 Ru     4.245147    2.450937   12.310765    ( 0.0000,  0.0000,  0.0000)
  14 Ag     7.075245    2.450937   12.310765    ( 0.0000,  0.0000,  0.0000)
  15 Pd     2.830098    4.901874   12.310765    ( 0.0000,  0.0000,  0.0000)
  16 Ag     5.660196    4.901874   12.310765    ( 0.0000,  0.0000,  0.0000)
  17 Pd     8.490294    4.901874   12.310765    ( 0.0000,  0.0000,  0.0000)
  18 Ag     1.422794    0.839626   14.684257    ( 0.0000,  0.0000,  0.0000)
  19 Ag     4.222343    0.836007   14.689389    ( 0.0000,  0.0000,  0.0000)
  20 Pt     6.996230    0.828238   14.661210    ( 0.0000,  0.0000,  0.0000)
  21 Ag     2.846232    3.277924   14.715160    ( 0.0000,  0.0000,  0.0000)
  22 Ag     5.614529    3.273697   14.723122    ( 0.0000,  0.0000,  0.0000)
  23 Ag     8.409688    3.276917   14.703457    ( 0.0000,  0.0000,  0.0000)
  24 Pd     4.230707    5.663479   14.778673    ( 0.0000,  0.0000,  0.0000)
  25 Pd     7.030915    5.715786   14.703651    ( 0.0000,  0.0000,  0.0000)
  26 Ag     9.808545    5.681988   14.696693    ( 0.0000,  0.0000,  0.0000)
  27 Pt     0.028456    1.665144   17.049740    ( 0.0000,  0.0000,  0.0000)
  28 Pd     2.845425    1.679162   17.122017    ( 0.0000,  0.0000,  0.0000)
  29 Pd     5.581829    1.663384   17.087898    ( 0.0000,  0.0000,  0.0000)
  30 Pd     1.423254    4.103665   17.087755    ( 0.0000,  0.0000,  0.0000)
  31 Ru     4.279167    4.059953   17.275807    ( 0.0000,  0.0000,  0.0000)
  32 Pt     6.994124    4.104665   17.104756    ( 0.0000,  0.0000,  0.0000)
  33 Ag     2.790713    6.518745   17.050041    ( 0.0000,  0.0000,  0.0000)
  34 Pt     5.621707    6.460684   17.071843    ( 0.0000,  0.0000,  0.0000)
  35 Ru     8.283306    6.453330   17.222139    ( 0.0000,  0.0000,  0.0000)
  36 Pd     0.087379    0.001675   19.413536    ( 0.0000,  0.0000,  0.0000)
  37 Ru     2.887399   -0.085027   19.224783    ( 0.0000,  0.0000,  0.0000)
  38 Pd     5.596607   -0.036726   19.415873    ( 0.0000,  0.0000,  0.0000)
  39 Pt     1.506678    2.387663   19.431424    ( 0.0000,  0.0000,  0.0000)
  40 Pd     4.213840    2.393284   19.460659    ( 0.0000,  0.0000,  0.0000)
  41 Pd     7.003413    2.417179   19.431491    ( 0.0000,  0.0000,  0.0000)
  42 Pt     2.845938    4.842261   19.351060    ( 0.0000,  0.0000,  0.0000)
  43 Pd     5.631879    4.869545   19.479330    ( 0.0000,  0.0000,  0.0000)
  44 Ru     8.402816    4.985831   19.415560    ( 0.0000,  0.0000,  0.0000)
  45 O      8.498777    3.512905   20.587297    ( 0.0000,  0.0000,  0.0000)

Unit cell:
           periodic     x           y           z      points  spacing
  1. axis:    yes    8.379498    0.000000    0.000000    35     0.2073
  2. axis:    yes    4.189749    7.256858    0.000000    35     0.2073
  3. axis:    no     0.000000    0.000000   29.243062   135     0.2166

  Lengths:   8.379498   8.379498  29.243062
  Angles:   90.000000  90.000000  60.000000

Effective grid spacing dv^(1/3) = 0.2207

                     log10-error:    total        iterations:
           time      wfs    density  energy       fermi  poisson
iter:   1  04:33:42  -3.00   +inf  -183.610650    3             
iter:   2  04:34:45  -1.97  -2.18  -221.243706    37            
iter:   3  04:35:49  -2.26  -1.50  -182.751975    36            
iter:   4  04:36:51  -3.41  -2.56  -182.509610    3             
iter:   5  04:37:55  -4.40  -3.15  -182.520129    3             
iter:   6  04:38:58  -4.68  -3.02  -182.494753    2             
iter:   7  04:40:01  -5.50  -3.28  -182.491951    2             
iter:   8  04:40:59  -5.31  -3.49  -182.509548    2             
iter:   9  04:41:55  -5.60  -3.08  -182.492507    2             
iter:  10  04:42:52  -5.88  -3.54  -182.490420    2             
iter:  11  04:43:49  -6.21  -3.65  -182.492380    2             
iter:  12  04:44:46  -5.83  -3.50  -182.490875    2             
iter:  13  04:45:43  -6.23  -3.66  -182.488938    2             
iter:  14  04:46:40  -6.77  -4.07  -182.489364    2             
iter:  15  04:47:37  -7.04  -4.06  -182.489466    2             
iter:  16  04:48:35  -6.90  -4.11  -182.489105    2             
iter:  17  04:49:35  -7.11  -4.08  -182.489136    2             
iter:  18  04:50:45  -7.29  -4.41  -182.489481    2             
iter:  19  04:51:55  -7.56  -4.32  -182.489273    2             

Converged after 19 iterations.

Dipole moment: (21.314311, 26.378700, -0.181238) |e|*Ang

Energy contributions relative to reference atoms: (reference = -9073453.423555)

Kinetic:       -171.647587
Potential:      +26.193526
External:        +0.000000
XC:             -31.587731
Entropy (-ST):   -1.996887
Local:           -4.449038
--------------------------
Free energy:   -183.487716
Extrapolated:  -182.489273

Fermi level: 0.84473

Showing only first 2 kpts
 Kpt  Band  Eigenvalues  Occupancy
  0   367      0.83099    0.13358
  0   368      0.87350    0.10714
  0   369      0.88902    0.09777
  0   370      0.94594    0.06664

  1   367      0.75838    0.17585
  1   368      0.77438    0.16724
  1   369      0.78888    0.15903
  1   370      0.83029    0.13401



Forces in eV/Ang:
  0 Pd    0.10144    0.51072   -0.42943
  1 Ag    0.10980    0.49512   -0.52210
  2 Pt   -0.24773    0.50893    0.82344
  3 Pd    0.10640    0.03248   -0.09249
  4 Pd    0.10482   -0.37894    0.19555
  5 Pt   -0.13381   -0.29660   -0.09679
  6 Pd   -0.17404   -0.39928   -0.05767
  7 Ag   -0.12628   -0.45401   -0.71542
  8 Pd   -0.24368   -0.29568    0.27280
  9 Ag    0.53362    0.20947    0.39801
 10 Ru    2.22541    1.28410    0.42446
 11 Ru   -1.87419    0.85816   -0.32034
 12 Pd    1.12537   -0.23996    0.01246
 13 Ru   -0.53757   -1.48093   -0.76097
 14 Ag   -0.43348    0.15224    0.27238
 15 Pd    0.18606   -0.59078    0.09511
 16 Ag   -0.17644   -0.38527    0.35779
 17 Pd   -0.37150    0.54566    0.00366
 18 Ag    0.00609   -0.00856    0.00506
 19 Ag   -0.00899   -0.00021   -0.02270
 20 Pt   -0.00984   -0.00595   -0.01170
 21 Ag    0.00911   -0.01227    0.01672
 22 Ag   -0.00833   -0.00284   -0.00957
 23 Ag   -0.00351    0.00640    0.03333
 24 Pd    0.00727    0.00970   -0.00333
 25 Pd   -0.00336    0.00576    0.01212
 26 Ag   -0.00579    0.00779    0.01302
 27 Pt   -0.00803   -0.01955   -0.02447
 28 Pd   -0.03690    0.01845   -0.00086
 29 Pd    0.03497   -0.01328    0.00407
 30 Pd   -0.03081    0.01983   -0.04023
 31 Ru   -0.01997    0.00203   -0.02692
 32 Pt    0.00154    0.01285   -0.03256
 33 Ag   -0.00081   -0.03370   -0.00165
 34 Pt   -0.04011   -0.02624   -0.03324
 35 Ru    0.00719   -0.00404    0.02626
 36 Pd    0.00187   -0.03643   -0.00583
 37 Ru    0.01144   -0.00061   -0.00307
 38 Pd   -0.00189    0.00941   -0.02499
 39 Pt   -0.05173   -0.02224    0.05107
 40 Pd   -0.00494   -0.02516   -0.00197
 41 Pd    0.02443   -0.00775    0.04518
 42 Pt    0.01862    0.03370   -0.00045
 43 Pd   -0.02785   -0.01093   -0.00862
 44 Ru   -0.03162    0.02695    0.06352
 45 O    -0.00636    0.03266   -0.00891

Timing:                                      incl.     excl.
-------------------------------------------------------------------
Density initialized from wave functions:    19.253    19.252   0.1% |
 Symmetrize density:                         0.000     0.000   0.0% |
Forces:                                    116.195   116.195   0.9% |
Hamiltonian:                                17.121     0.072   0.0% |
 Atomic:                                     3.988     1.878   0.0% |
  XC Correction:                             2.110     2.110   0.0% |
 Calculate atomic Hamiltonians:              5.139     5.139   0.0% |
 Communicate:                                0.878     0.878   0.0% |
 Initialize Hamiltonian:                     0.000     0.000   0.0% |
 Poisson:                                    0.034     0.034   0.0% |
 XC 3D grid:                                 7.009     7.009   0.1% |
LCAO initialization:                        51.863     1.818   0.0% |
 LCAO eigensolver:                           6.404     0.001   0.0% |
  Calculate projections:                     0.036     0.036   0.0% |
  DenseAtomicCorrection:                     0.028     0.028   0.0% |
  Distribute overlap matrix:                 2.952     2.952   0.0% |
  Orbital Layouts:                           0.640     0.640   0.0% |
  Potential matrix:                          2.719     2.719   0.0% |
  Sum over cells:                            0.028     0.028   0.0% |
 LCAO to grid:                              40.461    40.461   0.3% |
 Set positions (LCAO WFS):                   3.180     2.602   0.0% |
  Basic WFS set positions:                   0.001     0.001   0.0% |
  Basis functions set positions:             0.000     0.000   0.0% |
  P tci:                                     0.237     0.237   0.0% |
  ST tci:                                    0.252     0.252   0.0% |
  mktci:                                     0.087     0.087   0.0% |
PWDescriptor:                                0.035     0.035   0.0% |
Redistribute:                                0.037     0.037   0.0% |
SCF-cycle:                               12925.004   467.934   3.6% ||
 Davidson:                               11433.195  2741.925  20.8% |-------|
  Apply H:                                1766.504  1719.104  13.0% |----|
   HMM T:                                   47.400    47.400   0.4% |
  Subspace diag:                          1597.808     0.057   0.0% |
   calc_h_matrix:                          904.372   322.269   2.4% ||
    Apply H:                               582.103   566.214   4.3% |-|
     HMM T:                                 15.889    15.889   0.1% |
   diagonalize:                             51.820    51.820   0.4% |
   rotate_psi:                             641.558   641.558   4.9% |-|
  calc. matrices:                         3492.836  2333.708  17.7% |------|
   Apply H:                               1159.127  1127.681   8.6% |--|
    HMM T:                                  31.446    31.446   0.2% |
  diagonalize:                             533.689   533.689   4.0% |-|
  rotate_psi:                             1300.433  1300.433   9.9% |---|
 Density:                                  532.327     0.011   0.0% |
  Atomic density matrices:                   3.565     3.565   0.0% |
  Mix:                                     177.404   177.404   1.3% ||
  Multipole moments:                         0.238     0.238   0.0% |
  Pseudo density:                          351.109   351.098   2.7% ||
   Symmetrize density:                       0.011     0.011   0.0% |
 Hamiltonian:                              448.932     1.764   0.0% |
  Atomic:                                   98.314    42.741   0.3% |
   XC Correction:                           55.573    55.573   0.4% |
  Calculate atomic Hamiltonians:           141.614   141.614   1.1% |
  Communicate:                              18.609    18.609   0.1% |
  Poisson:                                   0.895     0.895   0.0% |
  XC 3D grid:                              187.735   187.735   1.4% ||
 Orthonormalize:                            42.617     0.003   0.0% |
  calc_s_matrix:                             6.304     6.304   0.0% |
  inverse-cholesky:                          0.780     0.780   0.0% |
  projections:                              22.893    22.893   0.2% |
  rotate_psi_s:                             12.637    12.637   0.1% |
Set symmetry:                                0.002     0.002   0.0% |
Other:                                      50.743    50.743   0.4% |
-------------------------------------------------------------------
Total:                                             13180.252 100.0%

Date: Fri Mar  4 04:52:12 2022
