
  ___ ___ ___ _ _ _  
 |   |   |_  | | | | 
 | | | | | . | | | | 
 |__ |  _|___|_____|  1.5.1
 |___|_|             

User:   clausen@node245.cluster
Date:   Thu Mar  3 19:49:24 2022
Arch:   x86_64
Pid:    152099
Python: 3.6.12
gpaw:   /software/kemi/gpaw/1.5.1/gpaw
_gpaw:  /software/kemi/gpaw/1.5.1/bin/gpaw-python
ase:    /software/kemi/ase/3.17.0/ase (version 3.17.0)
numpy:  /opt/rh/rh-python36/root/usr/lib64/python3.6/site-packages/numpy (version 1.13.1)
scipy:  /opt/rh/rh-python36/root/usr/lib64/python3.6/site-packages/scipy (version 0.19.1)
units:  Angstrom and eV
cores:  16

Input parameters:
  kpts: [4 4 1]
  mode: {ecut: 400.0,
         gammacentered: False,
         name: pw}
  xc: RPBE

System changes: positions, numbers, cell, pbc, initial_charges, initial_magmoms 

Initialize ...

Ag-setup:
  name: Silver
  id: c05e55bab2c3858b3f9398f6d75cb77c
  Z: 47
  valence: 17
  core: 30
  charge: 0.0
  file: /software/kemi/gpaw-setups/0.9.20000/Ag.RPBE.gz
  cutoffs: 1.25(comp), 2.35(filt), 2.19(core), lmax=2
  valence states:
                energy  radius
    5s(1.00)    -4.277   1.286
    4p(6.00)   -58.523   1.328
    5p(0.00)    -0.755   1.328
    4d(10.00)    -7.386   1.180
    *s          22.934   1.286
    *d          19.826   1.180

  Using partial waves for Ag as LCAO basis

Ir-setup:
  name: Iridium
  id: 73b603359d1d5397a85ae3c2440f9033
  Z: 77
  valence: 15
  core: 62
  charge: 0.0
  file: /software/kemi/gpaw-setups/0.9.20000/Ir.RPBE.gz
  cutoffs: 1.26(comp), 2.40(filt), 2.36(core), lmax=2
  valence states:
                energy  radius
    6s(2.00)    -6.219   1.296
    5p(6.00)   -54.684   1.328
    6p(0.00)    -1.215   1.328
    5d(7.00)    -7.118   1.286
    *s          20.992   1.296
    *d          20.093   1.286

  Using partial waves for Ir as LCAO basis

Pt-setup:
  name: Platinum
  id: f04f522592575c47ad794f6b4a415b4b
  Z: 78
  valence: 16
  core: 62
  charge: 0.0
  file: /software/kemi/gpaw-setups/0.9.20000/Pt.RPBE.gz
  cutoffs: 1.29(comp), 2.26(filt), 2.26(core), lmax=2
  valence states:
                energy  radius
    6s(1.00)    -5.516   1.307
    5p(6.00)   -55.971   1.371
    6p(0.00)    -0.856   1.371
    5d(9.00)    -6.087   1.307
    *s          21.695   1.307
    *d          21.125   1.307

  Using partial waves for Pt as LCAO basis

Ru-setup:
  name: Ruthenium
  id: 76477906e28f51dc1b29884d53556fe9
  Z: 44
  valence: 16
  core: 28
  charge: 0.0
  file: /software/kemi/gpaw-setups/0.9.20000/Ru.RPBE.gz
  cutoffs: 1.23(comp), 2.16(filt), 1.30(core), lmax=2
  valence states:
                energy  radius
    4s(2.00)   -76.255   1.281
    5s(1.00)    -4.126   1.281
    4p(6.00)   -46.371   1.286
    5p(0.00)    -0.913   1.286
    4d(7.00)    -5.146   1.254
    *d          22.066   1.254

  Using partial waves for Ru as LCAO basis

O-setup:
  name: Oxygen
  id: 08071ca1eed670e7821b24b7eb4d558c
  Z: 8
  valence: 6
  core: 2
  charge: 0.0
  file: /software/kemi/gpaw-setups/0.9.20000/O.RPBE.gz
  cutoffs: 0.67(comp), 1.17(filt), 0.83(core), lmax=2
  valence states:
                energy  radius
    2s(2.00)   -24.041   0.688
    2p(4.00)    -8.984   0.598
    *s           3.170   0.688
    *p          18.228   0.598
    *d           0.000   0.619

  Using partial waves for O as LCAO basis

H-setup:
  name: Hydrogen
  id: ea3f9156a1dc40d47a60fdce8f8bd75d
  Z: 1
  valence: 1
  core: 0
  charge: 0.0
  file: /software/kemi/gpaw-setups/0.9.20000/H.RPBE.gz
  cutoffs: 0.48(comp), 0.85(filt), 0.53(core), lmax=2
  valence states:
                energy  radius
    1s(1.00)    -6.572   0.476
    *s          20.639   0.476
    *p           0.000   0.476

  Using partial waves for H as LCAO basis

Reference energy: -16429291.423757

Spin-paired calculation

Occupation numbers:
  Fermi-Dirac: width=0.1000 eV

Convergence criteria:
  Maximum total energy change: 0.0005 eV / electron
  Maximum integral of absolute density change: 0.0001 electrons
  Maximum integral of absolute eigenstate change: 4e-08 eV^2
  Maximum number of iterations: 333

Symmetries present (total): 1

  ( 1  0  0)
  ( 0  1  0)
  ( 0  0  1)

16 k-points: 4 x 4 x 1 Monkhorst-Pack grid
8 k-points in the irreducible part of the Brillouin zone
       k-points in crystal coordinates                weights
   0:     0.12500000   -0.37500000    0.00000000          2/16
   1:     0.12500000   -0.12500000    0.00000000          2/16
   2:     0.12500000    0.12500000    0.00000000          2/16
   3:     0.12500000    0.37500000    0.00000000          2/16
   4:     0.37500000   -0.37500000    0.00000000          2/16
   5:     0.37500000   -0.12500000    0.00000000          2/16
   6:     0.37500000    0.12500000    0.00000000          2/16
   7:     0.37500000    0.37500000    0.00000000          2/16

Wave functions: Plane wave expansion
  Cutoff energy: 400.000 eV
  Number of coefficients (min, max): 32722, 32776
  Pulay-stress correction: 0.000000 eV/Ang^3 (de/decut=0.000000)
  Using FFTW library
  ScaLapack parameters: grid=1x1, blocksize=None
  Wavefunction extrapolation:
    Improved wavefunction reuse through dual PAW basis 

Eigensolver
   Davidson(niter=2, smin=None, normalize=True) 

Densities:
  Coarse grid: 35*35*135 grid
  Fine grid: 70*70*270 grid
  Total Charge: 0.000000 

Density mixing:
  Method: separate
  Backend: pulay
  Linear mixing parameter: 0.05
  Mixing with 5 old densities
  Damping of long wave oscillations: 50 

Hamiltonian:
  XC and Coulomb potentials evaluated on a 70*70*270 grid
  Using the RPBE Exchange-Correlation functional
 

XC parameters: RPBE with 2 nearest neighbor stencil

Memory estimate:
  Process memory now: 164.15 MiB
  Calculator: 545.08 MiB
    Density: 51.32 MiB
      Arrays: 16.41 MiB
      Localized functions: 28.56 MiB
      Mixer: 6.36 MiB
    Hamiltonian: 11.63 MiB
      Arrays: 10.73 MiB
      XC: 0.00 MiB
      Poisson: 0.00 MiB
      vbar: 0.90 MiB
    Wavefunctions: 482.13 MiB
      Arrays psit_nG: 218.05 MiB
      Eigensolver: 249.57 MiB
      Projections: 2.75 MiB
      Projectors: 5.13 MiB
      PW-descriptor: 6.62 MiB

Total number of cores used: 16
Parallelization over k-points: 8
Domain decomposition: 1 x 1 x 2

Number of atoms: 47
Number of atomic orbitals: 548
Number of bands in calculation: 436
Bands to converge: occupied states only
Number of valence electrons: 719

... initialized

Initializing position-dependent things.

Density initialized from atomic densities
Creating initial wave functions:
  436 bands from LCAO basis set

                                             
                                             
                                             
                                             
                                             
                               O H           
                                             
                                             
                               Ag            
                  Ir    Ir                   
            Ag    AIr     Pt    Ru           
                                             
       Ir    IIr    IPt    Pt                
         Ru    Ir     Ir                     
                     Pt     Ag     Ir        
                Ag     Ag     Ag             
                                             
           Ir    PPt    RPt    Ir            
                                             
            Ir    IAg    AAg    Pt           
       Ag    IIr    IIr    Ir                
                                             
        Ag     Ag     Ir                     
                                             
                                             
                                             
                                             
                                             

Positions:
   0 Ag     0.000000    1.621936   10.000000    ( 0.0000,  0.0000,  0.0000)
   1 Ag     2.809275    1.621936   10.000000    ( 0.0000,  0.0000,  0.0000)
   2 Ir     5.618550    1.621936   10.000000    ( 0.0000,  0.0000,  0.0000)
   3 Ir     1.404638    4.054840   10.000000    ( 0.0000,  0.0000,  0.0000)
   4 Ir     4.213913    4.054840   10.000000    ( 0.0000,  0.0000,  0.0000)
   5 Ir     7.023188    4.054840   10.000000    ( 0.0000,  0.0000,  0.0000)
   6 Ir     2.809275    6.487743   10.000000    ( 0.0000,  0.0000,  0.0000)
   7 Ag     5.618550    6.487743   10.000000    ( 0.0000,  0.0000,  0.0000)
   8 Pt     8.427826    6.487743   10.000000    ( 0.0000,  0.0000,  0.0000)
   9 Ag     0.000000    0.000000   12.293764    ( 0.0000,  0.0000,  0.0000)
  10 Ir     2.809275    0.000000   12.293764    ( 0.0000,  0.0000,  0.0000)
  11 Ir     5.618550    0.000000   12.293764    ( 0.0000,  0.0000,  0.0000)
  12 Ir     1.404638    2.432904   12.293764    ( 0.0000,  0.0000,  0.0000)
  13 Ag     4.213913    2.432904   12.293764    ( 0.0000,  0.0000,  0.0000)
  14 Ag     7.023188    2.432904   12.293764    ( 0.0000,  0.0000,  0.0000)
  15 Pt     2.809275    4.865807   12.293764    ( 0.0000,  0.0000,  0.0000)
  16 Ru     5.618550    4.865807   12.293764    ( 0.0000,  0.0000,  0.0000)
  17 Ir     8.427826    4.865807   12.293764    ( 0.0000,  0.0000,  0.0000)
  18 Ir     1.441638    0.791118   14.593247    ( 0.0000,  0.0000,  0.0000)
  19 Pt     4.193480    0.729862   14.611205    ( 0.0000,  0.0000,  0.0000)
  20 Pt     7.034823    0.803600   14.634811    ( 0.0000,  0.0000,  0.0000)
  21 Ag     2.789574    3.267050   14.608106    ( 0.0000,  0.0000,  0.0000)
  22 Ag     5.614143    3.230616   14.629701    ( 0.0000,  0.0000,  0.0000)
  23 Ag     8.464759    3.239382   14.607930    ( 0.0000,  0.0000,  0.0000)
  24 Pt     4.237230    5.675263   14.599690    ( 0.0000,  0.0000,  0.0000)
  25 Ag     7.020289    5.624637   14.588938    ( 0.0000,  0.0000,  0.0000)
  26 Ir     9.810296    5.749034   14.534386    ( 0.0000,  0.0000,  0.0000)
  27 Ru     0.088724    1.655821   16.925664    ( 0.0000,  0.0000,  0.0000)
  28 Ir     2.745717    1.627778   16.875164    ( 0.0000,  0.0000,  0.0000)
  29 Ir     5.551846    1.597836   16.889230    ( 0.0000,  0.0000,  0.0000)
  30 Ir     1.358794    4.007324   17.013226    ( 0.0000,  0.0000,  0.0000)
  31 Ir     4.198339    3.977911   16.957702    ( 0.0000,  0.0000,  0.0000)
  32 Pt     7.125382    4.056246   16.998429    ( 0.0000,  0.0000,  0.0000)
  33 Ag     2.759687    6.474835   16.802442    ( 0.0000,  0.0000,  0.0000)
  34 Ir     5.663661    6.563267   16.864024    ( 0.0000,  0.0000,  0.0000)
  35 Ru     8.399575    6.483077   16.866623    ( 0.0000,  0.0000,  0.0000)
  36 Ir     0.015859   -0.055829   18.998154    ( 0.0000,  0.0000,  0.0000)
  37 Ir     2.776668   -0.025110   18.984491    ( 0.0000,  0.0000,  0.0000)
  38 Pt     5.623976   -0.052286   19.132338    ( 0.0000,  0.0000,  0.0000)
  39 Ag     1.411190    2.424549   19.550242    ( 0.0000,  0.0000,  0.0000)
  40 Ir     4.228423    2.403175   19.018562    ( 0.0000,  0.0000,  0.0000)
  41 Pt     6.964575    2.313754   19.128521    ( 0.0000,  0.0000,  0.0000)
  42 Ir     2.920544    4.885225   19.043791    ( 0.0000,  0.0000,  0.0000)
  43 Ir     5.524960    4.949858   19.026821    ( 0.0000,  0.0000,  0.0000)
  44 Ag     8.407084    4.876484   19.535850    ( 0.0000,  0.0000,  0.0000)
  45 O      8.407084    4.876484   21.550242    ( 0.0000,  0.0000,  0.0000)
  46 H      9.057084    5.526484   21.950242    ( 0.0000,  0.0000,  0.0000)

Unit cell:
           periodic     x           y           z      points  spacing
  1. axis:    yes    8.445283    0.000000    0.000000    35     0.2090
  2. axis:    yes    4.222641    7.313829    0.000000    35     0.2090
  3. axis:    no     0.000000    0.000000   29.175054   135     0.2161

  Lengths:   8.445283   8.445283  29.175054
  Angles:   90.000000  90.000000  60.000000

Effective grid spacing dv^(1/3) = 0.2217

                     log10-error:    total        iterations:
           time      wfs    density  energy       fermi  poisson
iter:   1  19:51:50  +0.19   +inf  -300.002446    3             
iter:   2  19:52:58  -1.10  -1.37  -297.531082    37            
iter:   3  19:54:07  -1.38  -1.32  -332.997048    37            
iter:   4  19:55:15  -1.82  -1.25  -279.050155    3             
iter:   5  19:56:23  -2.25  -1.48  -273.994596    36            
iter:   6  19:57:31  -2.36  -1.53  -272.262398    2             
iter:   7  19:58:39  -2.26  -1.57  -268.776968    3             
iter:   8  19:59:48  -2.45  -1.73  -268.085188    3             
iter:   9  20:00:56  -3.24  -1.87  -268.092018    3             
iter:  10  20:02:04  -2.61  -1.88  -268.640154    3             
iter:  11  20:03:11  -2.81  -1.97  -267.917327    3             
iter:  12  20:04:20  -3.17  -2.23  -269.051925    3             
iter:  13  20:05:29  -3.32  -2.02  -268.147929    3             
iter:  14  20:06:38  -3.19  -2.21  -267.825440    2             
iter:  15  20:07:46  -3.63  -2.45  -267.814087    3             
iter:  16  20:08:54  -3.61  -2.58  -267.797975    3             
iter:  17  20:10:03  -3.81  -2.67  -267.766766    3             
iter:  18  20:11:11  -4.14  -2.89  -267.770069    3             
iter:  19  20:12:19  -4.25  -2.99  -267.820667    2             
iter:  20  20:13:27  -4.72  -2.66  -267.769008    2             
iter:  21  20:14:37  -4.81  -3.01  -267.770020    2             
iter:  22  20:15:46  -5.27  -3.10  -267.770591    2             
iter:  23  20:16:55  -4.86  -3.03  -267.769509    2             
iter:  24  20:18:05  -5.11  -3.27  -267.771135    2             
iter:  25  20:19:14  -5.55  -3.35  -267.769096    2             
iter:  26  20:20:22  -5.52  -3.21  -267.770729    2             
iter:  27  20:21:32  -5.68  -3.38  -267.768111    2             
iter:  28  20:22:40  -5.52  -3.57  -267.767313    2             
iter:  29  20:23:49  -6.24  -3.48  -267.767419    2             
iter:  30  20:24:58  -6.61  -3.70  -267.767709    2             
iter:  31  20:26:07  -6.58  -3.77  -267.766871    2             
iter:  32  20:27:16  -6.61  -3.65  -267.767873    2             
iter:  33  20:28:24  -6.98  -3.85  -267.767667    2             
iter:  34  20:29:33  -7.27  -3.95  -267.767585    2             
iter:  35  20:30:41  -6.85  -4.00  -267.768213    2             
iter:  36  20:31:51  -6.92  -3.86  -267.767981    2             
iter:  37  20:33:00  -6.98  -4.05  -267.767119    2             
iter:  38  20:34:10  -7.15  -3.95  -267.767668    2             
iter:  39  20:35:19  -7.83  -4.25  -267.767689    2             

Converged after 39 iterations.

Dipole moment: (23.127862, 18.907097, -0.255054) |e|*Ang

Energy contributions relative to reference atoms: (reference = -16429291.423757)

Kinetic:       -145.270454
Potential:      +89.094253
External:        +0.000000
XC:            -204.094283
Entropy (-ST):   -2.112788
Local:           -6.440810
--------------------------
Free energy:   -268.824083
Extrapolated:  -267.767689

Fermi level: 1.24357

Showing only first 2 kpts
 Kpt  Band  Eigenvalues  Occupancy
  0   357      1.22656    0.13561
  0   358      1.25322    0.11898
  0   359      1.27543    0.10526
  0   360      1.31454    0.08242

  1   357      1.12134    0.19312
  1   358      1.15182    0.17864
  1   359      1.17878    0.16413
  1   360      1.19895    0.15244



Forces in eV/Ang:
  0 Ag   -0.42097    0.16379   -1.04976
  1 Ag    0.25433    0.22901   -0.85676
  2 Ir    0.49430   -0.17752    0.02466
  3 Ir   -0.10787    1.24324    1.39700
  4 Ir    0.41858    0.41140    0.87927
  5 Ir   -0.32623   -0.02393    1.21201
  6 Ir   -1.71924   -0.50619    0.73291
  7 Ag   -0.12182   -0.35376   -0.95676
  8 Pt    1.06517   -0.39243    0.49648
  9 Ag    0.13149    0.00834    0.16736
 10 Ir   -0.01552   -0.42076    0.97464
 11 Ir   -0.63631   -0.79638   -0.53098
 12 Ir    0.39576    0.16371    0.16725
 13 Ag   -0.01776   -0.03433    0.13244
 14 Ag    0.05265    0.08684    0.12228
 15 Pt   -0.15643   -0.02833   -0.62079
 16 Ru    0.63983    0.46681   -1.38058
 17 Ir    0.12982    0.29328   -1.28280
 18 Ir   -0.01558    0.01233    0.02361
 19 Pt    0.00559    0.07970    0.02505
 20 Pt    0.02100    0.01390    0.04695
 21 Ag    0.01192   -0.00062    0.05547
 22 Ag    0.02506   -0.00203    0.04013
 23 Ag    0.00324    0.00369   -0.02348
 24 Pt    0.01869    0.01441    0.04294
 25 Ag   -0.00857   -0.03102   -0.00256
 26 Ir    0.02564   -0.04988   -0.00054
 27 Ru    0.00087   -0.02123    0.04840
 28 Ir   -0.01505   -0.02797    0.12478
 29 Ir    0.03317   -0.01477    0.01694
 30 Ir   -0.06253    0.00677    0.22563
 31 Ir   -0.03454    0.04648    0.12685
 32 Pt    0.00698    0.00602    0.14301
 33 Ag   -0.02156   -0.03204   -0.03571
 34 Ir   -0.02691   -0.03074    0.03886
 35 Ru    0.02082   -0.08375    0.11857
 36 Ir    0.00277    0.00437    0.01780
 37 Ir   -0.00245    0.18014   -0.14346
 38 Pt    0.04009    0.12525   -0.11653
 39 Ag    0.01970   -0.08860    0.02237
 40 Ir   -0.00812    0.01726    0.00413
 41 Pt   -0.10702   -0.17983   -0.10712
 42 Ir    0.09424   -0.10040   -0.16856
 43 Ir   -0.22085   -0.07398   -0.12102
 44 Ag    0.21852    0.00382   -0.82536
 45 O     0.32457    0.27982    1.45134
 46 H    -0.42645   -0.39925   -0.41783

System changes: positions 

Initializing position-dependent things.

Density initialized from wave functions
                                             
                                             
                                             
                                             
                                             
                               O H           
                                             
                                             
                               Ag            
                  Ir    Ir                   
            Ag    AIr     Pt    Ru           
                                             
       Ir    IIr    IPt    Pt                
         Ru    Ir     Ir                     
                     Pt     Ag     Ir        
                Ag     Ag     Ag             
                                             
           Ir    PPt    RPt    Ir            
                                             
            Ir    IAg    AAg    Pt           
       Ag    IIr    IIr    Ir                
                                             
        Ag     Ag     Ir                     
                                             
                                             
                                             
                                             
                                             

Positions:
   0 Ag     0.000000    1.621936   10.000000    ( 0.0000,  0.0000,  0.0000)
   1 Ag     2.809275    1.621936   10.000000    ( 0.0000,  0.0000,  0.0000)
   2 Ir     5.618550    1.621936   10.000000    ( 0.0000,  0.0000,  0.0000)
   3 Ir     1.404638    4.054840   10.000000    ( 0.0000,  0.0000,  0.0000)
   4 Ir     4.213913    4.054840   10.000000    ( 0.0000,  0.0000,  0.0000)
   5 Ir     7.023188    4.054840   10.000000    ( 0.0000,  0.0000,  0.0000)
   6 Ir     2.809275    6.487743   10.000000    ( 0.0000,  0.0000,  0.0000)
   7 Ag     5.618550    6.487743   10.000000    ( 0.0000,  0.0000,  0.0000)
   8 Pt     8.427826    6.487743   10.000000    ( 0.0000,  0.0000,  0.0000)
   9 Ag     0.000000    0.000000   12.293764    ( 0.0000,  0.0000,  0.0000)
  10 Ir     2.809275    0.000000   12.293764    ( 0.0000,  0.0000,  0.0000)
  11 Ir     5.618550    0.000000   12.293764    ( 0.0000,  0.0000,  0.0000)
  12 Ir     1.404638    2.432904   12.293764    ( 0.0000,  0.0000,  0.0000)
  13 Ag     4.213913    2.432904   12.293764    ( 0.0000,  0.0000,  0.0000)
  14 Ag     7.023188    2.432904   12.293764    ( 0.0000,  0.0000,  0.0000)
  15 Pt     2.809275    4.865807   12.293764    ( 0.0000,  0.0000,  0.0000)
  16 Ru     5.618550    4.865807   12.293764    ( 0.0000,  0.0000,  0.0000)
  17 Ir     8.427826    4.865807   12.293764    ( 0.0000,  0.0000,  0.0000)
  18 Ir     1.440080    0.792351   14.595608    ( 0.0000,  0.0000,  0.0000)
  19 Pt     4.194039    0.737832   14.613710    ( 0.0000,  0.0000,  0.0000)
  20 Pt     7.036923    0.804990   14.639506    ( 0.0000,  0.0000,  0.0000)
  21 Ag     2.790766    3.266988   14.613653    ( 0.0000,  0.0000,  0.0000)
  22 Ag     5.616650    3.230413   14.633714    ( 0.0000,  0.0000,  0.0000)
  23 Ag     8.465084    3.239751   14.605582    ( 0.0000,  0.0000,  0.0000)
  24 Pt     4.239098    5.676704   14.603984    ( 0.0000,  0.0000,  0.0000)
  25 Ag     7.019432    5.621535   14.588682    ( 0.0000,  0.0000,  0.0000)
  26 Ir     9.812860    5.744046   14.534331    ( 0.0000,  0.0000,  0.0000)
  27 Ru     0.088811    1.653698   16.930503    ( 0.0000,  0.0000,  0.0000)
  28 Ir     2.744212    1.624981   16.887642    ( 0.0000,  0.0000,  0.0000)
  29 Ir     5.555164    1.596358   16.890924    ( 0.0000,  0.0000,  0.0000)
  30 Ir     1.352541    4.008001   17.035790    ( 0.0000,  0.0000,  0.0000)
  31 Ir     4.194886    3.982558   16.970388    ( 0.0000,  0.0000,  0.0000)
  32 Pt     7.126080    4.056848   17.012731    ( 0.0000,  0.0000,  0.0000)
  33 Ag     2.757532    6.471631   16.798872    ( 0.0000,  0.0000,  0.0000)
  34 Ir     5.660970    6.560193   16.867910    ( 0.0000,  0.0000,  0.0000)
  35 Ru     8.401657    6.474702   16.878480    ( 0.0000,  0.0000,  0.0000)
  36 Ir     0.016136   -0.055392   18.999935    ( 0.0000,  0.0000,  0.0000)
  37 Ir     2.776424   -0.007096   18.970145    ( 0.0000,  0.0000,  0.0000)
  38 Pt     5.627985   -0.039761   19.120686    ( 0.0000,  0.0000,  0.0000)
  39 Ag     1.413160    2.415689   19.552479    ( 0.0000,  0.0000,  0.0000)
  40 Ir     4.227611    2.404901   19.018975    ( 0.0000,  0.0000,  0.0000)
  41 Pt     6.953873    2.295771   19.117809    ( 0.0000,  0.0000,  0.0000)
  42 Ir     2.929968    4.875185   19.026935    ( 0.0000,  0.0000,  0.0000)
  43 Ir     5.502875    4.942460   19.014719    ( 0.0000,  0.0000,  0.0000)
  44 Ag     8.428936    4.876866   19.453314    ( 0.0000,  0.0000,  0.0000)
  45 O      8.439541    4.904466   21.695376    ( 0.0000,  0.0000,  0.0000)
  46 H      9.014439    5.486559   21.908460    ( 0.0000,  0.0000,  0.0000)

Unit cell:
           periodic     x           y           z      points  spacing
  1. axis:    yes    8.445283    0.000000    0.000000    35     0.2090
  2. axis:    yes    4.222641    7.313829    0.000000    35     0.2090
  3. axis:    no     0.000000    0.000000   29.175054   135     0.2161

  Lengths:   8.445283   8.445283  29.175054
  Angles:   90.000000  90.000000  60.000000

Effective grid spacing dv^(1/3) = 0.2217

                     log10-error:    total        iterations:
           time      wfs    density  energy       fermi  poisson
iter:   1  20:37:01  -2.05   +inf  -278.919548    33            
iter:   2  20:38:12  -0.71  -1.60  -516.350145    39            
iter:   3  20:39:20  -1.08  -1.04  -282.174732    36            
iter:   4  20:40:28  -2.15  -1.64  -267.817890    35            
iter:   5  20:41:35  -3.26  -2.36  -267.409554    3             
iter:   6  20:42:38  -4.07  -2.58  -267.381257    3             
iter:   7  20:43:42  -3.23  -2.56  -267.755946    3             
iter:   8  20:44:46  -4.03  -2.22  -267.176612    3             
iter:   9  20:45:50  -4.17  -2.87  -267.335746    3             
iter:  10  20:46:54  -4.16  -2.45  -267.168986    3             
iter:  11  20:47:57  -4.62  -2.78  -267.229183    3             
iter:  12  20:49:01  -4.14  -2.59  -267.117633    3             
iter:  13  20:50:04  -5.07  -3.27  -267.116296    2             
iter:  14  20:51:08  -5.20  -3.35  -267.115410    2             
iter:  15  20:52:06  -5.65  -3.25  -267.117266    2             
iter:  16  20:53:05  -5.97  -3.43  -267.114229    2             
iter:  17  20:54:04  -5.58  -3.56  -267.116401    2             
iter:  18  20:55:04  -6.20  -3.61  -267.115129    2             
iter:  19  20:56:03  -6.33  -3.80  -267.116118    2             
iter:  20  20:57:03  -6.63  -3.71  -267.115263    2             
iter:  21  20:58:03  -6.69  -3.84  -267.116395    2             
iter:  22  20:59:18  -6.65  -3.75  -267.114916    2             
iter:  23  21:00:32  -6.69  -3.82  -267.115341    2             
iter:  24  21:01:45  -6.97  -4.09  -267.115071    2             
iter:  25  21:02:58  -7.25  -4.12  -267.115181    2             
iter:  26  21:04:11  -7.14  -4.25  -267.114955    2             
iter:  27  21:05:25  -7.42  -4.20  -267.115416    2             

Converged after 27 iterations.

Dipole moment: (21.102077, 17.342251, -0.471100) |e|*Ang

Energy contributions relative to reference atoms: (reference = -16429291.423757)

Kinetic:       -133.174870
Potential:      +80.151947
External:        +0.000000
XC:            -206.628465
Entropy (-ST):   -2.114896
Local:           -6.406581
--------------------------
Free energy:   -268.172864
Extrapolated:  -267.115416

Fermi level: 1.14828

Showing only first 2 kpts
 Kpt  Band  Eigenvalues  Occupancy
  0   357      1.13168    0.13535
  0   358      1.15641    0.11992
  0   359      1.18457    0.10256
  0   360      1.22371    0.07997

  1   357      1.02626    0.19303
  1   358      1.05997    0.17687
  1   359      1.08052    0.16580
  1   360      1.10443    0.15198



Forces in eV/Ang:
  0 Ag   -0.41698    0.15643   -1.05019
  1 Ag    0.25062    0.22528   -0.85785
  2 Ir    0.49439   -0.17873    0.04122
  3 Ir   -0.10960    1.23908    1.40039
  4 Ir    0.41949    0.40952    0.89404
  5 Ir   -0.32758   -0.02483    1.21819
  6 Ir   -1.70931   -0.50041    0.73935
  7 Ag   -0.12493   -0.34446   -0.96174
  8 Pt    1.05724   -0.38996    0.49635
  9 Ag    0.13147    0.01086    0.18320
 10 Ir   -0.02120   -0.41327    0.98804
 11 Ir   -0.64065   -0.78572   -0.50900
 12 Ir    0.40793    0.15890    0.17922
 13 Ag   -0.01419   -0.02193    0.15013
 14 Ag    0.04666    0.08093    0.13619
 15 Pt   -0.13651   -0.04190   -0.60141
 16 Ru    0.63833    0.45739   -1.36910
 17 Ir    0.12035    0.29212   -1.27198
 18 Ir    0.01009    0.00967    0.02401
 19 Pt    0.01467   -0.03544    0.05067
 20 Pt    0.00943    0.01620    0.01778
 21 Ag   -0.00010    0.00901    0.08424
 22 Ag    0.00829    0.01898    0.04735
 23 Ag    0.00805    0.00653    0.04419
 24 Pt    0.00494   -0.01382    0.00592
 25 Ag    0.03394    0.01843    0.03579
 26 Ir   -0.00925    0.01881   -0.03127
 27 Ru   -0.00464   -0.00725    0.00125
 28 Ir   -0.06751    0.02420   -0.05283
 29 Ir   -0.00362   -0.00239   -0.10531
 30 Ir   -0.01138   -0.07436   -0.03423
 31 Ir    0.01478   -0.08153   -0.29986
 32 Pt   -0.04279   -0.05230   -0.10121
 33 Ag   -0.01343   -0.00116   -0.03982
 34 Ir   -0.01031   -0.00661   -0.06859
 35 Ru    0.01795   -0.05597   -0.01192
 36 Ir   -0.02032   -0.01439    0.01593
 37 Ir    0.01992    0.03888    0.10822
 38 Pt   -0.01142   -0.04371   -0.00039
 39 Ag   -0.02582   -0.03215    0.09708
 40 Ir   -0.01717   -0.02433    0.05419
 41 Pt    0.05534   -0.00361    0.01231
 42 Ir   -0.20066    0.03780    0.17797
 43 Ir    0.13757   -0.01130    0.09516
 44 Ag    0.06354   -0.00311    1.08167
 45 O    -7.01936   -7.18601   -3.69738
 46 H     7.01337    7.13751    2.64570

System changes: positions 

Initializing position-dependent things.

Density initialized from wave functions
                                             
                                             
                                             
                                             
                                             
                               O H           
                                             
                                             
                               Ag            
                  Ir    Ir                   
            Ag    AIr     Pt    Ru           
                                             
       Ir    IIr    IPt    Pt                
         Ru    Ir     Ir                     
                     Pt     Ag     Ir        
                Ag     Ag     Ag             
                                             
           Ir    PPt    RPt    Ir            
                                             
            Ir    IAg    AAg    Pt           
       Ag    IIr    IIr    Ir                
                                             
        Ag     Ag     Ir                     
                                             
                                             
                                             
                                             
                                             

Positions:
   0 Ag     0.000000    1.621936   10.000000    ( 0.0000,  0.0000,  0.0000)
   1 Ag     2.809275    1.621936   10.000000    ( 0.0000,  0.0000,  0.0000)
   2 Ir     5.618550    1.621936   10.000000    ( 0.0000,  0.0000,  0.0000)
   3 Ir     1.404638    4.054840   10.000000    ( 0.0000,  0.0000,  0.0000)
   4 Ir     4.213913    4.054840   10.000000    ( 0.0000,  0.0000,  0.0000)
   5 Ir     7.023188    4.054840   10.000000    ( 0.0000,  0.0000,  0.0000)
   6 Ir     2.809275    6.487743   10.000000    ( 0.0000,  0.0000,  0.0000)
   7 Ag     5.618550    6.487743   10.000000    ( 0.0000,  0.0000,  0.0000)
   8 Pt     8.427826    6.487743   10.000000    ( 0.0000,  0.0000,  0.0000)
   9 Ag     0.000000    0.000000   12.293764    ( 0.0000,  0.0000,  0.0000)
  10 Ir     2.809275    0.000000   12.293764    ( 0.0000,  0.0000,  0.0000)
  11 Ir     5.618550    0.000000   12.293764    ( 0.0000,  0.0000,  0.0000)
  12 Ir     1.404638    2.432904   12.293764    ( 0.0000,  0.0000,  0.0000)
  13 Ag     4.213913    2.432904   12.293764    ( 0.0000,  0.0000,  0.0000)
  14 Ag     7.023188    2.432904   12.293764    ( 0.0000,  0.0000,  0.0000)
  15 Pt     2.809275    4.865807   12.293764    ( 0.0000,  0.0000,  0.0000)
  16 Ru     5.618550    4.865807   12.293764    ( 0.0000,  0.0000,  0.0000)
  17 Ir     8.427826    4.865807   12.293764    ( 0.0000,  0.0000,  0.0000)
  18 Ir     1.441337    0.791357   14.593704    ( 0.0000,  0.0000,  0.0000)
  19 Pt     4.193588    0.731406   14.611690    ( 0.0000,  0.0000,  0.0000)
  20 Pt     7.035230    0.803869   14.635720    ( 0.0000,  0.0000,  0.0000)
  21 Ag     2.789805    3.267038   14.609180    ( 0.0000,  0.0000,  0.0000)
  22 Ag     5.614629    3.230577   14.630478    ( 0.0000,  0.0000,  0.0000)
  23 Ag     8.464822    3.239453   14.607475    ( 0.0000,  0.0000,  0.0000)
  24 Pt     4.237591    5.675542   14.600522    ( 0.0000,  0.0000,  0.0000)
  25 Ag     7.020123    5.624036   14.588888    ( 0.0000,  0.0000,  0.0000)
  26 Ir     9.810793    5.748068   14.534375    ( 0.0000,  0.0000,  0.0000)
  27 Ru     0.088741    1.655410   16.926601    ( 0.0000,  0.0000,  0.0000)
  28 Ir     2.745426    1.627236   16.877580    ( 0.0000,  0.0000,  0.0000)
  29 Ir     5.552489    1.597549   16.889558    ( 0.0000,  0.0000,  0.0000)
  30 Ir     1.357583    4.007455   17.017596    ( 0.0000,  0.0000,  0.0000)
  31 Ir     4.197670    3.978811   16.960159    ( 0.0000,  0.0000,  0.0000)
  32 Pt     7.125517    4.056362   17.001199    ( 0.0000,  0.0000,  0.0000)
  33 Ag     2.759270    6.474214   16.801751    ( 0.0000,  0.0000,  0.0000)
  34 Ir     5.663140    6.562671   16.864776    ( 0.0000,  0.0000,  0.0000)
  35 Ru     8.399978    6.481455   16.868920    ( 0.0000,  0.0000,  0.0000)
  36 Ir     0.015913   -0.055744   18.998499    ( 0.0000,  0.0000,  0.0000)
  37 Ir     2.776621   -0.021621   18.981713    ( 0.0000,  0.0000,  0.0000)
  38 Pt     5.624752   -0.049860   19.130081    ( 0.0000,  0.0000,  0.0000)
  39 Ag     1.411572    2.422833   19.550676    ( 0.0000,  0.0000,  0.0000)
  40 Ir     4.228266    2.403509   19.018642    ( 0.0000,  0.0000,  0.0000)
  41 Pt     6.962503    2.310271   19.126446    ( 0.0000,  0.0000,  0.0000)
  42 Ir     2.922370    4.883280   19.040526    ( 0.0000,  0.0000,  0.0000)
  43 Ir     5.520683    4.948425   19.024477    ( 0.0000,  0.0000,  0.0000)
  44 Ag     8.411316    4.876558   19.519865    ( 0.0000,  0.0000,  0.0000)
  45 O      8.413370    4.881903   21.578352    ( 0.0000,  0.0000,  0.0000)
  46 H      9.048825    5.518751   21.942150    ( 0.0000,  0.0000,  0.0000)

Unit cell:
           periodic     x           y           z      points  spacing
  1. axis:    yes    8.445283    0.000000    0.000000    35     0.2090
  2. axis:    yes    4.222641    7.313829    0.000000    35     0.2090
  3. axis:    no     0.000000    0.000000   29.175054   135     0.2161

  Lengths:   8.445283   8.445283  29.175054
  Angles:   90.000000  90.000000  60.000000

Effective grid spacing dv^(1/3) = 0.2217

                     log10-error:    total        iterations:
           time      wfs    density  energy       fermi  poisson
iter:   1  21:07:12  -1.95   +inf  -285.492551    35            
iter:   2  21:08:26  -0.30  -1.52  -608.693404    39            
iter:   3  21:09:40  -1.14  -0.94  -281.898560    39            
iter:   4  21:10:53  -2.12  -1.64  -268.655701    4             
iter:   5  21:12:06  -3.15  -2.25  -268.224103    3             
iter:   6  21:13:20  -3.52  -2.41  -267.987024    3             
iter:   7  21:14:34  -3.90  -2.60  -267.947093    3             
iter:   8  21:15:48  -3.96  -2.62  -267.864857    3             
iter:   9  21:17:02  -4.14  -2.73  -267.903544    2             
iter:  10  21:18:15  -4.35  -2.67  -267.822113    3             
iter:  11  21:19:23  -4.33  -3.12  -267.814191    3             
iter:  12  21:20:32  -4.83  -3.14  -267.812588    2             
iter:  13  21:21:41  -5.47  -3.21  -267.813093    2             
iter:  14  21:22:51  -5.61  -3.20  -267.807516    2             
iter:  15  21:24:01  -5.22  -3.31  -267.815284    2             
iter:  16  21:25:11  -5.52  -3.15  -267.807063    2             
iter:  17  21:26:22  -5.81  -3.55  -267.806951    2             
iter:  18  21:27:31  -6.38  -3.63  -267.807441    2             
iter:  19  21:28:42  -6.30  -3.67  -267.807390    2             
iter:  20  21:29:51  -5.81  -3.75  -267.807585    2             
iter:  21  21:31:02  -6.24  -3.36  -267.807462    2             
iter:  22  21:32:12  -6.72  -3.97  -267.806832    2             
iter:  23  21:33:21  -6.89  -3.90  -267.806713    2             
iter:  24  21:34:31  -6.40  -3.88  -267.807224    2             
iter:  25  21:35:41  -6.83  -4.00  -267.806839    2             
iter:  26  21:36:52  -7.20  -4.00  -267.806695    2             
iter:  27  21:38:03  -6.78  -3.94  -267.808321    2             
iter:  28  21:39:12  -6.93  -3.85  -267.807106    2             
iter:  29  21:40:22  -7.36  -4.40  -267.806962    2             
iter:  30  21:41:32  -7.94  -4.33  -267.807064    2             

Converged after 30 iterations.

Dipole moment: (22.730430, 18.603718, -0.299418) |e|*Ang

Energy contributions relative to reference atoms: (reference = -16429291.423757)

Kinetic:       -145.062412
Potential:      +89.088209
External:        +0.000000
XC:            -204.434959
Entropy (-ST):   -2.113801
Local:           -6.341001
--------------------------
Free energy:   -268.863964
Extrapolated:  -267.807064

Fermi level: 1.22660

Showing only first 2 kpts
 Kpt  Band  Eigenvalues  Occupancy
  0   357      1.20960    0.13560
  0   358      1.23595    0.11916
  0   359      1.25883    0.10503
  0   360      1.29844    0.08194

  1   357      1.10463    0.19301
  1   358      1.13553    0.17829
  1   359      1.16105    0.16456
  1   360      1.18236    0.15221



Forces in eV/Ang:
  0 Ag   -0.41564    0.15661   -1.05664
  1 Ag    0.25012    0.22512   -0.86644
  2 Ir    0.49368   -0.17667    0.02752
  3 Ir   -0.10906    1.23642    1.38734
  4 Ir    0.41949    0.40946    0.87902
  5 Ir   -0.32645   -0.02438    1.20903
  6 Ir   -1.71080   -0.50015    0.73033
  7 Ag   -0.12349   -0.34322   -0.96560
  8 Pt    1.05754   -0.38817    0.48522
  9 Ag    0.13046    0.01059    0.16936
 10 Ir   -0.01967   -0.41749    0.97473
 11 Ir   -0.63538   -0.79151   -0.52875
 12 Ir    0.39687    0.16187    0.16861
 13 Ag   -0.01414   -0.02890    0.13739
 14 Ag    0.04967    0.08411    0.12744
 15 Pt   -0.14805   -0.03394   -0.61931
 16 Ru    0.63820    0.46177   -1.37858
 17 Ir    0.12622    0.28994   -1.28066
 18 Ir   -0.01010    0.01186    0.01916
 19 Pt    0.00622    0.05626    0.02437
 20 Pt    0.02099    0.01709    0.03601
 21 Ag    0.01142    0.00287    0.05395
 22 Ag    0.02408    0.00328    0.03313
 23 Ag   -0.00022    0.00680   -0.01419
 24 Pt    0.01651    0.00690    0.03294
 25 Ag    0.00065   -0.02644    0.00377
 26 Ir    0.01579   -0.03744   -0.00591
 27 Ru    0.00051   -0.01767    0.03514
 28 Ir   -0.03115   -0.01468    0.08128
 29 Ir    0.02790   -0.01675   -0.01732
 30 Ir   -0.05745   -0.01004    0.16973
 31 Ir   -0.02722    0.01978    0.03118
 32 Pt    0.00296   -0.00491    0.08162
 33 Ag   -0.02297   -0.02232   -0.04735
 34 Ir   -0.02597   -0.02285    0.00671
 35 Ru    0.02273   -0.08082    0.08253
 36 Ir   -0.00412    0.00612    0.01351
 37 Ir    0.00077    0.15321   -0.08775
 38 Pt    0.03326    0.08566   -0.10414
 39 Ag    0.00499   -0.06508    0.05180
 40 Ir   -0.02054    0.00065    0.01956
 41 Pt   -0.06077   -0.13834   -0.06990
 42 Ir    0.02695   -0.07266   -0.10179
 43 Ir   -0.13632   -0.05487   -0.07156
 44 Ag    0.17856   -0.01715   -0.25574
 45 O    -0.57913   -0.61622    0.28557
 46 H     0.50262    0.53086    0.16078

System changes: positions 

Initializing position-dependent things.

Density initialized from wave functions
                                             
                                             
                                             
                                             
                                 H           
                               O             
                                             
                                             
                               Ag            
                  Ir    Ir                   
            Ag    AIr     Pt    Ru           
                                             
       Ir    IIr    IPt    Pt                
         Ru    Ir     Ir                     
                     Pt     Ag     Ir        
                Ag     Ag     Ag             
                                             
           Ir    PPt    RPt    Ir            
                                             
            Ir    IAg    AAg    Pt           
       Ag    IIr    IIr    Ir                
                                             
        Ag     Ag     Ir                     
                                             
                                             
                                             
                                             
                                             

Positions:
   0 Ag     0.000000    1.621936   10.000000    ( 0.0000,  0.0000,  0.0000)
   1 Ag     2.809275    1.621936   10.000000    ( 0.0000,  0.0000,  0.0000)
   2 Ir     5.618550    1.621936   10.000000    ( 0.0000,  0.0000,  0.0000)
   3 Ir     1.404638    4.054840   10.000000    ( 0.0000,  0.0000,  0.0000)
   4 Ir     4.213913    4.054840   10.000000    ( 0.0000,  0.0000,  0.0000)
   5 Ir     7.023188    4.054840   10.000000    ( 0.0000,  0.0000,  0.0000)
   6 Ir     2.809275    6.487743   10.000000    ( 0.0000,  0.0000,  0.0000)
   7 Ag     5.618550    6.487743   10.000000    ( 0.0000,  0.0000,  0.0000)
   8 Pt     8.427826    6.487743   10.000000    ( 0.0000,  0.0000,  0.0000)
   9 Ag     0.000000    0.000000   12.293764    ( 0.0000,  0.0000,  0.0000)
  10 Ir     2.809275    0.000000   12.293764    ( 0.0000,  0.0000,  0.0000)
  11 Ir     5.618550    0.000000   12.293764    ( 0.0000,  0.0000,  0.0000)
  12 Ir     1.404638    2.432904   12.293764    ( 0.0000,  0.0000,  0.0000)
  13 Ag     4.213913    2.432904   12.293764    ( 0.0000,  0.0000,  0.0000)
  14 Ag     7.023188    2.432904   12.293764    ( 0.0000,  0.0000,  0.0000)
  15 Pt     2.809275    4.865807   12.293764    ( 0.0000,  0.0000,  0.0000)
  16 Ru     5.618550    4.865807   12.293764    ( 0.0000,  0.0000,  0.0000)
  17 Ir     8.427826    4.865807   12.293764    ( 0.0000,  0.0000,  0.0000)
  18 Ir     1.439643    0.793095   14.596666    ( 0.0000,  0.0000,  0.0000)
  19 Pt     4.194463    0.740543   14.615248    ( 0.0000,  0.0000,  0.0000)
  20 Pt     7.038271    0.806210   14.641397    ( 0.0000,  0.0000,  0.0000)
  21 Ag     2.791480    3.267306   14.617059    ( 0.0000,  0.0000,  0.0000)
  22 Ag     5.618158    3.230827   14.635572    ( 0.0000,  0.0000,  0.0000)
  23 Ag     8.464936    3.240308   14.605028    ( 0.0000,  0.0000,  0.0000)
  24 Pt     4.240074    5.676857   14.605714    ( 0.0000,  0.0000,  0.0000)
  25 Ag     7.019829    5.620013   14.589168    ( 0.0000,  0.0000,  0.0000)
  26 Ir     9.813495    5.742121   14.533746    ( 0.0000,  0.0000,  0.0000)
  27 Ru     0.088830    1.652700   16.932249    ( 0.0000,  0.0000,  0.0000)
  28 Ir     2.741592    1.624550   16.891187    ( 0.0000,  0.0000,  0.0000)
  29 Ir     5.556752    1.595206   16.888493    ( 0.0000,  0.0000,  0.0000)
  30 Ir     1.349047    4.006710   17.044536    ( 0.0000,  0.0000,  0.0000)
  31 Ir     4.193420    3.982801   16.968707    ( 0.0000,  0.0000,  0.0000)
  32 Pt     7.126115    4.056112   17.015608    ( 0.0000,  0.0000,  0.0000)
  33 Ag     2.756002    6.470571   16.795383    ( 0.0000,  0.0000,  0.0000)
  34 Ir     5.659339    6.559029   16.867103    ( 0.0000,  0.0000,  0.0000)
  35 Ru     8.403189    6.469625   16.882392    ( 0.0000,  0.0000,  0.0000)
  36 Ir     0.015606   -0.054931   19.000637    ( 0.0000,  0.0000,  0.0000)
  37 Ir     2.776597    0.001705   18.966656    ( 0.0000,  0.0000,  0.0000)
  38 Pt     5.629857   -0.035784   19.114475    ( 0.0000,  0.0000,  0.0000)
  39 Ag     1.412914    2.412416   19.556938    ( 0.0000,  0.0000,  0.0000)
  40 Ir     4.225814    2.404303   19.020825    ( 0.0000,  0.0000,  0.0000)
  41 Pt     6.951751    2.288485   19.114753    ( 0.0000,  0.0000,  0.0000)
  42 Ir     2.929109    4.871587   19.022970    ( 0.0000,  0.0000,  0.0000)
  43 Ir     5.497376    4.939672   19.012028    ( 0.0000,  0.0000,  0.0000)
  44 Ag     8.438863    4.874957   19.458822    ( 0.0000,  0.0000,  0.0000)
  45 O      8.367563    4.830401   21.668833    ( 0.0000,  0.0000,  0.0000)
  46 H      9.082481    5.556455   21.941059    ( 0.0000,  0.0000,  0.0000)

Unit cell:
           periodic     x           y           z      points  spacing
  1. axis:    yes    8.445283    0.000000    0.000000    35     0.2090
  2. axis:    yes    4.222641    7.313829    0.000000    35     0.2090
  3. axis:    no     0.000000    0.000000   29.175054   135     0.2161

  Lengths:   8.445283   8.445283  29.175054
  Angles:   90.000000  90.000000  60.000000

Effective grid spacing dv^(1/3) = 0.2217

                     log10-error:    total        iterations:
           time      wfs    density  energy       fermi  poisson
iter:   1  21:43:13  -2.07   +inf  -270.101087    4             
iter:   2  21:44:24  -2.03  -2.03  -302.190378    3             
iter:   3  21:45:35  -2.29  -1.39  -268.578064    3             
iter:   4  21:46:45  -3.22  -2.26  -267.982251    3             
iter:   5  21:47:55  -3.17  -2.55  -268.304104    3             
iter:   6  21:49:05  -3.79  -2.26  -267.744932    3             
iter:   7  21:50:16  -4.80  -2.94  -267.742834    3             
iter:   8  21:51:26  -4.33  -2.87  -267.745253    3             
iter:   9  21:52:36  -4.28  -2.76  -267.850575    3             
iter:  10  21:53:46  -4.34  -2.53  -267.718881    3             
iter:  11  21:54:55  -4.78  -2.93  -267.698056    2             
iter:  12  21:56:05  -5.35  -3.28  -267.693628    2             
iter:  13  21:57:09  -5.94  -3.39  -267.695100    2             
iter:  14  21:58:07  -4.84  -3.42  -267.692104    2             
iter:  15  21:59:05  -6.12  -3.63  -267.693891    2             
iter:  16  22:00:03  -6.22  -3.67  -267.691962    2             
iter:  17  22:01:02  -6.63  -3.50  -267.691824    2             
iter:  18  22:02:01  -5.69  -3.71  -267.692151    2             
iter:  19  22:03:02  -6.89  -4.08  -267.691916    2             
iter:  20  22:04:09  -6.80  -4.09  -267.692452    2             
iter:  21  22:05:16  -6.91  -4.15  -267.692321    2             
iter:  22  22:06:23  -6.87  -4.32  -267.691986    2             
iter:  23  22:07:32  -7.71  -4.36  -267.692426    2             

Converged after 23 iterations.

Dipole moment: (20.663222, 16.740046, -0.405732) |e|*Ang

Energy contributions relative to reference atoms: (reference = -16429291.423757)

Kinetic:       -142.924025
Potential:      +86.604723
External:        +0.000000
XC:            -203.946528
Entropy (-ST):   -2.112865
Local:           -6.370164
--------------------------
Free energy:   -268.748859
Extrapolated:  -267.692426

Fermi level: 1.17925

Showing only first 2 kpts
 Kpt  Band  Eigenvalues  Occupancy
  0   357      1.16372    0.13469
  0   358      1.18824    0.11939
  0   359      1.21747    0.10140
  0   360      1.25579    0.07937

  1   357      1.05865    0.19239
  1   358      1.09112    0.17677
  1   359      1.11174    0.16566
  1   360      1.13575    0.15177



Forces in eV/Ang:
  0 Ag   -0.41638    0.15746   -1.05349
  1 Ag    0.24986    0.22671   -0.86015
  2 Ir    0.49490   -0.18122    0.03439
  3 Ir   -0.10987    1.23829    1.39418
  4 Ir    0.41782    0.41077    0.88734
  5 Ir   -0.32649   -0.02386    1.21200
  6 Ir   -1.71029   -0.50147    0.73385
  7 Ag   -0.12522   -0.34508   -0.96406
  8 Pt    1.05768   -0.39160    0.49397
  9 Ag    0.13046    0.00735    0.19365
 10 Ir   -0.01984   -0.41411    1.00033
 11 Ir   -0.64377   -0.79073   -0.49145
 12 Ir    0.41584    0.15877    0.18692
 13 Ag   -0.01619   -0.02074    0.15801
 14 Ag    0.04546    0.07924    0.13699
 15 Pt   -0.13508   -0.04248   -0.59162
 16 Ru    0.63864    0.46118   -1.36578
 17 Ir    0.12219    0.30016   -1.27186
 18 Ir    0.02479    0.00259    0.01572
 19 Pt    0.01166   -0.08139    0.04831
 20 Pt   -0.00205    0.00226   -0.00796
 21 Ag   -0.01440    0.00529    0.06506
 22 Ag   -0.00192    0.02019    0.03140
 23 Ag    0.02380    0.00209    0.06310
 24 Pt   -0.00118   -0.01499   -0.02150
 25 Ag    0.04478    0.05492    0.03919
 26 Ir   -0.01984    0.05659   -0.05363
 27 Ru   -0.00599   -0.00277   -0.02384
 28 Ir   -0.05921    0.04196   -0.10342
 29 Ir   -0.03939    0.01630   -0.11985
 30 Ir   -0.00090   -0.08124   -0.09809
 31 Ir    0.03652   -0.11946   -0.32937
 32 Pt   -0.05768   -0.05890   -0.12650
 33 Ag    0.00252   -0.00806   -0.01354
 34 Ir    0.00857   -0.00282   -0.06628
 35 Ru    0.00318   -0.04658   -0.03106
 36 Ir   -0.01265   -0.04909    0.00802
 37 Ir    0.01250   -0.04152    0.15347
 38 Pt   -0.02782   -0.10381    0.01519
 39 Ag   -0.05112   -0.01217    0.12769
 40 Ir   -0.01061   -0.01863    0.02000
 41 Pt    0.10072    0.09658    0.07974
 42 Ir   -0.21856    0.08027    0.22269
 43 Ir    0.22854    0.00298    0.16981
 44 Ag   -0.05094   -0.03888    0.93738
 45 O     1.60203    1.60904   -0.32738
 46 H    -1.65590   -1.65738   -0.59394

System changes: positions 

Initializing position-dependent things.

Density initialized from wave functions
                                             
                                             
                                             
                                             
                                             
                               O H           
                                             
                                             
                               Ag            
                  Ir    Ir                   
            Ag    AIr     Pt    Ru           
                                             
       Ir    IIr    IPt    Pt                
         Ru    Ir     Ir                     
                     Pt     Ag     Ir        
                Ag     Ag     Ag             
                                             
           Ir    PPt    RPt    Ir            
                                             
            Ir    IAg    AAg    Pt           
       Ag    IIr    IIr    Ir                
                                             
        Ag     Ag     Ir                     
                                             
                                             
                                             
                                             
                                             

Positions:
   0 Ag     0.000000    1.621936   10.000000    ( 0.0000,  0.0000,  0.0000)
   1 Ag     2.809275    1.621936   10.000000    ( 0.0000,  0.0000,  0.0000)
   2 Ir     5.618550    1.621936   10.000000    ( 0.0000,  0.0000,  0.0000)
   3 Ir     1.404638    4.054840   10.000000    ( 0.0000,  0.0000,  0.0000)
   4 Ir     4.213913    4.054840   10.000000    ( 0.0000,  0.0000,  0.0000)
   5 Ir     7.023188    4.054840   10.000000    ( 0.0000,  0.0000,  0.0000)
   6 Ir     2.809275    6.487743   10.000000    ( 0.0000,  0.0000,  0.0000)
   7 Ag     5.618550    6.487743   10.000000    ( 0.0000,  0.0000,  0.0000)
   8 Pt     8.427826    6.487743   10.000000    ( 0.0000,  0.0000,  0.0000)
   9 Ag     0.000000    0.000000   12.293764    ( 0.0000,  0.0000,  0.0000)
  10 Ir     2.809275    0.000000   12.293764    ( 0.0000,  0.0000,  0.0000)
  11 Ir     5.618550    0.000000   12.293764    ( 0.0000,  0.0000,  0.0000)
  12 Ir     1.404638    2.432904   12.293764    ( 0.0000,  0.0000,  0.0000)
  13 Ag     4.213913    2.432904   12.293764    ( 0.0000,  0.0000,  0.0000)
  14 Ag     7.023188    2.432904   12.293764    ( 0.0000,  0.0000,  0.0000)
  15 Pt     2.809275    4.865807   12.293764    ( 0.0000,  0.0000,  0.0000)
  16 Ru     5.618550    4.865807   12.293764    ( 0.0000,  0.0000,  0.0000)
  17 Ir     8.427826    4.865807   12.293764    ( 0.0000,  0.0000,  0.0000)
  18 Ir     1.440836    0.791871   14.594580    ( 0.0000,  0.0000,  0.0000)
  19 Pt     4.193847    0.734106   14.612741    ( 0.0000,  0.0000,  0.0000)
  20 Pt     7.036129    0.804561   14.637398    ( 0.0000,  0.0000,  0.0000)
  21 Ag     2.790300    3.267117   14.611508    ( 0.0000,  0.0000,  0.0000)
  22 Ag     5.615671    3.230651   14.631983    ( 0.0000,  0.0000,  0.0000)
  23 Ag     8.464856    3.239706   14.606752    ( 0.0000,  0.0000,  0.0000)
  24 Pt     4.238325    5.675931   14.602056    ( 0.0000,  0.0000,  0.0000)
  25 Ag     7.020036    5.622847   14.588971    ( 0.0000,  0.0000,  0.0000)
  26 Ir     9.811591    5.746311   14.534189    ( 0.0000,  0.0000,  0.0000)
  27 Ru     0.088768    1.654609   16.928270    ( 0.0000,  0.0000,  0.0000)
  28 Ir     2.744293    1.626443   16.881601    ( 0.0000,  0.0000,  0.0000)
  29 Ir     5.553749    1.596857   16.889243    ( 0.0000,  0.0000,  0.0000)
  30 Ir     1.355061    4.007235   17.025557    ( 0.0000,  0.0000,  0.0000)
  31 Ir     4.196414    3.979990   16.962685    ( 0.0000,  0.0000,  0.0000)
  32 Pt     7.125694    4.056289   17.005457    ( 0.0000,  0.0000,  0.0000)
  33 Ag     2.758304    6.473138   16.799869    ( 0.0000,  0.0000,  0.0000)
  34 Ir     5.662017    6.561595   16.865464    ( 0.0000,  0.0000,  0.0000)
  35 Ru     8.400927    6.477959   16.872901    ( 0.0000,  0.0000,  0.0000)
  36 Ir     0.015822   -0.055504   18.999131    ( 0.0000,  0.0000,  0.0000)
  37 Ir     2.776614   -0.014728   18.977263    ( 0.0000,  0.0000,  0.0000)
  38 Pt     5.626261   -0.045700   19.125470    ( 0.0000,  0.0000,  0.0000)
  39 Ag     1.411968    2.419755   19.552526    ( 0.0000,  0.0000,  0.0000)
  40 Ir     4.227541    2.403744   19.019287    ( 0.0000,  0.0000,  0.0000)
  41 Pt     6.959325    2.303833   19.122991    ( 0.0000,  0.0000,  0.0000)
  42 Ir     2.924361    4.879825   19.035338    ( 0.0000,  0.0000,  0.0000)
  43 Ir     5.513795    4.945839   19.020798    ( 0.0000,  0.0000,  0.0000)
  44 Ag     8.419457    4.876085   19.501826    ( 0.0000,  0.0000,  0.0000)
  45 O      8.399834    4.866684   21.605090    ( 0.0000,  0.0000,  0.0000)
  46 H      9.058770    5.529893   21.941828    ( 0.0000,  0.0000,  0.0000)

Unit cell:
           periodic     x           y           z      points  spacing
  1. axis:    yes    8.445283    0.000000    0.000000    35     0.2090
  2. axis:    yes    4.222641    7.313829    0.000000    35     0.2090
  3. axis:    no     0.000000    0.000000   29.175054   135     0.2161

  Lengths:   8.445283   8.445283  29.175054
  Angles:   90.000000  90.000000  60.000000

Effective grid spacing dv^(1/3) = 0.2217

                     log10-error:    total        iterations:
           time      wfs    density  energy       fermi  poisson
iter:   1  22:09:11  -2.43   +inf  -270.911632    3             
iter:   2  22:10:16  -1.67  -1.87  -323.302773    35            
iter:   3  22:11:20  -1.50  -1.36  -298.572018    35            
iter:   4  22:12:23  -2.42  -1.43  -270.246641    3             
iter:   5  22:13:27  -3.00  -2.01  -268.161323    3             
iter:   6  22:14:31  -3.93  -2.45  -267.938289    2             
iter:   7  22:15:40  -4.13  -2.73  -267.869429    3             
iter:   8  22:16:53  -4.40  -2.94  -267.852091    2             
iter:   9  22:18:06  -5.00  -3.10  -267.852439    2             
iter:  10  22:19:18  -4.77  -2.94  -267.873035    3             
iter:  11  22:20:31  -4.60  -2.90  -267.842681    2             
iter:  12  22:21:44  -5.17  -3.28  -267.836578    3             
iter:  13  22:22:57  -5.29  -3.36  -267.838261    2             
iter:  14  22:24:09  -5.88  -3.38  -267.837064    2             
iter:  15  22:25:22  -5.58  -3.43  -267.833928    2             
iter:  16  22:26:35  -5.69  -3.34  -267.837025    2             
iter:  17  22:27:47  -6.26  -3.44  -267.834170    2             
iter:  18  22:28:58  -6.35  -3.76  -267.833519    2             
iter:  19  22:30:10  -6.94  -3.89  -267.833894    2             
iter:  20  22:31:22  -6.82  -3.91  -267.833909    2             
iter:  21  22:32:35  -6.73  -4.01  -267.833099    2             
iter:  22  22:33:47  -6.83  -3.88  -267.834179    2             
iter:  23  22:34:59  -7.05  -3.96  -267.833635    2             
iter:  24  22:36:11  -6.74  -4.22  -267.833406    2             
iter:  25  22:37:23  -7.02  -4.22  -267.833618    2             
iter:  26  22:38:31  -7.13  -4.30  -267.833613    2             
iter:  27  22:39:39  -7.70  -4.50  -267.833362    2             

Converged after 27 iterations.

Dipole moment: (22.113401, 18.050460, -0.330770) |e|*Ang

Energy contributions relative to reference atoms: (reference = -16429291.423757)

Kinetic:       -144.371248
Potential:      +88.254933
External:        +0.000000
XC:            -204.280736
Entropy (-ST):   -2.113971
Local:           -6.379325
--------------------------
Free energy:   -268.890347
Extrapolated:  -267.833362

Fermi level: 1.21011

Showing only first 2 kpts
 Kpt  Band  Eigenvalues  Occupancy
  0   357      1.19340    0.13542
  0   358      1.21940    0.11920
  0   359      1.24372    0.10419
  0   360      1.28327    0.08121

  1   357      1.08888    0.19268
  1   358      1.11996    0.17782
  1   359      1.14367    0.16507
  1   360      1.16633    0.15194



Forces in eV/Ang:
  0 Ag   -0.41622    0.15733   -1.05127
  1 Ag    0.25044    0.22586   -0.85902
  2 Ir    0.49385   -0.17746    0.03535
  3 Ir   -0.11008    1.23630    1.38979
  4 Ir    0.41951    0.40969    0.88404
  5 Ir   -0.32758   -0.02398    1.21525
  6 Ir   -1.71158   -0.50061    0.73639
  7 Ag   -0.12393   -0.34427   -0.96063
  8 Pt    1.05861   -0.38907    0.49324
  9 Ag    0.13125    0.01116    0.17695
 10 Ir   -0.01999   -0.41312    0.98381
 11 Ir   -0.63846   -0.78798   -0.51480
 12 Ir    0.40249    0.15751    0.17288
 13 Ag   -0.01473   -0.02765    0.14311
 14 Ag    0.04843    0.08222    0.12972
 15 Pt   -0.14234   -0.03707   -0.61265
 16 Ru    0.63707    0.46126   -1.37356
 17 Ir    0.12327    0.29201   -1.27840
 18 Ir    0.00316    0.00864    0.01496
 19 Pt    0.00682    0.00992    0.03092
 20 Pt    0.01240    0.00913    0.01784
 21 Ag    0.00334    0.00333    0.05784
 22 Ag    0.01477    0.00791    0.02867
 23 Ag    0.00834    0.00585    0.00815
 24 Pt    0.00927    0.00011    0.01244
 25 Ag    0.01488    0.00001    0.01081
 26 Ir    0.00531   -0.00647   -0.01765
 27 Ru   -0.00139   -0.01403    0.01136
 28 Ir   -0.03390    0.00126    0.01203
 29 Ir    0.00156   -0.00610   -0.05024
 30 Ir   -0.03805   -0.03272    0.07166
 31 Ir   -0.01172   -0.02854   -0.07790
 32 Pt   -0.01836   -0.02381    0.01239
 33 Ag   -0.01661   -0.01660   -0.04211
 34 Ir   -0.01317   -0.01306   -0.01513
 35 Ru    0.01469   -0.06378    0.03272
 36 Ir   -0.00536   -0.01619   -0.00641
 37 Ir    0.00211    0.07693   -0.01505
 38 Pt    0.00943    0.01111   -0.03457
 39 Ag   -0.01256   -0.04399    0.07778
 40 Ir   -0.00755   -0.00707   -0.00088
 41 Pt   -0.01584   -0.06559   -0.04689
 42 Ir   -0.05686   -0.01655    0.00488
 43 Ir   -0.01898   -0.02625   -0.02185
 44 Ag    0.12678    0.00257    0.17350
 45 O     0.02298   -0.01043    0.14788
 46 H    -0.18365   -0.15997   -0.16124

System changes: positions 

Initializing position-dependent things.

Density initialized from wave functions
                                             
                                             
                                             
                                             
                                             
                               O H           
                                             
                                             
                               Ag            
                  Ir    Ir                   
            Ag    AIr     Pt    Ru           
                                             
       Ir    IIr    IPt    Pt                
         Ru    Ir     Ir                     
                     Pt     Ag     Ir        
                Ag     Ag     Ag             
                                             
           Ir    PPt    RPt    Ir            
                                             
            Ir    IAg    AAg    Pt           
       Ag    IIr    IIr    Ir                
                                             
        Ag     Ag     Ir                     
                                             
                                             
                                             
                                             
                                             

Positions:
   0 Ag     0.000000    1.621936   10.000000    ( 0.0000,  0.0000,  0.0000)
   1 Ag     2.809275    1.621936   10.000000    ( 0.0000,  0.0000,  0.0000)
   2 Ir     5.618550    1.621936   10.000000    ( 0.0000,  0.0000,  0.0000)
   3 Ir     1.404638    4.054840   10.000000    ( 0.0000,  0.0000,  0.0000)
   4 Ir     4.213913    4.054840   10.000000    ( 0.0000,  0.0000,  0.0000)
   5 Ir     7.023188    4.054840   10.000000    ( 0.0000,  0.0000,  0.0000)
   6 Ir     2.809275    6.487743   10.000000    ( 0.0000,  0.0000,  0.0000)
   7 Ag     5.618550    6.487743   10.000000    ( 0.0000,  0.0000,  0.0000)
   8 Pt     8.427826    6.487743   10.000000    ( 0.0000,  0.0000,  0.0000)
   9 Ag     0.000000    0.000000   12.293764    ( 0.0000,  0.0000,  0.0000)
  10 Ir     2.809275    0.000000   12.293764    ( 0.0000,  0.0000,  0.0000)
  11 Ir     5.618550    0.000000   12.293764    ( 0.0000,  0.0000,  0.0000)
  12 Ir     1.404638    2.432904   12.293764    ( 0.0000,  0.0000,  0.0000)
  13 Ag     4.213913    2.432904   12.293764    ( 0.0000,  0.0000,  0.0000)
  14 Ag     7.023188    2.432904   12.293764    ( 0.0000,  0.0000,  0.0000)
  15 Pt     2.809275    4.865807   12.293764    ( 0.0000,  0.0000,  0.0000)
  16 Ru     5.618550    4.865807   12.293764    ( 0.0000,  0.0000,  0.0000)
  17 Ir     8.427826    4.865807   12.293764    ( 0.0000,  0.0000,  0.0000)
  18 Ir     1.441023    0.792946   14.596407    ( 0.0000,  0.0000,  0.0000)
  19 Pt     4.194650    0.735929   14.616310    ( 0.0000,  0.0000,  0.0000)
  20 Pt     7.037737    0.805783   14.639764    ( 0.0000,  0.0000,  0.0000)
  21 Ag     2.790822    3.267519   14.618315    ( 0.0000,  0.0000,  0.0000)
  22 Ag     5.617569    3.231537   14.635436    ( 0.0000,  0.0000,  0.0000)
  23 Ag     8.465700    3.240427   14.607403    ( 0.0000,  0.0000,  0.0000)
  24 Pt     4.239533    5.676024   14.603820    ( 0.0000,  0.0000,  0.0000)
  25 Ag     7.021614    5.622450   14.590168    ( 0.0000,  0.0000,  0.0000)
  26 Ir     9.812352    5.745099   14.532257    ( 0.0000,  0.0000,  0.0000)
  27 Ru     0.088631    1.652897   16.929947    ( 0.0000,  0.0000,  0.0000)
  28 Ir     2.740249    1.626389   16.883963    ( 0.0000,  0.0000,  0.0000)
  29 Ir     5.554329    1.595958   16.883668    ( 0.0000,  0.0000,  0.0000)
  30 Ir     1.350252    4.003643   17.035414    ( 0.0000,  0.0000,  0.0000)
  31 Ir     4.194804    3.977262   16.954800    ( 0.0000,  0.0000,  0.0000)
  32 Pt     7.123832    4.053717   17.007798    ( 0.0000,  0.0000,  0.0000)
  33 Ag     2.756226    6.471110   16.794741    ( 0.0000,  0.0000,  0.0000)
  34 Ir     5.660254    6.559917   16.863895    ( 0.0000,  0.0000,  0.0000)
  35 Ru     8.402806    6.470122   16.877443    ( 0.0000,  0.0000,  0.0000)
  36 Ir     0.015180   -0.057070   18.998667    ( 0.0000,  0.0000,  0.0000)
  37 Ir     2.776855   -0.004483   18.974531    ( 0.0000,  0.0000,  0.0000)
  38 Pt     5.627731   -0.043350   19.120312    ( 0.0000,  0.0000,  0.0000)
  39 Ag     1.410699    2.414279   19.561467    ( 0.0000,  0.0000,  0.0000)
  40 Ir     4.226396    2.402965   19.019560    ( 0.0000,  0.0000,  0.0000)
  41 Pt     6.956902    2.295044   19.117190    ( 0.0000,  0.0000,  0.0000)
  42 Ir     2.918681    4.877076   19.034481    ( 0.0000,  0.0000,  0.0000)
  43 Ir     5.509998    4.942337   19.017598    ( 0.0000,  0.0000,  0.0000)
  44 Ag     8.435193    4.876005   19.517739    ( 0.0000,  0.0000,  0.0000)
  45 O      8.389860    4.852710   21.620649    ( 0.0000,  0.0000,  0.0000)
  46 H      9.051064    5.525077   21.929802    ( 0.0000,  0.0000,  0.0000)

Unit cell:
           periodic     x           y           z      points  spacing
  1. axis:    yes    8.445283    0.000000    0.000000    35     0.2090
  2. axis:    yes    4.222641    7.313829    0.000000    35     0.2090
  3. axis:    no     0.000000    0.000000   29.175054   135     0.2161

  Lengths:   8.445283   8.445283  29.175054
  Angles:   90.000000  90.000000  60.000000

Effective grid spacing dv^(1/3) = 0.2217

                     log10-error:    total        iterations:
           time      wfs    density  energy       fermi  poisson
iter:   1  22:41:19  -3.14   +inf  -268.734038    3             
iter:   2  22:42:29  -2.09  -2.17  -303.517108    4             
iter:   3  22:43:37  -2.42  -1.40  -267.973149    3             
iter:   4  22:44:47  -3.59  -2.59  -267.860834    3             
iter:   5  22:45:55  -4.71  -3.05  -267.849204    3             
iter:   6  22:47:04  -5.35  -3.34  -267.847922    3             
iter:   7  22:48:14  -5.73  -3.47  -267.846595    2             
iter:   8  22:49:22  -5.59  -3.56  -267.848988    2             
iter:   9  22:50:31  -5.92  -3.43  -267.845515    2             
iter:  10  22:51:41  -5.49  -3.49  -267.846302    2             
iter:  11  22:52:50  -6.27  -3.82  -267.845813    2             
iter:  12  22:53:59  -6.64  -3.89  -267.845593    2             
iter:  13  22:55:08  -6.51  -4.01  -267.844972    2             
iter:  14  22:56:18  -6.90  -3.97  -267.845902    2             
iter:  15  22:57:27  -6.36  -4.00  -267.844776    2             
iter:  16  22:58:37  -7.45  -3.99  -267.845046    2             
iter:  17  22:59:47  -7.66  -4.33  -267.845061    2             

Converged after 17 iterations.

Dipole moment: (21.809199, 17.423288, -0.342566) |e|*Ang

Energy contributions relative to reference atoms: (reference = -16429291.423757)

Kinetic:       -144.299011
Potential:      +88.137727
External:        +0.000000
XC:            -204.267094
Entropy (-ST):   -2.113040
Local:           -6.360164
--------------------------
Free energy:   -268.901581
Extrapolated:  -267.845061

Fermi level: 1.20512

Showing only first 2 kpts
 Kpt  Band  Eigenvalues  Occupancy
  0   357      1.18805    0.13564
  0   358      1.21569    0.11840
  0   359      1.24030    0.10323
  0   360      1.27939    0.08060

  1   357      1.08388    0.19268
  1   358      1.11498    0.17781
  1   359      1.13903    0.16487
  1   360      1.16181    0.15165



Forces in eV/Ang:
  0 Ag   -0.41692    0.15876   -1.05435
  1 Ag    0.25074    0.22694   -0.85987
  2 Ir    0.49417   -0.18328    0.02591
  3 Ir   -0.11068    1.23717    1.39036
  4 Ir    0.41757    0.41272    0.87909
  5 Ir   -0.32581   -0.02134    1.20713
  6 Ir   -1.71265   -0.50126    0.72891
  7 Ag   -0.12408   -0.34700   -0.96298
  8 Pt    1.05944   -0.39077    0.49263
  9 Ag    0.13148    0.00694    0.18795
 10 Ir   -0.01949   -0.41390    0.99812
 11 Ir   -0.64182   -0.78799   -0.50072
 12 Ir    0.41633    0.16321    0.19105
 13 Ag   -0.01970   -0.02414    0.16912
 14 Ag    0.04641    0.08404    0.13981
 15 Pt   -0.13732   -0.04713   -0.59520
 16 Ru    0.64103    0.46311   -1.36127
 17 Ir    0.12024    0.29487   -1.27766
 18 Ir    0.01270   -0.00240   -0.01219
 19 Pt   -0.00279   -0.02328    0.00745
 20 Pt    0.00775    0.00811   -0.01992
 21 Ag   -0.02078    0.00253   -0.01476
 22 Ag    0.01982    0.01287   -0.03244
 23 Ag    0.01567    0.00436    0.01374
 24 Pt    0.01155   -0.00373   -0.02640
 25 Ag    0.01426    0.01767    0.00380
 26 Ir   -0.00232    0.01496   -0.03281
 27 Ru   -0.00658   -0.01274    0.00588
 28 Ir   -0.00928    0.00199    0.00841
 29 Ir   -0.03914   -0.01543   -0.00258
 30 Ir   -0.03633   -0.01631    0.05207
 31 Ir   -0.01711    0.00359    0.08822
 32 Pt    0.00064   -0.00410    0.03529
 33 Ag    0.00309   -0.04324    0.01950
 34 Ir    0.01951   -0.01659    0.03508
 35 Ru   -0.01684   -0.05221    0.04509
 36 Ir    0.01165   -0.05334   -0.01368
 37 Ir   -0.00563   -0.04482   -0.01478
 38 Pt   -0.01097   -0.02121   -0.03146
 39 Ag   -0.02646   -0.03460    0.07963
 40 Ir   -0.01192    0.02884   -0.05164
 41 Pt    0.02394    0.02606   -0.00051
 42 Ir    0.04522   -0.02267   -0.04470
 43 Ir   -0.01029   -0.01705   -0.01809
 44 Ag   -0.00212   -0.02280    0.13071
 45 O     0.01209    0.02211   -0.06664
 46 H    -0.15947   -0.13667   -0.07027

System changes: positions 

Initializing position-dependent things.

Density initialized from wave functions
                                             
                                             
                                             
                                             
                                             
                               O H           
                                             
                                             
                               Ag            
                  Ir    Ir                   
            Ag    AIr     Pt    Ru           
                                             
       Ir    IIr    IPt    Pt                
         Ru    Ir     Ir                     
                     Pt     Ag     Ir        
                Ag     Ag     Ag             
                                             
           Ir    PPt    RPt    Ir            
                                             
            Ir    IAg    AAg    Pt           
       Ag    IIr    IIr    Ir                
                                             
        Ag     Ag     Ir                     
                                             
                                             
                                             
                                             
                                             

Positions:
   0 Ag     0.000000    1.621936   10.000000    ( 0.0000,  0.0000,  0.0000)
   1 Ag     2.809275    1.621936   10.000000    ( 0.0000,  0.0000,  0.0000)
   2 Ir     5.618550    1.621936   10.000000    ( 0.0000,  0.0000,  0.0000)
   3 Ir     1.404638    4.054840   10.000000    ( 0.0000,  0.0000,  0.0000)
   4 Ir     4.213913    4.054840   10.000000    ( 0.0000,  0.0000,  0.0000)
   5 Ir     7.023188    4.054840   10.000000    ( 0.0000,  0.0000,  0.0000)
   6 Ir     2.809275    6.487743   10.000000    ( 0.0000,  0.0000,  0.0000)
   7 Ag     5.618550    6.487743   10.000000    ( 0.0000,  0.0000,  0.0000)
   8 Pt     8.427826    6.487743   10.000000    ( 0.0000,  0.0000,  0.0000)
   9 Ag     0.000000    0.000000   12.293764    ( 0.0000,  0.0000,  0.0000)
  10 Ir     2.809275    0.000000   12.293764    ( 0.0000,  0.0000,  0.0000)
  11 Ir     5.618550    0.000000   12.293764    ( 0.0000,  0.0000,  0.0000)
  12 Ir     1.404638    2.432904   12.293764    ( 0.0000,  0.0000,  0.0000)
  13 Ag     4.213913    2.432904   12.293764    ( 0.0000,  0.0000,  0.0000)
  14 Ag     7.023188    2.432904   12.293764    ( 0.0000,  0.0000,  0.0000)
  15 Pt     2.809275    4.865807   12.293764    ( 0.0000,  0.0000,  0.0000)
  16 Ru     5.618550    4.865807   12.293764    ( 0.0000,  0.0000,  0.0000)
  17 Ir     8.427826    4.865807   12.293764    ( 0.0000,  0.0000,  0.0000)
  18 Ir     1.442614    0.793487   14.596260    ( 0.0000,  0.0000,  0.0000)
  19 Pt     4.194881    0.734946   14.619851    ( 0.0000,  0.0000,  0.0000)
  20 Pt     7.040064    0.807858   14.639221    ( 0.0000,  0.0000,  0.0000)
  21 Ag     2.788642    3.268139   14.621449    ( 0.0000,  0.0000,  0.0000)
  22 Ag     5.621684    3.233798   14.633892    ( 0.0000,  0.0000,  0.0000)
  23 Ag     8.468236    3.241544   14.609347    ( 0.0000,  0.0000,  0.0000)
  24 Pt     4.242033    5.675708   14.602021    ( 0.0000,  0.0000,  0.0000)
  25 Ag     7.024435    5.624060   14.591454    ( 0.0000,  0.0000,  0.0000)
  26 Ir     9.812773    5.745685   14.526738    ( 0.0000,  0.0000,  0.0000)
  27 Ru     0.087706    1.649916   16.932301    ( 0.0000,  0.0000,  0.0000)
  28 Ir     2.736065    1.626378   16.887807    ( 0.0000,  0.0000,  0.0000)
  29 Ir     5.550079    1.593141   16.879633    ( 0.0000,  0.0000,  0.0000)
  30 Ir     1.341681    3.999171   17.050920    ( 0.0000,  0.0000,  0.0000)
  31 Ir     4.191167    3.976374   16.961862    ( 0.0000,  0.0000,  0.0000)
  32 Pt     7.122825    4.051533   17.015104    ( 0.0000,  0.0000,  0.0000)
  33 Ag     2.754980    6.463920   16.793350    ( 0.0000,  0.0000,  0.0000)
  34 Ir     5.661275    6.556377   16.867569    ( 0.0000,  0.0000,  0.0000)
  35 Ru     8.402149    6.457267   16.887383    ( 0.0000,  0.0000,  0.0000)
  36 Ir     0.016223   -0.064821   18.996834    ( 0.0000,  0.0000,  0.0000)
  37 Ir     2.776288   -0.001521   18.969536    ( 0.0000,  0.0000,  0.0000)
  38 Pt     5.627753   -0.043268   19.111398    ( 0.0000,  0.0000,  0.0000)
  39 Ag     1.406581    2.405406   19.578076    ( 0.0000,  0.0000,  0.0000)
  40 Ir     4.223815    2.406223   19.013376    ( 0.0000,  0.0000,  0.0000)
  41 Pt     6.957538    2.290794   19.112450    ( 0.0000,  0.0000,  0.0000)
  42 Ir     2.921473    4.871288   19.026538    ( 0.0000,  0.0000,  0.0000)
  43 Ir     5.504147    4.937104   19.012151    ( 0.0000,  0.0000,  0.0000)
  44 Ag     8.447440    4.872724   19.540357    ( 0.0000,  0.0000,  0.0000)
  45 O      8.375587    4.836684   21.625844    ( 0.0000,  0.0000,  0.0000)
  46 H      9.034243    5.513432   21.916178    ( 0.0000,  0.0000,  0.0000)

Unit cell:
           periodic     x           y           z      points  spacing
  1. axis:    yes    8.445283    0.000000    0.000000    35     0.2090
  2. axis:    yes    4.222641    7.313829    0.000000    35     0.2090
  3. axis:    no     0.000000    0.000000   29.175054   135     0.2161

  Lengths:   8.445283   8.445283  29.175054
  Angles:   90.000000  90.000000  60.000000

Effective grid spacing dv^(1/3) = 0.2217

                     log10-error:    total        iterations:
           time      wfs    density  energy       fermi  poisson
iter:   1  23:01:30  -2.96   +inf  -268.978964    2             
iter:   2  23:02:40  -1.95  -2.11  -309.948489    36            
iter:   3  23:03:50  -2.33  -1.37  -268.424033    3             
iter:   4  23:04:59  -3.36  -2.32  -267.885653    3             
iter:   5  23:06:08  -4.37  -2.89  -267.861836    3             
iter:   6  23:07:17  -5.03  -3.25  -267.858199    3             
iter:   7  23:08:28  -5.28  -3.38  -267.856969    2             
iter:   8  23:09:38  -5.02  -3.47  -267.857983    2             
iter:   9  23:10:47  -5.59  -3.44  -267.854470    2             
iter:  10  23:11:56  -5.99  -3.61  -267.855512    2             
iter:  11  23:13:06  -6.31  -3.74  -267.854527    2             
iter:  12  23:14:15  -6.09  -3.92  -267.854623    2             
iter:  13  23:15:27  -6.64  -3.98  -267.854165    2             
iter:  14  23:16:38  -6.87  -3.93  -267.854516    2             
iter:  15  23:17:48  -7.17  -4.20  -267.854186    2             
iter:  16  23:18:59  -7.02  -4.11  -267.854794    2             
iter:  17  23:20:09  -7.54  -4.17  -267.854289    2             

Converged after 17 iterations.

Dipole moment: (21.170797, 17.327630, -0.339988) |e|*Ang

Energy contributions relative to reference atoms: (reference = -16429291.423757)

Kinetic:       -140.585875
Potential:      +84.873742
External:        +0.000000
XC:            -204.734209
Entropy (-ST):   -2.106325
Local:           -6.354785
--------------------------
Free energy:   -268.907452
Extrapolated:  -267.854289

Fermi level: 1.20810

Showing only first 2 kpts
 Kpt  Band  Eigenvalues  Occupancy
  0   357      1.19145    0.13538
  0   358      1.22077    0.11709
  0   359      1.24501    0.10219
  0   360      1.28259    0.08048

  1   357      1.08760    0.19235
  1   358      1.11839    0.17759
  1   359      1.14164    0.16507
  1   360      1.16520    0.15141



Forces in eV/Ang:
  0 Ag   -0.41808    0.15879   -1.05169
  1 Ag    0.25152    0.22773   -0.85718
  2 Ir    0.49395   -0.18610    0.02952
  3 Ir   -0.11134    1.23470    1.39021
  4 Ir    0.41610    0.41356    0.88377
  5 Ir   -0.32515   -0.02191    1.20569
  6 Ir   -1.71030   -0.49986    0.72885
  7 Ag   -0.12498   -0.34735   -0.96305
  8 Pt    1.05879   -0.39109    0.49105
  9 Ag    0.13205    0.00948    0.18445
 10 Ir   -0.01848   -0.41226    0.99622
 11 Ir   -0.64164   -0.77437   -0.50163
 12 Ir    0.41601    0.16027    0.19229
 13 Ag   -0.02290   -0.03029    0.18132
 14 Ag    0.05330    0.08441    0.13313
 15 Pt   -0.13098   -0.05376   -0.60190
 16 Ru    0.64821    0.46994   -1.36866
 17 Ir    0.11197    0.29103   -1.28404
 18 Ir    0.00012   -0.02172    0.00160
 19 Pt   -0.00237   -0.01186    0.00585
 20 Pt   -0.00204   -0.02754    0.01315
 21 Ag    0.01478    0.01305    0.00559
 22 Ag   -0.02170    0.00377    0.00895
 23 Ag    0.00327    0.00601    0.02294
 24 Pt   -0.00400    0.00470    0.00182
 25 Ag   -0.00122    0.00649    0.01174
 26 Ir    0.02357    0.02874   -0.01146
 27 Ru   -0.00907   -0.03047   -0.00094
 28 Ir   -0.03083    0.00624   -0.04553
 29 Ir    0.00374   -0.01861   -0.01601
 30 Ir   -0.01095   -0.01757   -0.00304
 31 Ir    0.02870   -0.03631   -0.24467
 32 Pt   -0.00662   -0.01814   -0.02282
 33 Ag   -0.00642    0.00932   -0.05705
 34 Ir   -0.00406    0.00306   -0.08311
 35 Ru    0.00593   -0.02177    0.00395
 36 Ir   -0.03631    0.01595    0.01299
 37 Ir    0.04094   -0.07476    0.05942
 38 Pt   -0.00929   -0.03670    0.00746
 39 Ag   -0.01100   -0.02557    0.05685
 40 Ir    0.00781   -0.08723    0.07590
 41 Pt    0.01448    0.01963    0.02785
 42 Ir   -0.12140    0.03489    0.15370
 43 Ir    0.13627   -0.01249    0.10706
 44 Ag   -0.07140   -0.02670   -0.08243
 45 O    -0.12552   -0.11957   -0.03972
 46 H    -0.04352   -0.01733    0.05974

System changes: positions 

Initializing position-dependent things.

Density initialized from wave functions
                                             
                                             
                                             
                                             
                                             
                               O H           
                                             
                                             
                               Ag            
            Ag    Ir    Ir                   
                  AIr     Pt    Ru           
                                             
       Ir    IIr    IPt    Pt                
         Ru    Ir     Ir                     
                     Pt     Ag     Ir        
                Ag     Ag     Ag             
                                             
           Ir    PPt    RPt    Ir            
                                             
            Ir    IAg    AAg    Pt           
       Ag    IIr    IIr    Ir                
                                             
        Ag     Ag     Ir                     
                                             
                                             
                                             
                                             
                                             

Positions:
   0 Ag     0.000000    1.621936   10.000000    ( 0.0000,  0.0000,  0.0000)
   1 Ag     2.809275    1.621936   10.000000    ( 0.0000,  0.0000,  0.0000)
   2 Ir     5.618550    1.621936   10.000000    ( 0.0000,  0.0000,  0.0000)
   3 Ir     1.404638    4.054840   10.000000    ( 0.0000,  0.0000,  0.0000)
   4 Ir     4.213913    4.054840   10.000000    ( 0.0000,  0.0000,  0.0000)
   5 Ir     7.023188    4.054840   10.000000    ( 0.0000,  0.0000,  0.0000)
   6 Ir     2.809275    6.487743   10.000000    ( 0.0000,  0.0000,  0.0000)
   7 Ag     5.618550    6.487743   10.000000    ( 0.0000,  0.0000,  0.0000)
   8 Pt     8.427826    6.487743   10.000000    ( 0.0000,  0.0000,  0.0000)
   9 Ag     0.000000    0.000000   12.293764    ( 0.0000,  0.0000,  0.0000)
  10 Ir     2.809275    0.000000   12.293764    ( 0.0000,  0.0000,  0.0000)
  11 Ir     5.618550    0.000000   12.293764    ( 0.0000,  0.0000,  0.0000)
  12 Ir     1.404638    2.432904   12.293764    ( 0.0000,  0.0000,  0.0000)
  13 Ag     4.213913    2.432904   12.293764    ( 0.0000,  0.0000,  0.0000)
  14 Ag     7.023188    2.432904   12.293764    ( 0.0000,  0.0000,  0.0000)
  15 Pt     2.809275    4.865807   12.293764    ( 0.0000,  0.0000,  0.0000)
  16 Ru     5.618550    4.865807   12.293764    ( 0.0000,  0.0000,  0.0000)
  17 Ir     8.427826    4.865807   12.293764    ( 0.0000,  0.0000,  0.0000)
  18 Ir     1.443896    0.791979   14.595825    ( 0.0000,  0.0000,  0.0000)
  19 Pt     4.194688    0.732881   14.622441    ( 0.0000,  0.0000,  0.0000)
  20 Pt     7.041507    0.807161   14.639268    ( 0.0000,  0.0000,  0.0000)
  21 Ag     2.787822    3.269581   14.622863    ( 0.0000,  0.0000,  0.0000)
  22 Ag     5.623043    3.235778   14.632443    ( 0.0000,  0.0000,  0.0000)
  23 Ag     8.470453    3.242782   14.612580    ( 0.0000,  0.0000,  0.0000)
  24 Pt     4.243576    5.675825   14.600254    ( 0.0000,  0.0000,  0.0000)
  25 Ag     7.026299    5.625988   14.593141    ( 0.0000,  0.0000,  0.0000)
  26 Ir     9.814851    5.748652   14.521635    ( 0.0000,  0.0000,  0.0000)
  27 Ru     0.086239    1.645377   16.933913    ( 0.0000,  0.0000,  0.0000)
  28 Ir     2.731143    1.626794   16.887209    ( 0.0000,  0.0000,  0.0000)
  29 Ir     5.546651    1.589482   16.876509    ( 0.0000,  0.0000,  0.0000)
  30 Ir     1.334637    3.994964   17.061866    ( 0.0000,  0.0000,  0.0000)
  31 Ir     4.190659    3.973625   16.951205    ( 0.0000,  0.0000,  0.0000)
  32 Pt     7.121958    4.048955   17.019334    ( 0.0000,  0.0000,  0.0000)
  33 Ag     2.753925    6.458957   16.788998    ( 0.0000,  0.0000,  0.0000)
  34 Ir     5.662247    6.553961   16.864738    ( 0.0000,  0.0000,  0.0000)
  35 Ru     8.401587    6.446474   16.895288    ( 0.0000,  0.0000,  0.0000)
  36 Ir     0.014452   -0.069782   18.996452    ( 0.0000,  0.0000,  0.0000)
  37 Ir     2.778946   -0.007205   18.970278    ( 0.0000,  0.0000,  0.0000)
  38 Pt     5.626737   -0.046398   19.105486    ( 0.0000,  0.0000,  0.0000)
[...]
  23 Ag     8.473601    3.243100   14.620345    ( 0.0000,  0.0000,  0.0000)
  24 Pt     4.245983    5.674242   14.597814    ( 0.0000,  0.0000,  0.0000)
  25 Ag     7.029482    5.620481   14.593735    ( 0.0000,  0.0000,  0.0000)
  26 Ir     9.817634    5.749817   14.515254    ( 0.0000,  0.0000,  0.0000)
  27 Ru     0.084161    1.635419   16.941190    ( 0.0000,  0.0000,  0.0000)
  28 Ir     2.724675    1.620765   16.893775    ( 0.0000,  0.0000,  0.0000)
  29 Ir     5.545179    1.578292   16.882612    ( 0.0000,  0.0000,  0.0000)
  30 Ir     1.336696    3.982435   17.075266    ( 0.0000,  0.0000,  0.0000)
  31 Ir     4.191593    3.967226   16.958418    ( 0.0000,  0.0000,  0.0000)
  32 Pt     7.116072    4.034874   17.008392    ( 0.0000,  0.0000,  0.0000)
  33 Ag     2.749483    6.444728   16.787962    ( 0.0000,  0.0000,  0.0000)
  34 Ir     5.659970    6.545489   16.864291    ( 0.0000,  0.0000,  0.0000)
  35 Ru     8.404552    6.437674   16.896705    ( 0.0000,  0.0000,  0.0000)
  36 Ir     0.009192   -0.079101   18.993700    ( 0.0000,  0.0000,  0.0000)
  37 Ir     2.778161   -0.020823   18.969742    ( 0.0000,  0.0000,  0.0000)
  38 Pt     5.627574   -0.063836   19.117592    ( 0.0000,  0.0000,  0.0000)
  39 Ag     1.404371    2.375331   19.628097    ( 0.0000,  0.0000,  0.0000)
  40 Ir     4.216599    2.386823   19.015632    ( 0.0000,  0.0000,  0.0000)
  41 Pt     6.953544    2.279941   19.118475    ( 0.0000,  0.0000,  0.0000)
  42 Ir     2.911058    4.858093   19.042266    ( 0.0000,  0.0000,  0.0000)
  43 Ir     5.504729    4.921019   19.019442    ( 0.0000,  0.0000,  0.0000)
  44 Ag     8.429800    4.847632   19.516967    ( 0.0000,  0.0000,  0.0000)
  45 O      8.325054    4.782154   21.602453    ( 0.0000,  0.0000,  0.0000)
  46 H      8.955074    5.463158   21.942661    ( 0.0000,  0.0000,  0.0000)

Unit cell:
           periodic     x           y           z      points  spacing
  1. axis:    yes    8.445283    0.000000    0.000000    35     0.2090
  2. axis:    yes    4.222641    7.313829    0.000000    35     0.2090
  3. axis:    no     0.000000    0.000000   29.175054   135     0.2161

  Lengths:   8.445283   8.445283  29.175054
  Angles:   90.000000  90.000000  60.000000

Effective grid spacing dv^(1/3) = 0.2217

                     log10-error:    total        iterations:
           time      wfs    density  energy       fermi  poisson
iter:   1  00:38:54  -3.14   +inf  -268.507055    3             
iter:   2  00:40:04  -2.22  -2.24  -295.766234    4             
iter:   3  00:41:13  -2.51  -1.44  -267.949032    3             
iter:   4  00:42:22  -3.73  -2.72  -267.886010    3             
iter:   5  00:43:32  -4.98  -3.15  -267.877426    3             
iter:   6  00:44:42  -5.48  -3.38  -267.874958    2             
iter:   7  00:45:52  -5.53  -3.50  -267.872285    2             
iter:   8  00:47:00  -5.79  -3.56  -267.877720    2             
iter:   9  00:48:10  -5.62  -3.35  -267.871899    2             
iter:  10  00:49:19  -5.95  -3.45  -267.872259    2             
iter:  11  00:50:29  -6.07  -3.83  -267.871873    2             
iter:  12  00:51:38  -6.43  -3.71  -267.871895    2             
iter:  13  00:52:48  -6.97  -3.94  -267.871693    2             
iter:  14  00:53:58  -6.75  -3.94  -267.873143    2             
iter:  15  00:55:08  -7.13  -3.80  -267.871789    2             
iter:  16  00:56:18  -6.92  -4.10  -267.872088    2             
iter:  17  00:57:28  -7.38  -4.19  -267.871955    2             
iter:  18  00:58:38  -6.95  -4.27  -267.872094    2             
iter:  19  00:59:47  -7.49  -4.35  -267.871905    2             

Converged after 19 iterations.

Dipole moment: (21.902288, 18.925890, -0.313952) |e|*Ang

Energy contributions relative to reference atoms: (reference = -16429291.423757)

Kinetic:       -143.911946
Potential:      +87.784446
External:        +0.000000
XC:            -204.310916
Entropy (-ST):   -2.107789
Local:           -6.379595
--------------------------
Free energy:   -268.925800
Extrapolated:  -267.871905

Fermi level: 1.21847

Showing only first 2 kpts
 Kpt  Band  Eigenvalues  Occupancy
  0   357      1.20150    0.13558
  0   358      1.23123    0.11703
  0   359      1.25431    0.10283
  0   360      1.29337    0.08026

  1   357      1.09876    0.19200
  1   358      1.13035    0.17676
  1   359      1.15113    0.16557
  1   360      1.17793    0.14999



Forces in eV/Ang:
  0 Ag   -0.41775    0.15818   -1.05367
  1 Ag    0.25188    0.22742   -0.85885
  2 Ir    0.49301   -0.19398    0.02788
  3 Ir   -0.11051    1.23358    1.38843
  4 Ir    0.41222    0.41716    0.88267
  5 Ir   -0.32343   -0.02127    1.19958
  6 Ir   -1.70955   -0.49888    0.72409
  7 Ag   -0.12517   -0.34556   -0.96587
  8 Pt    1.05599   -0.38759    0.48784
  9 Ag    0.12996    0.02053    0.18019
 10 Ir   -0.01945   -0.40963    1.01032
 11 Ir   -0.64395   -0.75201   -0.50603
 12 Ir    0.40704    0.16649    0.22437
 13 Ag   -0.02864   -0.03717    0.18443
 14 Ag    0.06983    0.09019    0.15986
 15 Pt   -0.12296   -0.07336   -0.61022
 16 Ru    0.66318    0.46334   -1.36350
 17 Ir    0.10895    0.27267   -1.26863
 18 Ir   -0.00975   -0.01236    0.01030
 19 Pt    0.01230   -0.01283   -0.00912
 20 Pt    0.00301   -0.02216    0.01642
 21 Ag   -0.00142   -0.00821    0.01989
 22 Ag    0.01154    0.00851    0.02467
 23 Ag   -0.01113   -0.02618   -0.03228
 24 Pt   -0.00630   -0.00525    0.01504
 25 Ag   -0.02633   -0.01100   -0.00870
 26 Ir    0.00272    0.00892   -0.02282
 27 Ru   -0.00469   -0.00437   -0.01497
 28 Ir    0.01173    0.01404   -0.02124
 29 Ir    0.00377   -0.00736   -0.00567
 30 Ir   -0.00868   -0.04824   -0.02401
 31 Ir   -0.00732   -0.03746    0.01949
 32 Pt   -0.02778   -0.01242    0.00626
 33 Ag    0.02059    0.01356    0.01304
 34 Ir   -0.03077   -0.03574   -0.01533
 35 Ru   -0.01311    0.00351   -0.00881
 36 Ir    0.00147   -0.03720    0.03841
 37 Ir   -0.00532    0.01187    0.03062
 38 Pt    0.00274   -0.00050   -0.02147
 39 Ag   -0.00481    0.01182   -0.00318
 40 Ir   -0.00440   -0.00113    0.03080
 41 Pt   -0.02078   -0.02522    0.01066
 42 Ir    0.04588   -0.01457   -0.02505
 43 Ir   -0.02416   -0.00002    0.01272
 44 Ag    0.02280   -0.00432    0.02992
 45 O     0.02062    0.04717    0.16118
 46 H    -0.03302   -0.01210   -0.00596

System changes: positions 

Initializing position-dependent things.

Density initialized from wave functions
                                             
                                             
                                             
                                             
                                             
                               O H           
                                             
                                             
                               Ag            
            Ag    Ir    Ir                   
                  AIr     Pt    Ru           
                                             
       Ir    IIr    IPt    Pt                
         Ru    Ir     Ir                     
                     Pt     Ag     Ir        
                Ag     Ag     Ag             
                                             
           Ir    PPt    RPt    Ir            
                                             
            Ir    IAg    AAg    Pt           
       Ag    IIr    IIr    Ir                
                                             
        Ag     Ag     Ir                     
                                             
                                             
                                             
                                             
                                             

Positions:
   0 Ag     0.000000    1.621936   10.000000    ( 0.0000,  0.0000,  0.0000)
   1 Ag     2.809275    1.621936   10.000000    ( 0.0000,  0.0000,  0.0000)
   2 Ir     5.618550    1.621936   10.000000    ( 0.0000,  0.0000,  0.0000)
   3 Ir     1.404638    4.054840   10.000000    ( 0.0000,  0.0000,  0.0000)
   4 Ir     4.213913    4.054840   10.000000    ( 0.0000,  0.0000,  0.0000)
   5 Ir     7.023188    4.054840   10.000000    ( 0.0000,  0.0000,  0.0000)
   6 Ir     2.809275    6.487743   10.000000    ( 0.0000,  0.0000,  0.0000)
   7 Ag     5.618550    6.487743   10.000000    ( 0.0000,  0.0000,  0.0000)
   8 Pt     8.427826    6.487743   10.000000    ( 0.0000,  0.0000,  0.0000)
   9 Ag     0.000000    0.000000   12.293764    ( 0.0000,  0.0000,  0.0000)
  10 Ir     2.809275    0.000000   12.293764    ( 0.0000,  0.0000,  0.0000)
  11 Ir     5.618550    0.000000   12.293764    ( 0.0000,  0.0000,  0.0000)
  12 Ir     1.404638    2.432904   12.293764    ( 0.0000,  0.0000,  0.0000)
  13 Ag     4.213913    2.432904   12.293764    ( 0.0000,  0.0000,  0.0000)
  14 Ag     7.023188    2.432904   12.293764    ( 0.0000,  0.0000,  0.0000)
  15 Pt     2.809275    4.865807   12.293764    ( 0.0000,  0.0000,  0.0000)
  16 Ru     5.618550    4.865807   12.293764    ( 0.0000,  0.0000,  0.0000)
  17 Ir     8.427826    4.865807   12.293764    ( 0.0000,  0.0000,  0.0000)
  18 Ir     1.443223    0.789035   14.597683    ( 0.0000,  0.0000,  0.0000)
  19 Pt     4.191905    0.730168   14.626583    ( 0.0000,  0.0000,  0.0000)
  20 Pt     7.041517    0.804844   14.643505    ( 0.0000,  0.0000,  0.0000)
  21 Ag     2.788325    3.268227   14.625614    ( 0.0000,  0.0000,  0.0000)
  22 Ag     5.618540    3.228332   14.633608    ( 0.0000,  0.0000,  0.0000)
  23 Ag     8.473463    3.240343   14.617741    ( 0.0000,  0.0000,  0.0000)
  24 Pt     4.246037    5.673715   14.599166    ( 0.0000,  0.0000,  0.0000)
  25 Ag     7.027154    5.620037   14.593174    ( 0.0000,  0.0000,  0.0000)
  26 Ir     9.817621    5.751007   14.512582    ( 0.0000,  0.0000,  0.0000)
  27 Ru     0.083736    1.635256   16.940696    ( 0.0000,  0.0000,  0.0000)
  28 Ir     2.725163    1.621111   16.892081    ( 0.0000,  0.0000,  0.0000)
  29 Ir     5.545037    1.575906   16.882471    ( 0.0000,  0.0000,  0.0000)
  30 Ir     1.333487    3.976798   17.075320    ( 0.0000,  0.0000,  0.0000)
  31 Ir     4.190041    3.963329   16.960589    ( 0.0000,  0.0000,  0.0000)
  32 Pt     7.114687    4.033095   17.010491    ( 0.0000,  0.0000,  0.0000)
  33 Ag     2.750628    6.444217   16.790016    ( 0.0000,  0.0000,  0.0000)
  34 Ir     5.658011    6.541127   16.862768    ( 0.0000,  0.0000,  0.0000)
  35 Ru     8.403187    6.436234   16.897154    ( 0.0000,  0.0000,  0.0000)
  36 Ir     0.009162   -0.083196   18.997358    ( 0.0000,  0.0000,  0.0000)
  37 Ir     2.777777   -0.020714   18.971684    ( 0.0000,  0.0000,  0.0000)
  38 Pt     5.626960   -0.066234   19.115481    ( 0.0000,  0.0000,  0.0000)
  39 Ag     1.403407    2.374776   19.631134    ( 0.0000,  0.0000,  0.0000)
  40 Ir     4.215531    2.385225   19.018936    ( 0.0000,  0.0000,  0.0000)
  41 Pt     6.952085    2.277627   19.118878    ( 0.0000,  0.0000,  0.0000)
  42 Ir     2.913564    4.855622   19.039351    ( 0.0000,  0.0000,  0.0000)
  43 Ir     5.503703    4.919837   19.020445    ( 0.0000,  0.0000,  0.0000)
  44 Ag     8.431819    4.845497   19.521261    ( 0.0000,  0.0000,  0.0000)
  45 O      8.321169    4.779759   21.609421    ( 0.0000,  0.0000,  0.0000)
  46 H      8.949702    5.462024   21.946393    ( 0.0000,  0.0000,  0.0000)

Unit cell:
           periodic     x           y           z      points  spacing
  1. axis:    yes    8.445283    0.000000    0.000000    35     0.2090
  2. axis:    yes    4.222641    7.313829    0.000000    35     0.2090
  3. axis:    no     0.000000    0.000000   29.175054   135     0.2161

  Lengths:   8.445283   8.445283  29.175054
  Angles:   90.000000  90.000000  60.000000

Effective grid spacing dv^(1/3) = 0.2217

                     log10-error:    total        iterations:
           time      wfs    density  energy       fermi  poisson
iter:   1  01:01:27  -3.91   +inf  -267.918960    2             
iter:   2  01:02:35  -3.34  -2.78  -270.176738    3             
iter:   3  01:03:44  -3.55  -1.96  -267.879584    2             
iter:   4  01:04:53  -5.09  -3.16  -267.874779    3             
iter:   5  01:06:01  -5.89  -3.54  -267.874710    2             
iter:   6  01:07:10  -6.21  -3.68  -267.873902    2             
iter:   7  01:08:19  -6.37  -3.83  -267.874129    2             
iter:   8  01:09:22  -6.07  -3.94  -267.873528    2             
iter:   9  01:10:20  -6.55  -4.12  -267.874278    2             
iter:  10  01:11:17  -7.16  -4.03  -267.873670    2             
iter:  11  01:12:16  -7.49  -4.32  -267.873743    2             

Converged after 11 iterations.

Dipole moment: (21.725982, 19.002353, -0.318023) |e|*Ang

Energy contributions relative to reference atoms: (reference = -16429291.423757)

Kinetic:       -144.019016
Potential:      +87.835138
External:        +0.000000
XC:            -204.277580
Entropy (-ST):   -2.107555
Local:           -6.358509
--------------------------
Free energy:   -268.927521
Extrapolated:  -267.873743

Fermi level: 1.21705

Showing only first 2 kpts
 Kpt  Band  Eigenvalues  Occupancy
  0   357      1.20028    0.13545
  0   358      1.22973    0.11708
  0   359      1.25311    0.10270
  0   360      1.29237    0.08003

  1   357      1.09711    0.19210
  1   358      1.12905    0.17670
  1   359      1.15027    0.16525
  1   360      1.17658    0.14995



Forces in eV/Ang:
  0 Ag   -0.41686    0.15749   -1.05061
  1 Ag    0.25150    0.22660   -0.85609
  2 Ir    0.49335   -0.19298    0.03434
  3 Ir   -0.11063    1.23254    1.39212
  4 Ir    0.41203    0.41638    0.88812
  5 Ir   -0.32315   -0.02068    1.20365
  6 Ir   -1.70729   -0.49854    0.72664
  7 Ag   -0.12484   -0.34539   -0.96198
  8 Pt    1.05322   -0.38759    0.49103
  9 Ag    0.13196    0.01912    0.18360
 10 Ir   -0.02402   -0.40229    1.01071
 11 Ir   -0.64041   -0.73806   -0.51572
 12 Ir    0.41931    0.16185    0.22475
 13 Ag   -0.02893   -0.03437    0.19839
 14 Ag    0.06230    0.08792    0.16594
 15 Pt   -0.11399   -0.08395   -0.60269
 16 Ru    0.65836    0.45684   -1.36429
 17 Ir    0.10222    0.26791   -1.26824
 18 Ir    0.00762   -0.00330   -0.00352
 19 Pt   -0.00884    0.01582   -0.01038
 20 Pt   -0.01092    0.00919    0.00399
 21 Ag   -0.00145    0.00489   -0.01734
 22 Ag    0.00508   -0.01234    0.00643
 23 Ag   -0.01611    0.00966   -0.01145
 24 Pt   -0.02905   -0.02472   -0.00619
 25 Ag    0.01583   -0.02441   -0.00404
 26 Ir    0.00146   -0.03084    0.01800
 27 Ru   -0.00452   -0.04444    0.01488
 28 Ir    0.00068   -0.04559    0.01862
 29 Ir   -0.00489    0.00064    0.00926
 30 Ir    0.01950    0.01589   -0.01483
 31 Ir    0.01848   -0.03463   -0.01741
 32 Pt   -0.01852    0.00246   -0.00948
 33 Ag   -0.01203   -0.01170   -0.01595
 34 Ir    0.00234    0.01886    0.05463
 35 Ru   -0.01052   -0.00190   -0.00560
 36 Ir    0.01405    0.01276   -0.01397
 37 Ir   -0.02654   -0.00695   -0.03972
 38 Pt    0.00105   -0.00954   -0.00459
 39 Ag   -0.00992    0.00256   -0.01593
 40 Ir    0.00176   -0.02142   -0.01408
 41 Pt   -0.00100   -0.02135    0.00125
 42 Ir   -0.03582   -0.01062    0.01647
 43 Ir    0.02985   -0.00750    0.00350
 44 Ag    0.00634    0.00401    0.02868
 45 O    -0.00768   -0.00132    0.03638
 46 H    -0.02009    0.02212    0.03500

Timing:                                      incl.     excl.
-------------------------------------------------------------------
Density initialized from wave functions:    40.838    40.837   0.2% |
 Symmetrize density:                         0.001     0.001   0.0% |
Forces:                                    218.641   218.641   1.1% |
Hamiltonian:                                36.813     0.149   0.0% |
 Atomic:                                     8.243     4.027   0.0% |
  XC Correction:                             4.216     4.216   0.0% |
 Calculate atomic Hamiltonians:             13.841    13.841   0.1% |
 Communicate:                                1.259     1.259   0.0% |
 Initialize Hamiltonian:                     0.001     0.001   0.0% |
 Poisson:                                    0.066     0.066   0.0% |
 XC 3D grid:                                13.253    13.253   0.1% |
LCAO initialization:                        66.457     3.585   0.0% |
 LCAO eigensolver:                           6.770     0.003   0.0% |
  Calculate projections:                     0.055     0.055   0.0% |
  DenseAtomicCorrection:                     0.082     0.082   0.0% |
  Distribute overlap matrix:                 0.193     0.193   0.0% |
  Orbital Layouts:                           0.636     0.636   0.0% |
  Potential matrix:                          5.749     5.749   0.0% |
  Sum over cells:                            0.053     0.053   0.0% |
 LCAO to grid:                              53.569    53.569   0.3% |
 Set positions (LCAO WFS):                   2.533     1.182   0.0% |
  Basic WFS set positions:                   0.002     0.002   0.0% |
  Basis functions set positions:             0.001     0.001   0.0% |
  P tci:                                     0.559     0.559   0.0% |
  ST tci:                                    0.583     0.583   0.0% |
  mktci:                                     0.206     0.206   0.0% |
PWDescriptor:                                0.045     0.045   0.0% |
Redistribute:                                0.067     0.067   0.0% |
SCF-cycle:                               18920.101   525.054   2.7% ||
 Davidson:                               16730.204  4007.100  20.7% |-------|
  Apply H:                                2651.811  2583.510  13.3% |----|
   HMM T:                                   68.301    68.301   0.4% |
  Subspace diag:                          2384.584     0.084   0.0% |
   calc_h_matrix:                         1347.630   461.303   2.4% ||
    Apply H:                               886.327   862.282   4.4% |-|
     HMM T:                                 24.045    24.045   0.1% |
   diagonalize:                             73.747    73.747   0.4% |
   rotate_psi:                             963.123   963.123   5.0% |-|
  calc. matrices:                         5056.672  3309.109  17.1% |------|
   Apply H:                               1747.564  1701.912   8.8% |---|
    HMM T:                                  45.652    45.652   0.2% |
  diagonalize:                             766.079   766.079   4.0% |-|
  rotate_psi:                             1863.958  1863.958   9.6% |---|
 Density:                                  848.949     0.017   0.0% |
  Atomic density matrices:                   4.987     4.987   0.0% |
  Mix:                                     331.884   331.884   1.7% ||
  Multipole moments:                         0.370     0.370   0.0% |
  Pseudo density:                          511.690   511.672   2.6% ||
   Symmetrize density:                       0.019     0.019   0.0% |
 Hamiltonian:                              736.455     2.899   0.0% |
  Atomic:                                  171.653    85.260   0.4% |
   XC Correction:                           86.393    86.393   0.4% |
  Calculate atomic Hamiltonians:           273.495   273.495   1.4% ||
  Communicate:                              17.374    17.374   0.1% |
  Poisson:                                   1.271     1.271   0.0% |
  XC 3D grid:                              269.762   269.762   1.4% ||
 Orthonormalize:                            79.439     0.006   0.0% |
  calc_s_matrix:                            10.586    10.586   0.1% |
  inverse-cholesky:                          2.280     2.280   0.0% |
  projections:                              44.550    44.550   0.2% |
  rotate_psi_s:                             22.018    22.018   0.1% |
Set symmetry:                                0.002     0.002   0.0% |
Other:                                     101.925   101.925   0.5% |
-------------------------------------------------------------------
Total:                                             19384.890 100.0%

Date: Fri Mar  4 01:12:29 2022
