
  ___ ___ ___ _ _ _  
 |   |   |_  | | | | 
 | | | | | . | | | | 
 |__ |  _|___|_____|  1.5.1
 |___|_|             

User:   clausen@node497.cluster
Date:   Thu Mar  3 14:10:31 2022
Arch:   x86_64
Pid:    26938
Python: 3.6.12
gpaw:   /software/kemi/gpaw/1.5.1/gpaw
_gpaw:  /software/kemi/gpaw/1.5.1/bin/gpaw-python
ase:    /software/kemi/ase/3.17.0/ase (version 3.17.0)
numpy:  /opt/rh/rh-python36/root/usr/lib64/python3.6/site-packages/numpy (version 1.13.1)
scipy:  /opt/rh/rh-python36/root/usr/lib64/python3.6/site-packages/scipy (version 0.19.1)
units:  Angstrom and eV
cores:  16

Input parameters:
  kpts: [4 4 1]
  mode: {ecut: 400.0,
         gammacentered: False,
         name: pw}
  xc: RPBE

System changes: positions, numbers, cell, pbc, initial_charges, initial_magmoms 

Initialize ...

Pd-setup:
  name: Palladium
  id: 6da19bfba079f22767af9506641940b9
  Z: 46
  valence: 16
  core: 30
  charge: 0.0
  file: /software/kemi/gpaw-setups/0.9.20000/Pd.RPBE.gz
  cutoffs: 1.19(comp), 2.38(filt), 2.28(core), lmax=2
  valence states:
                energy  radius
    5s(0.00)    -3.225   1.228
    4p(6.00)   -51.131   1.360
    5p(0.00)    -0.373   1.360
    4d(10.00)    -3.964   1.228
    *s          23.987   1.228
    *d          23.247   1.228

  Using partial waves for Pd as LCAO basis

Ir-setup:
  name: Iridium
  id: 73b603359d1d5397a85ae3c2440f9033
  Z: 77
  valence: 15
  core: 62
  charge: 0.0
  file: /software/kemi/gpaw-setups/0.9.20000/Ir.RPBE.gz
  cutoffs: 1.26(comp), 2.40(filt), 2.36(core), lmax=2
  valence states:
                energy  radius
    6s(2.00)    -6.219   1.296
    5p(6.00)   -54.684   1.328
    6p(0.00)    -1.215   1.328
    5d(7.00)    -7.118   1.286
    *s          20.992   1.296
    *d          20.093   1.286

  Using partial waves for Ir as LCAO basis

Ru-setup:
  name: Ruthenium
  id: 76477906e28f51dc1b29884d53556fe9
  Z: 44
  valence: 16
  core: 28
  charge: 0.0
  file: /software/kemi/gpaw-setups/0.9.20000/Ru.RPBE.gz
  cutoffs: 1.23(comp), 2.16(filt), 1.30(core), lmax=2
  valence states:
                energy  radius
    4s(2.00)   -76.255   1.281
    5s(1.00)    -4.126   1.281
    4p(6.00)   -46.371   1.286
    5p(0.00)    -0.913   1.286
    4d(7.00)    -5.146   1.254
    *d          22.066   1.254

  Using partial waves for Ru as LCAO basis

Pt-setup:
  name: Platinum
  id: f04f522592575c47ad794f6b4a415b4b
  Z: 78
  valence: 16
  core: 62
  charge: 0.0
  file: /software/kemi/gpaw-setups/0.9.20000/Pt.RPBE.gz
  cutoffs: 1.29(comp), 2.26(filt), 2.26(core), lmax=2
  valence states:
                energy  radius
    6s(1.00)    -5.516   1.307
    5p(6.00)   -55.971   1.371
    6p(0.00)    -0.856   1.371
    5d(9.00)    -6.087   1.307
    *s          21.695   1.307
    *d          21.125   1.307

  Using partial waves for Pt as LCAO basis

Ag-setup:
  name: Silver
  id: c05e55bab2c3858b3f9398f6d75cb77c
  Z: 47
  valence: 17
  core: 30
  charge: 0.0
  file: /software/kemi/gpaw-setups/0.9.20000/Ag.RPBE.gz
  cutoffs: 1.25(comp), 2.35(filt), 2.19(core), lmax=2
  valence states:
                energy  radius
    5s(1.00)    -4.277   1.286
    4p(6.00)   -58.523   1.328
    5p(0.00)    -0.755   1.328
    4d(10.00)    -7.386   1.180
    *s          22.934   1.286
    *d          19.826   1.180

  Using partial waves for Ag as LCAO basis

O-setup:
  name: Oxygen
  id: 08071ca1eed670e7821b24b7eb4d558c
  Z: 8
  valence: 6
  core: 2
  charge: 0.0
  file: /software/kemi/gpaw-setups/0.9.20000/O.RPBE.gz
  cutoffs: 0.67(comp), 1.17(filt), 0.83(core), lmax=2
  valence states:
                energy  radius
    2s(2.00)   -24.041   0.688
    2p(4.00)    -8.984   0.598
    *s           3.170   0.688
    *p          18.228   0.598
    *d           0.000   0.619

  Using partial waves for O as LCAO basis

H-setup:
  name: Hydrogen
  id: ea3f9156a1dc40d47a60fdce8f8bd75d
  Z: 1
  valence: 1
  core: 0
  charge: 0.0
  file: /software/kemi/gpaw-setups/0.9.20000/H.RPBE.gz
  cutoffs: 0.48(comp), 0.85(filt), 0.53(core), lmax=2
  valence states:
                energy  radius
    1s(1.00)    -6.572   0.476
    *s          20.639   0.476
    *p           0.000   0.476

  Using partial waves for H as LCAO basis

Reference energy: -12877860.274276

Spin-paired calculation

Occupation numbers:
  Fermi-Dirac: width=0.1000 eV

Convergence criteria:
  Maximum total energy change: 0.0005 eV / electron
  Maximum integral of absolute density change: 0.0001 electrons
  Maximum integral of absolute eigenstate change: 4e-08 eV^2
  Maximum number of iterations: 333

Symmetries present (total): 1

  ( 1  0  0)
  ( 0  1  0)
  ( 0  0  1)

16 k-points: 4 x 4 x 1 Monkhorst-Pack grid
8 k-points in the irreducible part of the Brillouin zone
       k-points in crystal coordinates                weights
   0:     0.12500000   -0.37500000    0.00000000          2/16
   1:     0.12500000   -0.12500000    0.00000000          2/16
   2:     0.12500000    0.12500000    0.00000000          2/16
   3:     0.12500000    0.37500000    0.00000000          2/16
   4:     0.37500000   -0.37500000    0.00000000          2/16
   5:     0.37500000   -0.12500000    0.00000000          2/16
   6:     0.37500000    0.12500000    0.00000000          2/16
   7:     0.37500000    0.37500000    0.00000000          2/16

Wave functions: Plane wave expansion
  Cutoff energy: 400.000 eV
  Number of coefficients (min, max): 32894, 32940
  Pulay-stress correction: 0.000000 eV/Ang^3 (de/decut=0.000000)
  Using FFTW library
  ScaLapack parameters: grid=1x1, blocksize=None
  Wavefunction extrapolation:
    Improved wavefunction reuse through dual PAW basis 

Eigensolver
   Davidson(niter=2, smin=None, normalize=True) 

Densities:
  Coarse grid: 35*35*135 grid
  Fine grid: 70*70*270 grid
  Total Charge: 0.000000 

Density mixing:
  Method: separate
  Backend: pulay
  Linear mixing parameter: 0.05
  Mixing with 5 old densities
  Damping of long wave oscillations: 50 

Hamiltonian:
  XC and Coulomb potentials evaluated on a 70*70*270 grid
  Using the RPBE Exchange-Correlation functional
 

XC parameters: RPBE with 2 nearest neighbor stencil

Memory estimate:
  Process memory now: 150.50 MiB
  Calculator: 554.76 MiB
    Density: 54.46 MiB
      Arrays: 16.41 MiB
      Localized functions: 31.69 MiB
      Mixer: 6.36 MiB
    Hamiltonian: 11.75 MiB
      Arrays: 10.73 MiB
      XC: 0.00 MiB
      Poisson: 0.00 MiB
      vbar: 1.03 MiB
    Wavefunctions: 488.54 MiB
      Arrays psit_nG: 220.65 MiB
      Eigensolver: 252.59 MiB
      Projections: 2.77 MiB
      Projectors: 5.91 MiB
      PW-descriptor: 6.62 MiB

Total number of cores used: 16
Parallelization over k-points: 8
Domain decomposition: 1 x 1 x 2

Number of atoms: 47
Number of atomic orbitals: 551
Number of bands in calculation: 439
Bands to converge: occupied states only
Number of valence electrons: 724

... initialized

Initializing position-dependent things.

Density initialized from atomic densities
Creating initial wave functions:
  439 bands from LCAO basis set

                                             
                                             
                                             
                                             
                                             
                                             
                                             
                                             
                  Ag O H Ir    Ir            
            Pd      Pd                       
                   Ru     PIr    Ir          
        Ir    Pt    PAg                      
                           Pd                
        Ir     Pd    IAg    Ir     Pt        
                                             
                Ag     Ru     Pd             
           Pt     Ag    PPd    Ir            
                                             
            Pt     Pt    PPt    Ru           
       Ag     Ag     Ag                      
              Ru    Ir     Pt                
         Pd    Ir     Ru                     
                                             
                                             
                                             
                                             
                                             

Positions:
   0 Pd     0.000000    1.624086   10.000000    ( 0.0000,  0.0000,  0.0000)
   1 Ir     2.812999    1.624086   10.000000    ( 0.0000,  0.0000,  0.0000)
   2 Ru     5.625998    1.624086   10.000000    ( 0.0000,  0.0000,  0.0000)
   3 Ru     1.406500    4.060215   10.000000    ( 0.0000,  0.0000,  0.0000)
   4 Ir     4.219499    4.060215   10.000000    ( 0.0000,  0.0000,  0.0000)
   5 Pt     7.032498    4.060215   10.000000    ( 0.0000,  0.0000,  0.0000)
   6 Pd     2.812999    6.496343   10.000000    ( 0.0000,  0.0000,  0.0000)
   7 Pd     5.625998    6.496343   10.000000    ( 0.0000,  0.0000,  0.0000)
   8 Ru     8.438997    6.496343   10.000000    ( 0.0000,  0.0000,  0.0000)
   9 Ag     0.000000    0.000000   12.296804    ( 0.0000,  0.0000,  0.0000)
  10 Ag     2.812999    0.000000   12.296804    ( 0.0000,  0.0000,  0.0000)
  11 Ag     5.625998    0.000000   12.296804    ( 0.0000,  0.0000,  0.0000)
  12 Pt     1.406500    2.436129   12.296804    ( 0.0000,  0.0000,  0.0000)
  13 Pt     4.219499    2.436129   12.296804    ( 0.0000,  0.0000,  0.0000)
  14 Pt     7.032498    2.436129   12.296804    ( 0.0000,  0.0000,  0.0000)
  15 Ru     2.812999    4.872257   12.296804    ( 0.0000,  0.0000,  0.0000)
  16 Pt     5.625998    4.872257   12.296804    ( 0.0000,  0.0000,  0.0000)
  17 Ir     8.438997    4.872257   12.296804    ( 0.0000,  0.0000,  0.0000)
  18 Pt     1.331112    0.739375   14.657283    ( 0.0000,  0.0000,  0.0000)
  19 Ag     4.181622    0.793852   14.645499    ( 0.0000,  0.0000,  0.0000)
  20 Pd     7.001587    0.862206   14.620346    ( 0.0000,  0.0000,  0.0000)
  21 Ag     2.800841    3.198617   14.645984    ( 0.0000,  0.0000,  0.0000)
  22 Ru     5.661352    3.374873   14.464570    ( 0.0000,  0.0000,  0.0000)
  23 Pd     8.454364    3.209063   14.568969    ( 0.0000,  0.0000,  0.0000)
  24 Ir     4.203312    5.613553   14.568997    ( 0.0000,  0.0000,  0.0000)
  25 Ir     7.031881    5.578044   14.561300    ( 0.0000,  0.0000,  0.0000)
  26 Pt     9.857688    5.665883   14.596939    ( 0.0000,  0.0000,  0.0000)
  27 Ir    -0.077764    1.506761   16.938800    ( 0.0000,  0.0000,  0.0000)
  28 Pd     2.746751    1.593087   16.991368    ( 0.0000,  0.0000,  0.0000)
  29 Ag     5.532334    1.594992   16.918159    ( 0.0000,  0.0000,  0.0000)
  30 Pd     1.401555    4.031321   16.973309    ( 0.0000,  0.0000,  0.0000)
  31 Pd     4.186062    4.107308   16.892321    ( 0.0000,  0.0000,  0.0000)
  32 Pd     7.007491    3.969527   16.736476    ( 0.0000,  0.0000,  0.0000)
  33 Ru     2.845276    6.541012   16.753610    ( 0.0000,  0.0000,  0.0000)
  34 Pd     5.662228    6.450069   16.794393    ( 0.0000,  0.0000,  0.0000)
  35 Ir     8.552515    6.378355   16.920371    ( 0.0000,  0.0000,  0.0000)
  36 Ir     0.061963   -0.029589   18.981657    ( 0.0000,  0.0000,  0.0000)
  37 Pt     2.802470   -0.097062   19.141410    ( 0.0000,  0.0000,  0.0000)
  38 Ag     5.661265    0.013033   19.406409    ( 0.0000,  0.0000,  0.0000)
  39 Pd     1.350042    2.376862   19.278970    ( 0.0000,  0.0000,  0.0000)
  40 Pd     4.315258    2.518491   19.256067    ( 0.0000,  0.0000,  0.0000)
  41 Ir     7.173708    2.513849   19.018418    ( 0.0000,  0.0000,  0.0000)
  42 Ag     2.809713    4.893314   19.379442    ( 0.0000,  0.0000,  0.0000)
  43 Ir     5.700233    4.913916   19.039342    ( 0.0000,  0.0000,  0.0000)
  44 Ir     8.278779    4.849064   19.000358    ( 0.0000,  0.0000,  0.0000)
  45 O      5.661265    0.013033   21.406409    ( 0.0000,  0.0000,  0.0000)
  46 H      6.311265    0.663033   21.806409    ( 0.0000,  0.0000,  0.0000)

Unit cell:
           periodic     x           y           z      points  spacing
  1. axis:    yes    8.465341    0.000000    0.000000    35     0.2095
  2. axis:    yes    4.232670    7.331200    0.000000    35     0.2095
  3. axis:    no     0.000000    0.000000   29.187217   135     0.2162

  Lengths:   8.465341   8.465341  29.187217
  Angles:   90.000000  90.000000  60.000000

Effective grid spacing dv^(1/3) = 0.2221

                     log10-error:    total        iterations:
           time      wfs    density  energy       fermi  poisson
iter:   1  14:14:21  +0.34   +inf  -325.065803    2             
iter:   2  14:15:34  -0.56  -1.16  -405.787550    35            
iter:   3  14:16:46  -0.65  -1.08  -351.028147    4             
iter:   4  14:17:59  -1.30  -1.14  -271.207363    35            
iter:   5  14:19:10  -1.73  -1.35  -250.212566    37            
iter:   6  14:20:21  -1.89  -1.44  -246.225938    36            
iter:   7  14:21:34  -2.18  -1.49  -243.210665    3             
iter:   8  14:22:47  -2.25  -1.56  -240.002320    3             
iter:   9  14:24:01  -2.02  -1.69  -240.783016    3             
iter:  10  14:25:14  -2.46  -1.75  -240.972552    3             
iter:  11  14:26:26  -2.75  -1.80  -238.298253    3             
iter:  12  14:27:39  -2.86  -2.00  -238.198815    3             
iter:  13  14:28:51  -3.20  -2.17  -238.254139    3             
iter:  14  14:30:03  -3.65  -2.25  -238.265277    3             
iter:  15  14:31:17  -3.47  -2.28  -238.288585    3             
iter:  16  14:32:30  -3.24  -2.29  -238.752998    3             
iter:  17  14:33:46  -3.51  -2.17  -238.155160    3             
iter:  18  14:34:58  -3.74  -2.44  -238.046559    3             
iter:  19  14:36:10  -4.27  -2.60  -238.014650    2             
iter:  20  14:37:22  -4.21  -2.69  -238.011331    2             
iter:  21  14:38:30  -4.29  -2.68  -237.989172    3             
iter:  22  14:39:43  -4.39  -2.79  -237.997613    2             
iter:  23  14:40:49  -4.14  -2.74  -237.993077    2             
iter:  24  14:41:59  -4.98  -2.75  -237.964468    3             
iter:  25  14:43:12  -5.13  -2.99  -237.963049    2             
iter:  26  14:44:42  -5.06  -3.01  -237.962431    2             
iter:  27  14:46:11  -4.97  -3.06  -237.974162    2             
iter:  28  14:47:41  -5.39  -2.96  -237.961424    2             
iter:  29  14:49:10  -5.58  -3.16  -237.961814    2             
iter:  30  14:50:40  -4.70  -3.16  -237.989033    2             
iter:  31  14:52:10  -5.25  -2.95  -237.959134    3             
iter:  32  14:53:39  -6.04  -3.46  -237.959256    2             
iter:  33  14:55:09  -6.36  -3.52  -237.959305    2             
iter:  34  14:56:39  -6.52  -3.54  -237.959268    2             
iter:  35  14:58:08  -6.00  -3.54  -237.958846    2             
iter:  36  14:59:38  -6.14  -3.60  -237.960005    2             
iter:  37  15:01:07  -6.39  -3.64  -237.958438    2             
iter:  38  15:02:37  -6.70  -3.65  -237.958510    2             
iter:  39  15:04:06  -6.30  -3.72  -237.958578    2             
iter:  40  15:05:36  -6.38  -3.78  -237.958374    2             
iter:  41  15:07:05  -6.75  -3.77  -237.958086    2             
iter:  42  15:08:35  -6.95  -3.98  -237.958607    2             
iter:  43  15:10:04  -7.29  -3.92  -237.958052    2             
iter:  44  15:11:33  -7.13  -4.08  -237.958179    2             
iter:  45  15:13:03  -7.07  -4.15  -237.958270    2             
iter:  46  15:14:32  -7.31  -4.16  -237.958227    2             
iter:  47  15:16:01  -7.58  -4.05  -237.958186    2             

Converged after 47 iterations.

Dipole moment: (22.833085, 14.173379, -0.291838) |e|*Ang

Energy contributions relative to reference atoms: (reference = -12877860.274276)

Kinetic:       -230.234555
Potential:     +105.695932
External:        +0.000000
XC:            -105.435819
Entropy (-ST):   -2.303516
Local:           -6.831987
--------------------------
Free energy:   -239.109944
Extrapolated:  -237.958186

Fermi level: 0.92432

Showing only first 2 kpts
 Kpt  Band  Eigenvalues  Occupancy
  0   360      0.91696    0.12960
  0   361      0.95024    0.10889
  0   362      0.96265    0.10133
  0   363      0.99207    0.08421

  1   360      0.83780    0.17594
  1   361      0.85373    0.16738
  1   362      0.88589    0.14873
  1   363      0.92019    0.12758



Forces in eV/Ang:
  0 Pd   -0.12214    0.33424   -0.34539
  1 Ir    0.95059    0.69696    0.59495
  2 Ru   -1.08925    0.29716    0.69451
  3 Ru    0.42383    0.27378    1.60498
  4 Ir   -0.56712   -0.80132    1.17140
  5 Pt    0.15275    0.15936    0.05155
  6 Pd   -0.49574   -0.42808   -0.24486
  7 Pd    0.38794   -0.27132   -0.57770
  8 Ru    0.33860   -0.15956    0.55285
  9 Ag   -0.23924   -0.09390    0.05640
 10 Ag   -0.02597   -0.10576    0.05336
 11 Ag    0.07937   -0.16616   -0.12764
 12 Pt    0.09847    0.75914   -0.54069
 13 Pt    0.11866    0.55953   -0.72020
 14 Pt   -0.11203    0.20173   -0.18407
 15 Ru   -0.40131   -0.71886   -0.93998
 16 Pt   -0.42116    0.14890   -0.18622
 17 Ir    0.92938   -0.08371   -1.03220
 18 Pt    0.01109   -0.00522   -0.00310
 19 Ag   -0.01294   -0.04671    0.01643
 20 Pd   -0.00735   -0.04356    0.02284
 21 Ag   -0.00680   -0.01352   -0.02348
 22 Ru    0.00957    0.00544    0.01376
 23 Pd   -0.05054   -0.03665    0.05054
 24 Ir    0.05157   -0.04326    0.01513
 25 Ir   -0.06279   -0.03071    0.05623
 26 Pt   -0.00719   -0.00907    0.01021
 27 Ir    0.01813   -0.00539   -0.03596
 28 Pd    0.00729   -0.02100   -0.05319
 29 Ag   -0.02529   -0.04760   -0.00255
 30 Pd    0.00690    0.00125   -0.02402
 31 Pd    0.00546   -0.05813    0.03489
 32 Pd    0.07678    0.01951    0.04353
 33 Ru   -0.11133   -0.00170    0.05601
 34 Pd    0.00092    0.04213   -0.01697
 35 Ir    0.20224    0.05376    0.21382
 36 Ir    0.21594   -0.07346   -0.13365
 37 Pt   -0.12682   -0.08366   -0.09593
 38 Ag   -0.11714   -0.15327   -1.13517
 39 Pd   -0.01468   -0.02924   -0.00203
 40 Pd   -0.03255    0.09805   -0.01470
 41 Ir    0.04362    0.14153   -0.01048
 42 Ag    0.00485   -0.08893    0.00536
 43 Ir    0.02566   -0.02380    0.01865
 44 Ir   -0.16913   -0.18717   -0.10628
 45 O     0.39900    0.45430    1.47643
 46 H    -0.41431   -0.42413   -0.31810

System changes: positions 

Initializing position-dependent things.

Density initialized from wave functions
                                             
                                             
                                             
                                             
                                             
                                             
                                             
                                             
                  Ag O H Ir    Ir            
            Pd      Pd                       
                   Ru     PIr    Ir          
        Ir    Pt    PAg    Pd                
                                             
        Ir     Pd    IAg    Ir     Pt        
                                             
                Ag     Ru     Pd             
           Pt     Ag    PPd    Ir            
                                             
            Pt     Pt    PPt    Ru           
       Ag     Ag     Ag                      
              Ru    Ir     Pt                
         Pd    Ir     Ru                     
                                             
                                             
                                             
                                             
                                             

Positions:
   0 Pd     0.000000    1.624086   10.000000    ( 0.0000,  0.0000,  0.0000)
   1 Ir     2.812999    1.624086   10.000000    ( 0.0000,  0.0000,  0.0000)
   2 Ru     5.625998    1.624086   10.000000    ( 0.0000,  0.0000,  0.0000)
   3 Ru     1.406500    4.060215   10.000000    ( 0.0000,  0.0000,  0.0000)
   4 Ir     4.219499    4.060215   10.000000    ( 0.0000,  0.0000,  0.0000)
   5 Pt     7.032498    4.060215   10.000000    ( 0.0000,  0.0000,  0.0000)
   6 Pd     2.812999    6.496343   10.000000    ( 0.0000,  0.0000,  0.0000)
   7 Pd     5.625998    6.496343   10.000000    ( 0.0000,  0.0000,  0.0000)
   8 Ru     8.438997    6.496343   10.000000    ( 0.0000,  0.0000,  0.0000)
   9 Ag     0.000000    0.000000   12.296804    ( 0.0000,  0.0000,  0.0000)
  10 Ag     2.812999    0.000000   12.296804    ( 0.0000,  0.0000,  0.0000)
  11 Ag     5.625998    0.000000   12.296804    ( 0.0000,  0.0000,  0.0000)
  12 Pt     1.406500    2.436129   12.296804    ( 0.0000,  0.0000,  0.0000)
  13 Pt     4.219499    2.436129   12.296804    ( 0.0000,  0.0000,  0.0000)
  14 Pt     7.032498    2.436129   12.296804    ( 0.0000,  0.0000,  0.0000)
  15 Ru     2.812999    4.872257   12.296804    ( 0.0000,  0.0000,  0.0000)
  16 Pt     5.625998    4.872257   12.296804    ( 0.0000,  0.0000,  0.0000)
  17 Ir     8.438997    4.872257   12.296804    ( 0.0000,  0.0000,  0.0000)
  18 Pt     1.332221    0.738853   14.656974    ( 0.0000,  0.0000,  0.0000)
  19 Ag     4.180328    0.789180   14.647143    ( 0.0000,  0.0000,  0.0000)
  20 Pd     7.000852    0.857850   14.622630    ( 0.0000,  0.0000,  0.0000)
  21 Ag     2.800161    3.197266   14.643636    ( 0.0000,  0.0000,  0.0000)
  22 Ru     5.662309    3.375417   14.465945    ( 0.0000,  0.0000,  0.0000)
  23 Pd     8.449310    3.205398   14.574023    ( 0.0000,  0.0000,  0.0000)
  24 Ir     4.208469    5.609227   14.570510    ( 0.0000,  0.0000,  0.0000)
  25 Ir     7.025602    5.574973   14.566923    ( 0.0000,  0.0000,  0.0000)
  26 Pt     9.856969    5.664976   14.597960    ( 0.0000,  0.0000,  0.0000)
  27 Ir    -0.075951    1.506223   16.935204    ( 0.0000,  0.0000,  0.0000)
  28 Pd     2.747480    1.590987   16.986049    ( 0.0000,  0.0000,  0.0000)
  29 Ag     5.529806    1.590232   16.917904    ( 0.0000,  0.0000,  0.0000)
  30 Pd     1.402245    4.031446   16.970908    ( 0.0000,  0.0000,  0.0000)
  31 Pd     4.186608    4.101495   16.895810    ( 0.0000,  0.0000,  0.0000)
  32 Pd     7.015169    3.971478   16.740829    ( 0.0000,  0.0000,  0.0000)
  33 Ru     2.834143    6.540842   16.759212    ( 0.0000,  0.0000,  0.0000)
  34 Pd     5.662320    6.454282   16.792696    ( 0.0000,  0.0000,  0.0000)
  35 Ir     8.572739    6.383732   16.941753    ( 0.0000,  0.0000,  0.0000)
  36 Ir     0.083557   -0.036935   18.968292    ( 0.0000,  0.0000,  0.0000)
  37 Pt     2.789788   -0.105428   19.131817    ( 0.0000,  0.0000,  0.0000)
  38 Ag     5.649551   -0.002294   19.292893    ( 0.0000,  0.0000,  0.0000)
  39 Pd     1.348574    2.373937   19.278766    ( 0.0000,  0.0000,  0.0000)
  40 Pd     4.312003    2.528296   19.254596    ( 0.0000,  0.0000,  0.0000)
  41 Ir     7.178070    2.528002   19.017371    ( 0.0000,  0.0000,  0.0000)
  42 Ag     2.810197    4.884422   19.379978    ( 0.0000,  0.0000,  0.0000)
  43 Ir     5.702799    4.911536   19.041207    ( 0.0000,  0.0000,  0.0000)
  44 Ir     8.261866    4.830347   18.989730    ( 0.0000,  0.0000,  0.0000)
  45 O      5.701165    0.058463   21.554052    ( 0.0000,  0.0000,  0.0000)
  46 H      6.269835    0.620620   21.774599    ( 0.0000,  0.0000,  0.0000)

Unit cell:
           periodic     x           y           z      points  spacing
  1. axis:    yes    8.465341    0.000000    0.000000    35     0.2095
  2. axis:    yes    4.232670    7.331200    0.000000    35     0.2095
  3. axis:    no     0.000000    0.000000   29.187217   135     0.2162

  Lengths:   8.465341   8.465341  29.187217
  Angles:   90.000000  90.000000  60.000000

Effective grid spacing dv^(1/3) = 0.2221

                     log10-error:    total        iterations:
           time      wfs    density  energy       fermi  poisson
iter:   1  15:18:02  -2.01   +inf  -251.490986    37            
iter:   2  15:19:10  -0.27  -1.56  -570.742309    38            
iter:   3  15:20:23  -0.83  -0.96  -258.686277    37            
iter:   4  15:21:33  -1.77  -1.57  -239.199225    36            
iter:   5  15:22:46  -2.98  -2.09  -237.856288    3             
iter:   6  15:23:58  -3.11  -2.35  -237.450303    3             
iter:   7  15:25:12  -3.52  -2.48  -237.405708    3             
iter:   8  15:26:24  -3.57  -2.52  -237.528995    3             
iter:   9  15:27:36  -4.41  -2.31  -237.216372    3             
iter:  10  15:28:48  -4.00  -2.83  -237.216585    3             
iter:  11  15:29:59  -3.71  -2.69  -237.161106    3             
iter:  12  15:31:10  -4.65  -2.92  -237.161853    3             
iter:  13  15:32:21  -5.04  -2.91  -237.145753    2             
iter:  14  15:33:33  -5.05  -3.14  -237.144063    2             
iter:  15  15:34:45  -4.74  -3.21  -237.152232    2             
iter:  16  15:35:56  -5.48  -3.14  -237.142662    2             
iter:  17  15:37:09  -5.89  -3.56  -237.143249    2             
iter:  18  15:38:21  -5.99  -3.44  -237.143323    2             
iter:  19  15:39:33  -6.32  -3.66  -237.143272    2             
iter:  20  15:40:46  -6.15  -3.57  -237.142551    2             
iter:  21  15:41:58  -6.53  -3.69  -237.143562    2             
iter:  22  15:43:12  -6.35  -3.73  -237.142581    2             
iter:  23  15:44:24  -6.45  -3.77  -237.142346    2             
iter:  24  15:45:37  -6.23  -3.86  -237.143258    2             
iter:  25  15:46:50  -6.67  -3.71  -237.142422    2             
iter:  26  15:48:03  -6.85  -4.05  -237.142487    2             
iter:  27  15:49:14  -6.63  -3.84  -237.143580    2             
iter:  28  15:50:28  -6.96  -3.91  -237.142691    2             
iter:  29  15:51:39  -7.10  -4.19  -237.142615    2             
iter:  30  15:52:52  -7.11  -4.23  -237.142849    2             
iter:  31  15:54:02  -7.25  -4.20  -237.142728    2             
iter:  32  15:55:13  -7.55  -4.10  -237.142636    2             

Converged after 32 iterations.

Dipole moment: (20.385840, 12.456645, -0.510944) |e|*Ang

Energy contributions relative to reference atoms: (reference = -12877860.274276)

Kinetic:       -213.323491
Potential:      +92.511031
External:        +0.000000
XC:            -108.187254
Entropy (-ST):   -2.302505
Local:           -6.991669
--------------------------
Free energy:   -238.293888
Extrapolated:  -237.142636

Fermi level: 0.82513

Showing only first 2 kpts
 Kpt  Band  Eigenvalues  Occupancy
  0   360      0.81777    0.12960
  0   361      0.85145    0.10865
  0   362      0.86308    0.10156
  0   363      0.88997    0.08584

  1   360      0.74310    0.17358
  1   361      0.75396    0.16769
  1   362      0.78592    0.14920
  1   363      0.82456    0.12536



Forces in eV/Ang:
  0 Pd   -0.12235    0.32985   -0.34961
  1 Ir    0.94642    0.69422    0.59923
  2 Ru   -1.08530    0.29132    0.69209
  3 Ru    0.42289    0.27303    1.60464
  4 Ir   -0.56606   -0.79863    1.18278
  5 Pt    0.15396    0.15751    0.05594
  6 Pd   -0.50015   -0.42253   -0.23993
  7 Pd    0.38687   -0.26376   -0.57266
  8 Ru    0.34091   -0.15483    0.55839
  9 Ag   -0.24867   -0.09652    0.06441
 10 Ag   -0.01810   -0.10896    0.06338
 11 Ag    0.08029   -0.16568   -0.13611
 12 Pt    0.08729    0.75827   -0.53069
 13 Pt    0.11621    0.54554   -0.72120
 14 Pt   -0.10489    0.19076   -0.17499
 15 Ru   -0.41286   -0.71295   -0.94138
 16 Pt   -0.41138    0.15279   -0.19069
 17 Ir    0.93409   -0.08766   -1.01441
 18 Pt   -0.01337    0.00128   -0.03400
 19 Ag   -0.00031   -0.03918    0.00561
 20 Pd   -0.01668   -0.03731   -0.00920
 21 Ag   -0.00452   -0.00488   -0.00201
 22 Ru    0.00056   -0.04703    0.04998
 23 Pd   -0.00143   -0.01877    0.00724
 24 Ir   -0.00275   -0.01508    0.04007
 25 Ir   -0.01188   -0.01647    0.01902
 26 Pt   -0.02346   -0.03814   -0.00895
 27 Ir    0.00661    0.01955    0.00155
 28 Pd    0.00956    0.01022   -0.02428
 29 Ag    0.01636    0.14712   -0.09781
 30 Pd    0.05443   -0.05866   -0.03507
 31 Pd    0.00879   -0.01861    0.00349
 32 Pd   -0.03271   -0.00726   -0.07202
 33 Ru    0.02594   -0.06201   -0.01225
 34 Pd   -0.00023   -0.05992   -0.07505
 35 Ir    0.01841   -0.01957   -0.07310
 36 Ir    0.00250   -0.06598   -0.01037
 37 Pt    0.01257   -0.02296   -0.05161
 38 Ag   -0.00697   -0.09105    1.14197
 39 Pd    0.01838   -0.03448    0.00158
 40 Pd    0.00527   -0.00248    0.02249
 41 Ir   -0.10460   -0.15246   -0.02977
 42 Ag   -0.01922   -0.00729    0.04510
 43 Ir   -0.12499   -0.03061   -0.04099
 44 Ir    0.11592    0.03925    0.05065
 45 O    -8.23798   -8.23849   -4.02399
 46 H     8.36959    8.28341    3.30620

System changes: positions 

Initializing position-dependent things.

Density initialized from wave functions
                                             
                                             
                                             
                                             
                                             
                                             
                                             
                                             
                  Ag O H Ir    Ir            
            Pd      Pd                       
                   Ru     PIr    Ir          
        Ir    Pt    PAg                      
                           Pd                
        Ir     Pd    IAg    Ir     Pt        
                                             
                Ag     Ru     Pd             
           Pt     Ag    PPd    Ir            
                                             
            Pt     Pt    PPt    Ru           
       Ag     Ag     Ag                      
              Ru    Ir     Pt                
         Pd    Ir     Ru                     
                                             
                                             
                                             
                                             
                                             

Positions:
   0 Pd     0.000000    1.624086   10.000000    ( 0.0000,  0.0000,  0.0000)
   1 Ir     2.812999    1.624086   10.000000    ( 0.0000,  0.0000,  0.0000)
   2 Ru     5.625998    1.624086   10.000000    ( 0.0000,  0.0000,  0.0000)
   3 Ru     1.406500    4.060215   10.000000    ( 0.0000,  0.0000,  0.0000)
   4 Ir     4.219499    4.060215   10.000000    ( 0.0000,  0.0000,  0.0000)
   5 Pt     7.032498    4.060215   10.000000    ( 0.0000,  0.0000,  0.0000)
   6 Pd     2.812999    6.496343   10.000000    ( 0.0000,  0.0000,  0.0000)
   7 Pd     5.625998    6.496343   10.000000    ( 0.0000,  0.0000,  0.0000)
   8 Ru     8.438997    6.496343   10.000000    ( 0.0000,  0.0000,  0.0000)
   9 Ag     0.000000    0.000000   12.296804    ( 0.0000,  0.0000,  0.0000)
  10 Ag     2.812999    0.000000   12.296804    ( 0.0000,  0.0000,  0.0000)
  11 Ag     5.625998    0.000000   12.296804    ( 0.0000,  0.0000,  0.0000)
  12 Pt     1.406500    2.436129   12.296804    ( 0.0000,  0.0000,  0.0000)
  13 Pt     4.219499    2.436129   12.296804    ( 0.0000,  0.0000,  0.0000)
  14 Pt     7.032498    2.436129   12.296804    ( 0.0000,  0.0000,  0.0000)
  15 Ru     2.812999    4.872257   12.296804    ( 0.0000,  0.0000,  0.0000)
  16 Pt     5.625998    4.872257   12.296804    ( 0.0000,  0.0000,  0.0000)
  17 Ir     8.438997    4.872257   12.296804    ( 0.0000,  0.0000,  0.0000)
  18 Pt     1.331323    0.739276   14.657224    ( 0.0000,  0.0000,  0.0000)
  19 Ag     4.181377    0.792965   14.645811    ( 0.0000,  0.0000,  0.0000)
  20 Pd     7.001448    0.861379   14.620780    ( 0.0000,  0.0000,  0.0000)
  21 Ag     2.800712    3.198361   14.645538    ( 0.0000,  0.0000,  0.0000)
  22 Ru     5.661534    3.374977   14.464831    ( 0.0000,  0.0000,  0.0000)
  23 Pd     8.453404    3.208367   14.569928    ( 0.0000,  0.0000,  0.0000)
  24 Ir     4.204292    5.612731   14.569284    ( 0.0000,  0.0000,  0.0000)
  25 Ir     7.030689    5.577461   14.562368    ( 0.0000,  0.0000,  0.0000)
  26 Pt     9.857552    5.665710   14.597133    ( 0.0000,  0.0000,  0.0000)
  27 Ir    -0.077419    1.506659   16.938117    ( 0.0000,  0.0000,  0.0000)
  28 Pd     2.746889    1.592688   16.990358    ( 0.0000,  0.0000,  0.0000)
  29 Ag     5.531854    1.594088   16.918111    ( 0.0000,  0.0000,  0.0000)
  30 Pd     1.401686    4.031344   16.972853    ( 0.0000,  0.0000,  0.0000)
  31 Pd     4.186166    4.106204   16.892983    ( 0.0000,  0.0000,  0.0000)
  32 Pd     7.008949    3.969897   16.737303    ( 0.0000,  0.0000,  0.0000)
  33 Ru     2.843162    6.540980   16.754674    ( 0.0000,  0.0000,  0.0000)
  34 Pd     5.662245    6.450869   16.794071    ( 0.0000,  0.0000,  0.0000)
  35 Ir     8.556355    6.379376   16.924431    ( 0.0000,  0.0000,  0.0000)
  36 Ir     0.066064   -0.030984   18.979119    ( 0.0000,  0.0000,  0.0000)
  37 Pt     2.800062   -0.098650   19.139589    ( 0.0000,  0.0000,  0.0000)
  38 Ag     5.659041    0.010123   19.384854    ( 0.0000,  0.0000,  0.0000)
  39 Pd     1.349764    2.376307   19.278931    ( 0.0000,  0.0000,  0.0000)
  40 Pd     4.314640    2.520353   19.255787    ( 0.0000,  0.0000,  0.0000)
  41 Ir     7.174536    2.516537   19.018220    ( 0.0000,  0.0000,  0.0000)
  42 Ag     2.809805    4.891626   19.379544    ( 0.0000,  0.0000,  0.0000)
  43 Ir     5.700720    4.913464   19.039696    ( 0.0000,  0.0000,  0.0000)
  44 Ir     8.275568    4.845510   18.998340    ( 0.0000,  0.0000,  0.0000)
  45 O      5.668842    0.021660   21.434445    ( 0.0000,  0.0000,  0.0000)
  46 H      6.303398    0.654979   21.800369    ( 0.0000,  0.0000,  0.0000)

Unit cell:
           periodic     x           y           z      points  spacing
  1. axis:    yes    8.465341    0.000000    0.000000    35     0.2095
  2. axis:    yes    4.232670    7.331200    0.000000    35     0.2095
  3. axis:    no     0.000000    0.000000   29.187217   135     0.2162

  Lengths:   8.465341   8.465341  29.187217
  Angles:   90.000000  90.000000  60.000000

Effective grid spacing dv^(1/3) = 0.2221

                     log10-error:    total        iterations:
           time      wfs    density  energy       fermi  poisson
iter:   1  15:56:58  -1.99   +inf  -247.543092    37            
iter:   2  15:58:11  -0.92  -1.70  -453.737761    37            
iter:   3  15:59:28  -1.43  -1.09  -245.247978    35            
iter:   4  16:00:44  -2.33  -1.76  -238.601078    4             
iter:   5  16:02:00  -3.34  -2.46  -238.489811    3             
iter:   6  16:03:15  -3.64  -2.45  -238.212044    3             
iter:   7  16:04:32  -3.58  -2.66  -238.094831    3             
iter:   8  16:05:48  -4.07  -2.76  -238.056928    3             
iter:   9  16:07:04  -4.32  -2.86  -238.138235    3             
iter:  10  16:08:19  -4.05  -2.58  -238.180846    3             
iter:  11  16:09:33  -3.82  -2.52  -238.011574    3             
iter:  12  16:10:46  -4.86  -3.22  -238.016713    2             
iter:  13  16:12:02  -5.48  -3.03  -238.009349    2             
iter:  14  16:13:19  -5.36  -3.13  -238.006456    2             
iter:  15  16:14:36  -5.53  -3.27  -238.003817    2             
iter:  16  16:15:52  -5.81  -3.41  -238.004456    2             
iter:  17  16:17:09  -5.32  -3.32  -238.007514    2             
iter:  18  16:18:24  -6.21  -3.36  -238.004330    2             
iter:  19  16:19:39  -6.18  -3.73  -238.005271    2             
iter:  20  16:20:53  -6.06  -3.51  -238.006683    2             
iter:  21  16:22:07  -5.98  -3.45  -238.004241    2             
iter:  22  16:23:37  -6.34  -3.78  -238.003305    2             
iter:  23  16:25:07  -6.99  -4.01  -238.003655    2             
iter:  24  16:26:36  -6.57  -3.98  -238.003466    2             
iter:  25  16:28:05  -7.09  -3.80  -238.003133    2             
iter:  26  16:29:35  -7.64  -4.23  -238.003383    2             

Converged after 26 iterations.

Dipole moment: (22.350022, 13.822107, -0.333181) |e|*Ang

Energy contributions relative to reference atoms: (reference = -12877860.274276)

Kinetic:       -222.817545
Potential:      +98.908594
External:        +0.000000
XC:            -105.998737
Entropy (-ST):   -2.302839
Local:           -6.944276
--------------------------
Free energy:   -239.154803
Extrapolated:  -238.003383

Fermi level: 0.90420

Showing only first 2 kpts
 Kpt  Band  Eigenvalues  Occupancy
  0   360      0.89690    0.12956
  0   361      0.93039    0.10873
  0   362      0.94222    0.10152
  0   363      0.97108    0.08469

  1   360      0.81866    0.17543
  1   361      0.83355    0.16741
  1   362      0.86560    0.14883
  1   363      0.90084    0.12710



Forces in eV/Ang:
  0 Pd   -0.12276    0.32583   -0.35810
  1 Ir    0.94310    0.69252    0.58838
  2 Ru   -1.08268    0.29031    0.68319
  3 Ru    0.42247    0.27549    1.59679
  4 Ir   -0.56756   -0.79854    1.16867
  5 Pt    0.15501    0.15598    0.04666
  6 Pd   -0.49513   -0.42044   -0.24799
  7 Pd    0.38305   -0.26091   -0.57912
  8 Ru    0.34366   -0.15705    0.54891
  9 Ag   -0.24643   -0.09453    0.05339
 10 Ag   -0.02195   -0.10547    0.05411
 11 Ag    0.08269   -0.16586   -0.12639
 12 Pt    0.09568    0.76075   -0.54348
 13 Pt    0.11395    0.55527   -0.72238
 14 Pt   -0.10512    0.19643   -0.18476
 15 Ru   -0.40384   -0.71447   -0.94599
 16 Pt   -0.41914    0.15313   -0.19909
 17 Ir    0.92932   -0.08833   -1.03309
 18 Pt    0.00092   -0.00402   -0.01091
 19 Ag   -0.00679   -0.04282    0.01567
 20 Pd   -0.01311   -0.04051    0.00831
 21 Ag   -0.00724   -0.01071   -0.01108
 22 Ru    0.00723   -0.01692    0.02785
 23 Pd   -0.03730   -0.03038    0.04766
 24 Ir    0.02984   -0.03149    0.02339
 25 Ir   -0.03989   -0.02553    0.05982
 26 Pt   -0.01167   -0.02004    0.00592
 27 Ir    0.02033    0.00689   -0.03673
 28 Pd    0.00923   -0.00237   -0.05504
 29 Ag   -0.02361   -0.00009   -0.02780
 30 Pd    0.02280   -0.02922   -0.04179
 31 Pd    0.00148   -0.05623    0.02685
 32 Pd    0.05323    0.01247    0.00503
 33 Ru   -0.07069   -0.01870    0.02812
 34 Pd    0.00439    0.01678   -0.03762
 35 Ir    0.14797    0.04218    0.13751
 36 Ir    0.18722   -0.07041   -0.11477
 37 Pt   -0.08104   -0.05850   -0.05426
 38 Ag   -0.12245   -0.16584   -0.48059
 39 Pd    0.01050   -0.02908    0.00358
 40 Pd   -0.04278    0.07554   -0.00782
 41 Ir    0.01616    0.08632   -0.04222
 42 Ag   -0.01116   -0.07525    0.02915
 43 Ir   -0.01358   -0.02815    0.00398
 44 Ir   -0.09473   -0.12664   -0.03327
 45 O    -0.53762   -0.52602    0.14127
 46 H     0.58174    0.57358    0.28565

System changes: positions 

Initializing position-dependent things.

Density initialized from wave functions
                                             
                                             
                                             
                                             
                                             
                                             
                                             
                                             
                  Ag O H Ir    Ir            
                    Pd                       
            Pd     Ru     PIr    Ir          
        Ir    Pt    PAg                      
                           Pd                
        Ir     Pd    IAg    Ir     Pt        
                                             
                Ag     Ru     Pd             
           Pt     Ag    PPd    Ir            
                                             
            Pt     Pt    PPt    Ru           
       Ag     Ag     Ag                      
              Ru    Ir     Pt                
         Pd    Ir     Ru                     
                                             
                                             
                                             
                                             
                                             

Positions:
   0 Pd     0.000000    1.624086   10.000000    ( 0.0000,  0.0000,  0.0000)
   1 Ir     2.812999    1.624086   10.000000    ( 0.0000,  0.0000,  0.0000)
   2 Ru     5.625998    1.624086   10.000000    ( 0.0000,  0.0000,  0.0000)
   3 Ru     1.406500    4.060215   10.000000    ( 0.0000,  0.0000,  0.0000)
   4 Ir     4.219499    4.060215   10.000000    ( 0.0000,  0.0000,  0.0000)
   5 Pt     7.032498    4.060215   10.000000    ( 0.0000,  0.0000,  0.0000)
   6 Pd     2.812999    6.496343   10.000000    ( 0.0000,  0.0000,  0.0000)
   7 Pd     5.625998    6.496343   10.000000    ( 0.0000,  0.0000,  0.0000)
   8 Ru     8.438997    6.496343   10.000000    ( 0.0000,  0.0000,  0.0000)
   9 Ag     0.000000    0.000000   12.296804    ( 0.0000,  0.0000,  0.0000)
  10 Ag     2.812999    0.000000   12.296804    ( 0.0000,  0.0000,  0.0000)
  11 Ag     5.625998    0.000000   12.296804    ( 0.0000,  0.0000,  0.0000)
  12 Pt     1.406500    2.436129   12.296804    ( 0.0000,  0.0000,  0.0000)
  13 Pt     4.219499    2.436129   12.296804    ( 0.0000,  0.0000,  0.0000)
  14 Pt     7.032498    2.436129   12.296804    ( 0.0000,  0.0000,  0.0000)
  15 Ru     2.812999    4.872257   12.296804    ( 0.0000,  0.0000,  0.0000)
  16 Pt     5.625998    4.872257   12.296804    ( 0.0000,  0.0000,  0.0000)
  17 Ir     8.438997    4.872257   12.296804    ( 0.0000,  0.0000,  0.0000)
  18 Pt     1.331842    0.738670   14.656007    ( 0.0000,  0.0000,  0.0000)
  19 Ag     4.180194    0.786856   14.648022    ( 0.0000,  0.0000,  0.0000)
  20 Pd     6.999845    0.855625   14.622496    ( 0.0000,  0.0000,  0.0000)
  21 Ag     2.799721    3.196763   14.643518    ( 0.0000,  0.0000,  0.0000)
  22 Ru     5.662630    3.373484   14.468163    ( 0.0000,  0.0000,  0.0000)
  23 Pd     8.447704    3.203898   14.576671    ( 0.0000,  0.0000,  0.0000)
  24 Ir     4.209281    5.607896   14.572221    ( 0.0000,  0.0000,  0.0000)
  25 Ir     7.024256    5.573709   14.570553    ( 0.0000,  0.0000,  0.0000)
  26 Pt     9.856101    5.663344   14.598121    ( 0.0000,  0.0000,  0.0000)
  27 Ir    -0.074676    1.507144   16.933036    ( 0.0000,  0.0000,  0.0000)
  28 Pd     2.748099    1.591641   16.982771    ( 0.0000,  0.0000,  0.0000)
  29 Ag     5.528504    1.592245   16.915216    ( 0.0000,  0.0000,  0.0000)
  30 Pd     1.404246    4.028453   16.967723    ( 0.0000,  0.0000,  0.0000)
  31 Pd     4.186526    4.098307   16.897029    ( 0.0000,  0.0000,  0.0000)
  32 Pd     7.017263    3.971904   16.739487    ( 0.0000,  0.0000,  0.0000)
  33 Ru     2.831760    6.539033   16.759661    ( 0.0000,  0.0000,  0.0000)
  34 Pd     5.662723    6.454181   16.789632    ( 0.0000,  0.0000,  0.0000)
  35 Ir     8.579036    6.385691   16.946505    ( 0.0000,  0.0000,  0.0000)
  36 Ir     0.093221   -0.040898   18.962422    ( 0.0000,  0.0000,  0.0000)
  37 Pt     2.787022   -0.107759   19.130433    ( 0.0000,  0.0000,  0.0000)
  38 Ag     5.642207   -0.012469   19.292762    ( 0.0000,  0.0000,  0.0000)
  39 Pd     1.350254    2.372254   19.279213    ( 0.0000,  0.0000,  0.0000)
  40 Pd     4.309081    2.531731   19.254435    ( 0.0000,  0.0000,  0.0000)
  41 Ir     7.177843    2.530675   19.013568    ( 0.0000,  0.0000,  0.0000)
  42 Ag     2.808868    4.880628   19.382683    ( 0.0000,  0.0000,  0.0000)
  43 Ir     5.700342    4.909715   19.040815    ( 0.0000,  0.0000,  0.0000)
  44 Ir     8.259520    4.825556   18.990897    ( 0.0000,  0.0000,  0.0000)
  45 O      5.630125   -0.013759   21.505547    ( 0.0000,  0.0000,  0.0000)
  46 H      6.345964    0.696346   21.816852    ( 0.0000,  0.0000,  0.0000)

Unit cell:
           periodic     x           y           z      points  spacing
  1. axis:    yes    8.465341    0.000000    0.000000    35     0.2095
  2. axis:    yes    4.232670    7.331200    0.000000    35     0.2095
  3. axis:    no     0.000000    0.000000   29.187217   135     0.2162

  Lengths:   8.465341   8.465341  29.187217
  Angles:   90.000000  90.000000  60.000000

Effective grid spacing dv^(1/3) = 0.2221

                     log10-error:    total        iterations:
           time      wfs    density  energy       fermi  poisson
iter:   1  16:31:44  -2.11   +inf  -239.853076    33            
iter:   2  16:33:13  -2.28  -2.11  -249.602975    4             
iter:   3  16:34:42  -2.46  -1.63  -241.985220    3             
iter:   4  16:36:11  -2.78  -1.84  -239.270835    3             
iter:   5  16:37:40  -3.27  -2.18  -238.077234    3             
iter:   6  16:39:09  -3.55  -2.64  -237.951930    3             
iter:   7  16:40:38  -4.61  -2.83  -237.936557    3             
iter:   8  16:42:08  -4.61  -2.94  -237.928159    3             
iter:   9  16:43:38  -4.10  -2.84  -238.045668    3             
iter:  10  16:45:07  -4.33  -2.54  -237.909960    2             
iter:  11  16:46:36  -4.64  -2.88  -237.899753    3             
iter:  12  16:48:06  -5.09  -3.15  -237.889972    3             
iter:  13  16:49:35  -5.83  -3.24  -237.887848    2             
iter:  14  16:51:04  -5.96  -3.50  -237.887936    2             
iter:  15  16:52:34  -5.17  -3.55  -237.889234    2             
iter:  16  16:54:03  -5.62  -3.54  -237.887524    2             
iter:  17  16:55:33  -5.67  -3.53  -237.890664    2             
iter:  18  16:56:47  -6.27  -3.48  -237.887455    2             
iter:  19  16:58:00  -6.57  -3.92  -237.888585    2             
iter:  20  16:59:12  -6.63  -3.66  -237.887789    2             
iter:  21  17:00:25  -6.87  -3.98  -237.887323    2             
iter:  22  17:01:37  -6.78  -4.01  -237.887109    2             
iter:  23  17:02:51  -7.20  -4.13  -237.887358    2             
iter:  24  17:04:09  -6.29  -4.20  -237.886920    2             
iter:  25  17:05:23  -6.86  -3.99  -237.887711    2             
iter:  26  17:06:36  -6.89  -3.96  -237.887067    2             
iter:  27  17:07:51  -7.73  -4.23  -237.886975    2             

Converged after 27 iterations.

Dipole moment: (23.029612, 18.001308, -0.437166) |e|*Ang

Energy contributions relative to reference atoms: (reference = -12877860.274276)

Kinetic:       -223.932054
Potential:      +99.328194
External:        +0.000000
XC:            -105.225806
Entropy (-ST):   -2.301613
Local:           -6.906502
--------------------------
Free energy:   -239.037781
Extrapolated:  -237.886975

Fermi level: 0.86048

Showing only first 2 kpts
 Kpt  Band  Eigenvalues  Occupancy
  0   360      0.85292    0.12972
  0   361      0.88672    0.10869
  0   362      0.90066    0.10022
  0   363      0.92710    0.08484

  1   360      0.77812    0.17375
  1   361      0.78947    0.16760
  1   362      0.82127    0.14920
  1   363      0.86054    0.12496



Forces in eV/Ang:
  0 Pd   -0.12153    0.32826   -0.35004
  1 Ir    0.94476    0.69267    0.59898
  2 Ru   -1.08517    0.29064    0.69660
  3 Ru    0.42149    0.27132    1.60464
  4 Ir   -0.56576   -0.79673    1.18599
  5 Pt    0.15526    0.15781    0.05449
  6 Pd   -0.49657   -0.42138   -0.23819
  7 Pd    0.38571   -0.26184   -0.57251
  8 Ru    0.33855   -0.15418    0.56313
  9 Ag   -0.24914   -0.10094    0.06275
 10 Ag   -0.01722   -0.11520    0.06587
 11 Ag    0.07844   -0.16851   -0.12838
 12 Pt    0.08092    0.75785   -0.52901
 13 Pt    0.11711    0.54038   -0.71751
 14 Pt   -0.10353    0.19077   -0.17153
 15 Ru   -0.41530   -0.70905   -0.93754
 16 Pt   -0.40487    0.14684   -0.17808
 17 Ir    0.93251   -0.08909   -1.00525
 18 Pt   -0.01137    0.00019   -0.04306
 19 Ag   -0.00803   -0.03984   -0.00822
 20 Pd   -0.00683   -0.03633   -0.01219
 21 Ag    0.00480   -0.00670   -0.01462
 22 Ru   -0.00630   -0.03548    0.02242
 23 Pd    0.01535   -0.01342   -0.03108
 24 Ir   -0.01193   -0.01506    0.02815
 25 Ir   -0.00410   -0.00818   -0.03583
 26 Pt   -0.03017   -0.03585   -0.01840
 27 Ir   -0.01214   -0.00113    0.01148
 28 Pd    0.00231   -0.01270    0.00171
 29 Ag    0.04450    0.13938   -0.06662
 30 Pd    0.02876   -0.03949   -0.01596
 31 Pd    0.01273    0.01305   -0.01241
 32 Pd   -0.04627    0.01180   -0.05807
 33 Ru    0.05455   -0.03717   -0.01017
 34 Pd    0.01811   -0.07806   -0.07637
 35 Ir   -0.02034   -0.06104   -0.12899
 36 Ir   -0.10010   -0.03507    0.06093
 37 Pt    0.05322   -0.00679    0.00516
 38 Ag    0.02042   -0.05437    0.98683
 39 Pd   -0.00467   -0.04918    0.00943
 40 Pd    0.03750   -0.05799    0.04132
 41 Ir   -0.11978   -0.23692    0.02319
 42 Ag   -0.01894    0.03075    0.07252
 43 Ir   -0.12147   -0.03210   -0.01699
 44 Ir    0.14720    0.07759    0.08611
 45 O     1.58728    1.67219    0.02095
 46 H    -1.65124   -1.64401   -0.71087

System changes: positions 

Initializing position-dependent things.

Density initialized from wave functions
                                             
                                             
                                             
                                             
                                             
                                             
                                             
                                             
                  Ag O H Ir    Ir            
            Pd      Pd                       
                   Ru     PIr    Ir          
        Ir    Pt    PAg                      
                           Pd                
        Ir     Pd    IAg    Ir     Pt        
                                             
                Ag     Ru     Pd             
           Pt     Ag    PPd    Ir            
                                             
            Pt     Pt    PPt    Ru           
       Ag     Ag     Ag                      
              Ru    Ir     Pt                
         Pd    Ir     Ru                     
                                             
                                             
                                             
                                             
                                             

Positions:
   0 Pd     0.000000    1.624086   10.000000    ( 0.0000,  0.0000,  0.0000)
   1 Ir     2.812999    1.624086   10.000000    ( 0.0000,  0.0000,  0.0000)
   2 Ru     5.625998    1.624086   10.000000    ( 0.0000,  0.0000,  0.0000)
   3 Ru     1.406500    4.060215   10.000000    ( 0.0000,  0.0000,  0.0000)
   4 Ir     4.219499    4.060215   10.000000    ( 0.0000,  0.0000,  0.0000)
   5 Pt     7.032498    4.060215   10.000000    ( 0.0000,  0.0000,  0.0000)
   6 Pd     2.812999    6.496343   10.000000    ( 0.0000,  0.0000,  0.0000)
   7 Pd     5.625998    6.496343   10.000000    ( 0.0000,  0.0000,  0.0000)
   8 Ru     8.438997    6.496343   10.000000    ( 0.0000,  0.0000,  0.0000)
   9 Ag     0.000000    0.000000   12.296804    ( 0.0000,  0.0000,  0.0000)
  10 Ag     2.812999    0.000000   12.296804    ( 0.0000,  0.0000,  0.0000)
  11 Ag     5.625998    0.000000   12.296804    ( 0.0000,  0.0000,  0.0000)
  12 Pt     1.406500    2.436129   12.296804    ( 0.0000,  0.0000,  0.0000)
  13 Pt     4.219499    2.436129   12.296804    ( 0.0000,  0.0000,  0.0000)
  14 Pt     7.032498    2.436129   12.296804    ( 0.0000,  0.0000,  0.0000)
  15 Ru     2.812999    4.872257   12.296804    ( 0.0000,  0.0000,  0.0000)
  16 Pt     5.625998    4.872257   12.296804    ( 0.0000,  0.0000,  0.0000)
  17 Ir     8.438997    4.872257   12.296804    ( 0.0000,  0.0000,  0.0000)
  18 Pt     1.331470    0.739104   14.656880    ( 0.0000,  0.0000,  0.0000)
  19 Ag     4.181042    0.791235   14.646437    ( 0.0000,  0.0000,  0.0000)
  20 Pd     7.000994    0.859749   14.621266    ( 0.0000,  0.0000,  0.0000)
  21 Ag     2.800431    3.197908   14.644966    ( 0.0000,  0.0000,  0.0000)
  22 Ru     5.661844    3.374554   14.465775    ( 0.0000,  0.0000,  0.0000)
  23 Pd     8.451790    3.207101   14.571838    ( 0.0000,  0.0000,  0.0000)
  24 Ir     4.205705    5.611362   14.570116    ( 0.0000,  0.0000,  0.0000)
  25 Ir     7.028867    5.576398   14.564686    ( 0.0000,  0.0000,  0.0000)
  26 Pt     9.857141    5.665040   14.597413    ( 0.0000,  0.0000,  0.0000)
  27 Ir    -0.076642    1.506796   16.936678    ( 0.0000,  0.0000,  0.0000)
  28 Pd     2.747232    1.592392   16.988209    ( 0.0000,  0.0000,  0.0000)
  29 Ag     5.530905    1.593566   16.917291    ( 0.0000,  0.0000,  0.0000)
  30 Pd     1.402411    4.030525   16.971400    ( 0.0000,  0.0000,  0.0000)
  31 Pd     4.186268    4.103968   16.894129    ( 0.0000,  0.0000,  0.0000)
  32 Pd     7.011304    3.970466   16.737921    ( 0.0000,  0.0000,  0.0000)
  33 Ru     2.839933    6.540429   16.756086    ( 0.0000,  0.0000,  0.0000)
  34 Pd     5.662381    6.451807   16.792814    ( 0.0000,  0.0000,  0.0000)
  35 Ir     8.562779    6.381165   16.930683    ( 0.0000,  0.0000,  0.0000)
  36 Ir     0.073755   -0.033792   18.974390    ( 0.0000,  0.0000,  0.0000)
  37 Pt     2.796369   -0.101230   19.136996    ( 0.0000,  0.0000,  0.0000)
  38 Ag     5.654273    0.003724   19.358771    ( 0.0000,  0.0000,  0.0000)
  39 Pd     1.349903    2.375159   19.279011    ( 0.0000,  0.0000,  0.0000)
  40 Pd     4.313066    2.523575   19.255404    ( 0.0000,  0.0000,  0.0000)
  41 Ir     7.175473    2.520541   19.016902    ( 0.0000,  0.0000,  0.0000)
  42 Ag     2.809539    4.888511   19.380433    ( 0.0000,  0.0000,  0.0000)
  43 Ir     5.700613    4.912403   19.040013    ( 0.0000,  0.0000,  0.0000)
  44 Ir     8.271023    4.839858   18.996232    ( 0.0000,  0.0000,  0.0000)
  45 O      5.657876    0.011628   21.454583    ( 0.0000,  0.0000,  0.0000)
  46 H      6.315454    0.666695   21.805038    ( 0.0000,  0.0000,  0.0000)

Unit cell:
           periodic     x           y           z      points  spacing
  1. axis:    yes    8.465341    0.000000    0.000000    35     0.2095
  2. axis:    yes    4.232670    7.331200    0.000000    35     0.2095
  3. axis:    no     0.000000    0.000000   29.187217   135     0.2162

  Lengths:   8.465341   8.465341  29.187217
  Angles:   90.000000  90.000000  60.000000

Effective grid spacing dv^(1/3) = 0.2221

                     log10-error:    total        iterations:
           time      wfs    density  energy       fermi  poisson
iter:   1  17:09:35  -2.49   +inf  -240.011174    3             
iter:   2  17:10:51  -2.08  -2.03  -254.741374    37            
iter:   3  17:12:04  -1.45  -1.60  -314.710908    36            
iter:   4  17:13:17  -2.08  -1.29  -240.953908    31            
iter:   5  17:14:29  -2.79  -1.97  -238.266670    3             
iter:   6  17:15:42  -3.73  -2.61  -238.213454    3             
iter:   7  17:16:54  -3.54  -2.61  -238.095817    3             
iter:   8  17:18:06  -4.30  -2.72  -238.126762    3             
iter:   9  17:19:18  -4.58  -2.69  -238.052528    3             
iter:  10  17:20:30  -4.91  -3.01  -238.038095    3             
iter:  11  17:21:43  -5.00  -3.25  -238.049793    2             
iter:  12  17:22:57  -5.04  -2.97  -238.035385    2             
iter:  13  17:24:10  -4.75  -3.33  -238.031051    2             
iter:  14  17:25:21  -5.61  -3.61  -238.029872    2             
iter:  15  17:26:35  -6.06  -3.58  -238.030984    2             
iter:  16  17:27:50  -6.15  -3.67  -238.029273    2             
iter:  17  17:29:05  -5.68  -3.70  -238.032797    2             
iter:  18  17:30:20  -5.83  -3.27  -238.031013    2             
iter:  19  17:31:35  -5.93  -3.55  -238.029151    2             
iter:  20  17:32:48  -6.83  -4.01  -238.029473    2             
iter:  21  17:34:01  -6.63  -4.03  -238.029895    2             
iter:  22  17:35:13  -6.80  -4.10  -238.029120    2             
iter:  23  17:36:23  -6.34  -4.04  -238.029798    2             
iter:  24  17:37:35  -6.87  -3.87  -238.029920    2             
iter:  25  17:38:47  -7.22  -4.12  -238.029438    2             
iter:  26  17:39:59  -7.90  -4.37  -238.029393    2             

Converged after 26 iterations.

Dipole moment: (22.530847, 15.004099, -0.368434) |e|*Ang

Energy contributions relative to reference atoms: (reference = -12877860.274276)

Kinetic:       -223.454223
Potential:      +99.221199
External:        +0.000000
XC:            -105.770992
Entropy (-ST):   -2.302399
Local:           -6.874178
--------------------------
Free energy:   -239.180592
Extrapolated:  -238.029393

Fermi level: 0.89069

Showing only first 2 kpts
 Kpt  Band  Eigenvalues  Occupancy
  0   360      0.88312    0.12973
  0   361      0.91691    0.10870
  0   362      0.92932    0.10115
  0   363      0.95756    0.08470

  1   360      0.80632    0.17481
  1   361      0.81958    0.16766
  1   362      0.85186    0.14897
  1   363      0.88821    0.12655



Forces in eV/Ang:
  0 Pd   -0.12264    0.32733   -0.35051
  1 Ir    0.94504    0.69170    0.59894
  2 Ru   -1.08432    0.29055    0.69345
  3 Ru    0.42156    0.27401    1.60267
  4 Ir   -0.56517   -0.79827    1.17866
  5 Pt    0.15421    0.15675    0.05378
  6 Pd   -0.49529   -0.42091   -0.23998
  7 Pd    0.38416   -0.26265   -0.57357
  8 Ru    0.34121   -0.15492    0.55857
  9 Ag   -0.24716   -0.09619    0.05642
 10 Ag   -0.02129   -0.10794    0.05862
 11 Ag    0.08206   -0.16582   -0.12489
 12 Pt    0.09128    0.75756   -0.53633
 13 Pt    0.11478    0.54958   -0.71824
 14 Pt   -0.10460    0.19328   -0.18018
 15 Ru   -0.40616   -0.71174   -0.94156
 16 Pt   -0.41504    0.15300   -0.19163
 17 Ir    0.92904   -0.08794   -1.02315
 18 Pt   -0.00151   -0.00300   -0.01943
 19 Ag   -0.00657   -0.04076    0.01133
 20 Pd   -0.01290   -0.03890    0.00503
 21 Ag   -0.00299   -0.01055   -0.00961
 22 Ru    0.00226   -0.02377    0.03096
 23 Pd   -0.02182   -0.02639    0.02691
 24 Ir    0.01832   -0.02674    0.02732
 25 Ir   -0.03020   -0.01915    0.03380
 26 Pt   -0.01635   -0.02340    0.00061
 27 Ir    0.00900    0.00648   -0.01672
 28 Pd    0.00908   -0.00502   -0.03513
 29 Ag   -0.00342    0.03721   -0.03462
 30 Pd    0.02444   -0.03217   -0.02498
 31 Pd    0.00566   -0.03783    0.02205
 32 Pd    0.02484    0.01184   -0.00061
 33 Ru   -0.03719   -0.02296    0.02721
 34 Pd    0.00803   -0.01084   -0.03764
 35 Ir    0.10454    0.01865    0.08168
 36 Ir    0.09089   -0.05402   -0.04969
 37 Pt   -0.06149   -0.04455   -0.07013
 38 Ag   -0.05794   -0.10941    0.02820
 39 Pd   -0.00075   -0.03654    0.00051
 40 Pd   -0.00628    0.03744    0.01189
 41 Ir   -0.03078   -0.02185    0.00242
 42 Ag   -0.00400   -0.04406    0.03610
 43 Ir   -0.04148   -0.03121   -0.01764
 44 Ir   -0.04069   -0.08831   -0.03860
 45 O     0.07438    0.13393    0.07642
 46 H    -0.13585   -0.14434   -0.10142

System changes: positions 

Initializing position-dependent things.

Density initialized from wave functions
                                             
                                             
                                             
                                             
                                             
                                             
                                             
                                             
                  Ag O H Ir    Ir            
            Pd      Pd                       
                   Ru     PIr    Ir          
        Ir    Pt    PAg    Pd                
                                             
        Ir     Pd    IAg    Ir     Pt        
                                             
                Ag     Ru     Pd             
           Pt     Ag    PPd    Ir            
                                             
            Pt     Pt    PPt    Ru           
       Ag     Ag     Ag                      
              Ru    Ir     Pt                
         Pd    Ir     Ru                     
                                             
                                             
                                             
                                             
                                             

Positions:
   0 Pd     0.000000    1.624086   10.000000    ( 0.0000,  0.0000,  0.0000)
   1 Ir     2.812999    1.624086   10.000000    ( 0.0000,  0.0000,  0.0000)
   2 Ru     5.625998    1.624086   10.000000    ( 0.0000,  0.0000,  0.0000)
   3 Ru     1.406500    4.060215   10.000000    ( 0.0000,  0.0000,  0.0000)
   4 Ir     4.219499    4.060215   10.000000    ( 0.0000,  0.0000,  0.0000)
   5 Pt     7.032498    4.060215   10.000000    ( 0.0000,  0.0000,  0.0000)
   6 Pd     2.812999    6.496343   10.000000    ( 0.0000,  0.0000,  0.0000)
   7 Pd     5.625998    6.496343   10.000000    ( 0.0000,  0.0000,  0.0000)
   8 Ru     8.438997    6.496343   10.000000    ( 0.0000,  0.0000,  0.0000)
   9 Ag     0.000000    0.000000   12.296804    ( 0.0000,  0.0000,  0.0000)
  10 Ag     2.812999    0.000000   12.296804    ( 0.0000,  0.0000,  0.0000)
  11 Ag     5.625998    0.000000   12.296804    ( 0.0000,  0.0000,  0.0000)
  12 Pt     1.406500    2.436129   12.296804    ( 0.0000,  0.0000,  0.0000)
  13 Pt     4.219499    2.436129   12.296804    ( 0.0000,  0.0000,  0.0000)
  14 Pt     7.032498    2.436129   12.296804    ( 0.0000,  0.0000,  0.0000)
  15 Ru     2.812999    4.872257   12.296804    ( 0.0000,  0.0000,  0.0000)
  16 Pt     5.625998    4.872257   12.296804    ( 0.0000,  0.0000,  0.0000)
  17 Ir     8.438997    4.872257   12.296804    ( 0.0000,  0.0000,  0.0000)
  18 Pt     1.331269    0.738761   14.654739    ( 0.0000,  0.0000,  0.0000)
  19 Ag     4.180334    0.786637   14.647759    ( 0.0000,  0.0000,  0.0000)
  20 Pd     6.999504    0.855362   14.621786    ( 0.0000,  0.0000,  0.0000)
  21 Ag     2.800044    3.196733   14.643936    ( 0.0000,  0.0000,  0.0000)
  22 Ru     5.662141    3.371822   14.469312    ( 0.0000,  0.0000,  0.0000)
  23 Pd     8.449233    3.204117   14.575086    ( 0.0000,  0.0000,  0.0000)
  24 Ir     4.207775    5.608361   14.573199    ( 0.0000,  0.0000,  0.0000)
  25 Ir     7.025484    5.574198   14.568807    ( 0.0000,  0.0000,  0.0000)
  26 Pt     9.855323    5.662376   14.597516    ( 0.0000,  0.0000,  0.0000)
  27 Ir    -0.075489    1.507602   16.934567    ( 0.0000,  0.0000,  0.0000)
  28 Pd     2.748268    1.591962   16.984016    ( 0.0000,  0.0000,  0.0000)
  29 Ag     5.530305    1.597619   16.913319    ( 0.0000,  0.0000,  0.0000)
  30 Pd     1.405240    4.026757   16.968296    ( 0.0000,  0.0000,  0.0000)
  31 Pd     4.186837    4.099508   16.896623    ( 0.0000,  0.0000,  0.0000)
  32 Pd     7.014285    3.971768   16.737695    ( 0.0000,  0.0000,  0.0000)
  33 Ru     2.835599    6.537790   16.759005    ( 0.0000,  0.0000,  0.0000)
  34 Pd     5.663266    6.450747   16.788452    ( 0.0000,  0.0000,  0.0000)
  35 Ir     8.574739    6.383463   16.940078    ( 0.0000,  0.0000,  0.0000)
  36 Ir     0.084910   -0.040048   18.968171    ( 0.0000,  0.0000,  0.0000)
  37 Pt     2.789479   -0.106265   19.129502    ( 0.0000,  0.0000,  0.0000)
  38 Ag     5.646993   -0.009312   19.360035    ( 0.0000,  0.0000,  0.0000)
  39 Pd     1.350087    2.371122   19.279135    ( 0.0000,  0.0000,  0.0000)
  40 Pd     4.311894    2.528092   19.256565    ( 0.0000,  0.0000,  0.0000)
  41 Ir     7.172367    2.518964   19.016498    ( 0.0000,  0.0000,  0.0000)
  42 Ag     2.808917    4.883274   19.384563    ( 0.0000,  0.0000,  0.0000)
  43 Ir     5.696022    4.908892   19.038181    ( 0.0000,  0.0000,  0.0000)
  44 Ir     8.266259    4.829820   18.992356    ( 0.0000,  0.0000,  0.0000)
  45 O      5.654110    0.013794   21.456293    ( 0.0000,  0.0000,  0.0000)
  46 H      6.313802    0.664099   21.801353    ( 0.0000,  0.0000,  0.0000)

Unit cell:
           periodic     x           y           z      points  spacing
  1. axis:    yes    8.465341    0.000000    0.000000    35     0.2095
  2. axis:    yes    4.232670    7.331200    0.000000    35     0.2095
  3. axis:    no     0.000000    0.000000   29.187217   135     0.2162

  Lengths:   8.465341   8.465341  29.187217
  Angles:   90.000000  90.000000  60.000000

Effective grid spacing dv^(1/3) = 0.2221

                     log10-error:    total        iterations:
           time      wfs    density  energy       fermi  poisson
iter:   1  17:41:41  -3.32   +inf  -238.073071    3             
iter:   2  17:42:53  -3.84  -2.92  -238.598999    3             
iter:   3  17:43:59  -3.89  -2.26  -238.119391    2             
iter:   4  17:45:08  -5.11  -2.70  -238.046029    2             
iter:   5  17:46:17  -5.50  -3.40  -238.042229    2             
iter:   6  17:47:28  -5.84  -3.45  -238.042252    2             
iter:   7  17:48:40  -5.53  -3.54  -238.040831    2             
iter:   8  17:49:51  -5.51  -3.59  -238.040766    2             
iter:   9  17:51:02  -6.06  -3.95  -238.040729    2             
iter:  10  17:52:31  -6.72  -4.04  -238.040881    2             
iter:  11  17:54:01  -6.90  -4.10  -238.040813    2             
iter:  12  17:55:31  -6.92  -3.98  -238.040788    2             
iter:  13  17:57:00  -6.88  -4.04  -238.040942    2             
iter:  14  17:58:30  -7.11  -4.30  -238.040856    2             
iter:  15  18:00:00  -7.58  -4.40  -238.040772    2             

Converged after 15 iterations.

Dipole moment: (22.209064, 15.731553, -0.369466) |e|*Ang

Energy contributions relative to reference atoms: (reference = -12877860.274276)

Kinetic:       -222.682699
Potential:      +98.598495
External:        +0.000000
XC:            -105.917441
Entropy (-ST):   -2.299574
Local:           -6.889339
--------------------------
Free energy:   -239.190559
Extrapolated:  -238.040772

Fermi level: 0.88986

Showing only first 2 kpts
 Kpt  Band  Eigenvalues  Occupancy
  0   360      0.88212    0.12984
  0   361      0.91707    0.10810
  0   362      0.92882    0.10095
  0   363      0.95724    0.08441

  1   360      0.80616    0.17446
  1   361      0.81853    0.16778
  1   362      0.85138    0.14876
  1   363      0.88890    0.12560



Forces in eV/Ang:
  0 Pd   -0.12252    0.32880   -0.35438
  1 Ir    0.94531    0.69378    0.59287
  2 Ru   -1.08413    0.29196    0.68952
  3 Ru    0.42157    0.27250    1.60228
  4 Ir   -0.56641   -0.79746    1.18198
  5 Pt    0.15593    0.15669    0.05139
  6 Pd   -0.49643   -0.42146   -0.24490
  7 Pd    0.38510   -0.26250   -0.57728
  8 Ru    0.33965   -0.15627    0.55650
  9 Ag   -0.24994   -0.10438    0.06053
 10 Ag   -0.01847   -0.11534    0.05978
 11 Ag    0.07971   -0.16626   -0.12670
 12 Pt    0.08516    0.76337   -0.53265
 13 Pt    0.11691    0.54807   -0.71290
 14 Pt   -0.10653    0.19701   -0.17047
 15 Ru   -0.40865   -0.71653   -0.93662
 16 Pt   -0.41049    0.13622   -0.16292
 17 Ir    0.92476   -0.09623   -1.01221
 18 Pt   -0.01053    0.00038   -0.01190
 19 Ag   -0.01054   -0.03197   -0.00083
 20 Pd    0.00309   -0.03440    0.00098
 21 Ag    0.00598   -0.00902   -0.02040
 22 Ru   -0.00542   -0.01076   -0.01851
 23 Pd   -0.00094   -0.01783   -0.01867
 24 Ir   -0.01220   -0.02019    0.00783
 25 Ir   -0.00244   -0.01780   -0.03194
 26 Pt   -0.01056   -0.03020   -0.00773
 27 Ir   -0.01257   -0.02183    0.01239
 28 Pd    0.00755   -0.01657   -0.00226
 29 Ag    0.01918    0.02095    0.00639
 30 Pd    0.01432   -0.01993    0.00140
 31 Pd   -0.01298    0.00185   -0.00053
 32 Pd    0.00610    0.00173    0.00836
 33 Ru    0.01346   -0.00407    0.02706
 34 Pd    0.00125   -0.02158   -0.04330
 35 Ir    0.06245   -0.00735    0.04821
 36 Ir   -0.04110   -0.04461   -0.03216
 37 Pt    0.02980   -0.04337   -0.02712
 38 Ag   -0.04500   -0.07228    0.04575
 39 Pd   -0.01058   -0.02447   -0.01391
 40 Pd   -0.00444   -0.03546   -0.00591
 41 Ir   -0.02054   -0.07268   -0.03200
 42 Ag   -0.02175   -0.01834    0.02714
 43 Ir   -0.02505   -0.01884   -0.01087
 44 Ir    0.00892   -0.02467    0.01171
 45 O    -0.00769    0.04065   -0.03345
 46 H    -0.03253   -0.04445   -0.05148

Timing:                                      incl.     excl.
-------------------------------------------------------------------
Density initialized from wave functions:    21.609    21.608   0.2% |
 Symmetrize density:                         0.000     0.000   0.0% |
Forces:                                    111.796   111.796   0.8% |
Hamiltonian:                                20.235     0.056   0.0% |
 Atomic:                                     4.850     2.841   0.0% |
  XC Correction:                             2.009     2.009   0.0% |
 Calculate atomic Hamiltonians:              6.201     6.201   0.0% |
 Communicate:                                3.296     3.296   0.0% |
 Initialize Hamiltonian:                     0.001     0.001   0.0% |
 Poisson:                                    0.034     0.034   0.0% |
 XC 3D grid:                                 5.796     5.796   0.0% |
LCAO initialization:                        50.398     4.937   0.0% |
 LCAO eigensolver:                           4.410     0.002   0.0% |
  Calculate projections:                     0.070     0.070   0.0% |
  DenseAtomicCorrection:                     0.038     0.038   0.0% |
  Distribute overlap matrix:                 0.471     0.471   0.0% |
  Orbital Layouts:                           0.479     0.479   0.0% |
  Potential matrix:                          3.321     3.321   0.0% |
  Sum over cells:                            0.030     0.030   0.0% |
 LCAO to grid:                              38.976    38.976   0.3% |
 Set positions (LCAO WFS):                   2.076     0.523   0.0% |
  Basic WFS set positions:                   0.003     0.003   0.0% |
  Basis functions set positions:             0.001     0.001   0.0% |
  P tci:                                     0.689     0.689   0.0% |
  ST tci:                                    0.631     0.631   0.0% |
  mktci:                                     0.231     0.231   0.0% |
PWDescriptor:                                0.046     0.046   0.0% |
Redistribute:                                0.032     0.032   0.0% |
SCF-cycle:                               13446.323  1453.039  10.5% |---|
 Davidson:                               10819.605  2378.919  17.3% |------|
  Apply H:                                1971.458  1928.319  14.0% |-----|
   HMM T:                                   43.139    43.139   0.3% |
  Subspace diag:                          1565.254     0.059   0.0% |
   calc_h_matrix:                          965.732   283.634   2.1% ||
    Apply H:                               682.097   666.907   4.8% |-|
     HMM T:                                 15.190    15.190   0.1% |
   diagonalize:                             58.440    58.440   0.4% |
   rotate_psi:                             541.023   541.023   3.9% |-|
  calc. matrices:                         3358.720  2068.759  15.0% |-----|
   Apply H:                               1289.961  1262.005   9.2% |---|
    HMM T:                                  27.955    27.955   0.2% |
  diagonalize:                             489.024   489.024   3.5% ||
  rotate_psi:                             1056.231  1056.231   7.7% |--|
 Density:                                  632.566     0.011   0.0% |
  Atomic density matrices:                   3.070     3.070   0.0% |
  Mix:                                     212.480   212.480   1.5% ||
  Multipole moments:                         0.245     0.245   0.0% |
  Pseudo density:                          416.760   416.745   3.0% ||
   Symmetrize density:                       0.015     0.015   0.0% |
 Hamiltonian:                              506.996     1.687   0.0% |
  Atomic:                                  119.763    63.740   0.5% |
   XC Correction:                           56.023    56.023   0.4% |
  Calculate atomic Hamiltonians:           168.285   168.285   1.2% |
  Communicate:                              55.288    55.288   0.4% |
  Poisson:                                   0.785     0.785   0.0% |
  XC 3D grid:                              161.187   161.187   1.2% |
 Orthonormalize:                            34.117     0.003   0.0% |
  calc_s_matrix:                             4.406     4.406   0.0% |
  inverse-cholesky:                          1.524     1.524   0.0% |
  projections:                              19.391    19.391   0.1% |
  rotate_psi_s:                              8.792     8.792   0.1% |
Set symmetry:                                0.001     0.001   0.0% |
Other:                                     138.148   138.148   1.0% |
-------------------------------------------------------------------
Total:                                             13788.587 100.0%

Date: Thu Mar  3 18:00:20 2022
