
  ___ ___ ___ _ _ _  
 |   |   |_  | | | | 
 | | | | | . | | | | 
 |__ |  _|___|_____|  1.5.1
 |___|_|             

User:   clausen@node488.cluster
Date:   Fri Mar  4 00:37:44 2022
Arch:   x86_64
Pid:    44801
Python: 3.6.12
gpaw:   /software/kemi/gpaw/1.5.1/gpaw
_gpaw:  /software/kemi/gpaw/1.5.1/bin/gpaw-python
ase:    /software/kemi/ase/3.17.0/ase (version 3.17.0)
numpy:  /opt/rh/rh-python36/root/usr/lib64/python3.6/site-packages/numpy (version 1.13.1)
scipy:  /opt/rh/rh-python36/root/usr/lib64/python3.6/site-packages/scipy (version 0.19.1)
units:  Angstrom and eV
cores:  16

Input parameters:
  kpts: [4 4 1]
  mode: {ecut: 400.0,
         gammacentered: False,
         name: pw}
  xc: RPBE

System changes: positions, numbers, cell, pbc, initial_charges, initial_magmoms 

Initialize ...

Pd-setup:
  name: Palladium
  id: 6da19bfba079f22767af9506641940b9
  Z: 46
  valence: 16
  core: 30
  charge: 0.0
  file: /software/kemi/gpaw-setups/0.9.20000/Pd.RPBE.gz
  cutoffs: 1.19(comp), 2.38(filt), 2.28(core), lmax=2
  valence states:
                energy  radius
    5s(0.00)    -3.225   1.228
    4p(6.00)   -51.131   1.360
    5p(0.00)    -0.373   1.360
    4d(10.00)    -3.964   1.228
    *s          23.987   1.228
    *d          23.247   1.228

  Using partial waves for Pd as LCAO basis

Ag-setup:
  name: Silver
  id: c05e55bab2c3858b3f9398f6d75cb77c
  Z: 47
  valence: 17
  core: 30
  charge: 0.0
  file: /software/kemi/gpaw-setups/0.9.20000/Ag.RPBE.gz
  cutoffs: 1.25(comp), 2.35(filt), 2.19(core), lmax=2
  valence states:
                energy  radius
    5s(1.00)    -4.277   1.286
    4p(6.00)   -58.523   1.328
    5p(0.00)    -0.755   1.328
    4d(10.00)    -7.386   1.180
    *s          22.934   1.286
    *d          19.826   1.180

  Using partial waves for Ag as LCAO basis

Pt-setup:
  name: Platinum
  id: f04f522592575c47ad794f6b4a415b4b
  Z: 78
  valence: 16
  core: 62
  charge: 0.0
  file: /software/kemi/gpaw-setups/0.9.20000/Pt.RPBE.gz
  cutoffs: 1.29(comp), 2.26(filt), 2.26(core), lmax=2
  valence states:
                energy  radius
    6s(1.00)    -5.516   1.307
    5p(6.00)   -55.971   1.371
    6p(0.00)    -0.856   1.371
    5d(9.00)    -6.087   1.307
    *s          21.695   1.307
    *d          21.125   1.307

  Using partial waves for Pt as LCAO basis

Ru-setup:
  name: Ruthenium
  id: 76477906e28f51dc1b29884d53556fe9
  Z: 44
  valence: 16
  core: 28
  charge: 0.0
  file: /software/kemi/gpaw-setups/0.9.20000/Ru.RPBE.gz
  cutoffs: 1.23(comp), 2.16(filt), 1.30(core), lmax=2
  valence states:
                energy  radius
    4s(2.00)   -76.255   1.281
    5s(1.00)    -4.126   1.281
    4p(6.00)   -46.371   1.286
    5p(0.00)    -0.913   1.286
    4d(7.00)    -5.146   1.254
    *d          22.066   1.254

  Using partial waves for Ru as LCAO basis

O-setup:
  name: Oxygen
  id: 08071ca1eed670e7821b24b7eb4d558c
  Z: 8
  valence: 6
  core: 2
  charge: 0.0
  file: /software/kemi/gpaw-setups/0.9.20000/O.RPBE.gz
  cutoffs: 0.67(comp), 1.17(filt), 0.83(core), lmax=2
  valence states:
                energy  radius
    2s(2.00)   -24.041   0.688
    2p(4.00)    -8.984   0.598
    *s           3.170   0.688
    *p          18.228   0.598
    *d           0.000   0.619

  Using partial waves for O as LCAO basis

H-setup:
  name: Hydrogen
  id: ea3f9156a1dc40d47a60fdce8f8bd75d
  Z: 1
  valence: 1
  core: 0
  charge: 0.0
  file: /software/kemi/gpaw-setups/0.9.20000/H.RPBE.gz
  cutoffs: 0.48(comp), 0.85(filt), 0.53(core), lmax=2
  valence states:
                energy  radius
    1s(1.00)    -6.572   0.476
    *s          20.639   0.476
    *p           0.000   0.476

  Using partial waves for H as LCAO basis

Reference energy: -9073466.092496

Spin-paired calculation

Occupation numbers:
  Fermi-Dirac: width=0.1000 eV

Convergence criteria:
  Maximum total energy change: 0.0005 eV / electron
  Maximum integral of absolute density change: 0.0001 electrons
  Maximum integral of absolute eigenstate change: 4e-08 eV^2
  Maximum number of iterations: 333

Symmetries present (total): 1

  ( 1  0  0)
  ( 0  1  0)
  ( 0  0  1)

16 k-points: 4 x 4 x 1 Monkhorst-Pack grid
8 k-points in the irreducible part of the Brillouin zone
       k-points in crystal coordinates                weights
   0:     0.12500000   -0.37500000    0.00000000          2/16
   1:     0.12500000   -0.12500000    0.00000000          2/16
   2:     0.12500000    0.12500000    0.00000000          2/16
   3:     0.12500000    0.37500000    0.00000000          2/16
   4:     0.37500000   -0.37500000    0.00000000          2/16
   5:     0.37500000   -0.12500000    0.00000000          2/16
   6:     0.37500000    0.12500000    0.00000000          2/16
   7:     0.37500000    0.37500000    0.00000000          2/16

Wave functions: Plane wave expansion
  Cutoff energy: 400.000 eV
  Number of coefficients (min, max): 32266, 32339
  Pulay-stress correction: 0.000000 eV/Ang^3 (de/decut=0.000000)
  Using FFTW library
  ScaLapack parameters: grid=1x1, blocksize=None
  Wavefunction extrapolation:
    Improved wavefunction reuse through dual PAW basis 

Eigensolver
   Davidson(niter=2, smin=None, normalize=True) 

Densities:
  Coarse grid: 35*35*135 grid
  Fine grid: 70*70*270 grid
  Total Charge: 0.000000 

Density mixing:
  Method: separate
  Backend: pulay
  Linear mixing parameter: 0.05
  Mixing with 5 old densities
  Damping of long wave oscillations: 50 

Hamiltonian:
  XC and Coulomb potentials evaluated on a 70*70*270 grid
  Using the RPBE Exchange-Correlation functional
 

XC parameters: RPBE with 2 nearest neighbor stencil

Memory estimate:
  Process memory now: 146.07 MiB
  Calculator: 552.99 MiB
    Density: 51.61 MiB
      Arrays: 16.41 MiB
      Localized functions: 28.84 MiB
      Mixer: 6.36 MiB
    Hamiltonian: 11.64 MiB
      Arrays: 10.73 MiB
      XC: 0.00 MiB
      Poisson: 0.00 MiB
      vbar: 0.91 MiB
    Wavefunctions: 489.75 MiB
      Arrays psit_nG: 221.07 MiB
      Eigensolver: 254.17 MiB
      Projections: 2.83 MiB
      Projectors: 5.06 MiB
      PW-descriptor: 6.62 MiB

Total number of cores used: 16
Parallelization over k-points: 8
Domain decomposition: 1 x 1 x 2

Number of atoms: 47
Number of atomic orbitals: 552
Number of bands in calculation: 448
Bands to converge: occupied states only
Number of valence electrons: 739

... initialized

Initializing position-dependent things.

Density initialized from atomic densities
Creating initial wave functions:
  448 bands from LCAO basis set

                                             
                                             
                                             
                                             
                                             
                                             
                                             
                                             
                HPt      Pd    Ru            
              O                              
            Pt    APd    PPd    Ru           
        Pd           Pd                      
              Ru           Pt                
        Pt     Pd    PPd    Pd     Ag        
                                             
                Ag     Ag     Ag             
                                             
           Ag    PAg    APt    Pd            
                                             
            Pd     Ru     Ag     Pd          
       Ag    PRu    PRu    Pt                
                                             
        Pd     Ag     Pt                     
                                             
                                             
                                             
                                             
                                             

Positions:
   0 Pd     0.000000    1.633958   10.000000    ( 0.0000,  0.0000,  0.0000)
   1 Ag     2.830098    1.633958   10.000000    ( 0.0000,  0.0000,  0.0000)
   2 Pt     5.660196    1.633958   10.000000    ( 0.0000,  0.0000,  0.0000)
   3 Pd     1.415049    4.084895   10.000000    ( 0.0000,  0.0000,  0.0000)
   4 Pd     4.245147    4.084895   10.000000    ( 0.0000,  0.0000,  0.0000)
   5 Pt     7.075245    4.084895   10.000000    ( 0.0000,  0.0000,  0.0000)
   6 Pd     2.830098    6.535832   10.000000    ( 0.0000,  0.0000,  0.0000)
   7 Ag     5.660196    6.535832   10.000000    ( 0.0000,  0.0000,  0.0000)
   8 Pd     8.490294    6.535832   10.000000    ( 0.0000,  0.0000,  0.0000)
   9 Ag     0.000000    0.000000   12.310765    ( 0.0000,  0.0000,  0.0000)
  10 Ru     2.830098    0.000000   12.310765    ( 0.0000,  0.0000,  0.0000)
  11 Ru     5.660196    0.000000   12.310765    ( 0.0000,  0.0000,  0.0000)
  12 Pd     1.415049    2.450937   12.310765    ( 0.0000,  0.0000,  0.0000)
  13 Ru     4.245147    2.450937   12.310765    ( 0.0000,  0.0000,  0.0000)
  14 Ag     7.075245    2.450937   12.310765    ( 0.0000,  0.0000,  0.0000)
  15 Pd     2.830098    4.901874   12.310765    ( 0.0000,  0.0000,  0.0000)
  16 Ag     5.660196    4.901874   12.310765    ( 0.0000,  0.0000,  0.0000)
  17 Pd     8.490294    4.901874   12.310765    ( 0.0000,  0.0000,  0.0000)
  18 Ag     1.422839    0.836358   14.687202    ( 0.0000,  0.0000,  0.0000)
  19 Ag     4.228290    0.834029   14.668537    ( 0.0000,  0.0000,  0.0000)
  20 Pt     7.000876    0.833422   14.677349    ( 0.0000,  0.0000,  0.0000)
  21 Ag     2.849410    3.275055   14.697646    ( 0.0000,  0.0000,  0.0000)
  22 Ag     5.607020    3.276035   14.715763    ( 0.0000,  0.0000,  0.0000)
  23 Ag     8.407636    3.278571   14.701685    ( 0.0000,  0.0000,  0.0000)
  24 Pd     4.226650    5.664441   14.783889    ( 0.0000,  0.0000,  0.0000)
  25 Pd     7.021524    5.717496   14.695770    ( 0.0000,  0.0000,  0.0000)
  26 Ag     9.810161    5.688371   14.690489    ( 0.0000,  0.0000,  0.0000)
  27 Pt     0.030364    1.654579   17.054310    ( 0.0000,  0.0000,  0.0000)
  28 Pd     2.863636    1.668211   17.080253    ( 0.0000,  0.0000,  0.0000)
  29 Pd     5.584811    1.668389   17.077768    ( 0.0000,  0.0000,  0.0000)
  30 Pd     1.451673    4.084780   17.054426    ( 0.0000,  0.0000,  0.0000)
  31 Ru     4.287216    4.070209   17.299465    ( 0.0000,  0.0000,  0.0000)
  32 Pt     6.976254    4.091014   17.095978    ( 0.0000,  0.0000,  0.0000)
  33 Ag     2.791829    6.501265   17.070936    ( 0.0000,  0.0000,  0.0000)
  34 Pt     5.617052    6.449501   17.092744    ( 0.0000,  0.0000,  0.0000)
  35 Ru     8.289070    6.444709   17.186717    ( 0.0000,  0.0000,  0.0000)
  36 Pd     0.109969    0.038419   19.432145    ( 0.0000,  0.0000,  0.0000)
  37 Ru     2.913932   -0.060119   19.211827    ( 0.0000,  0.0000,  0.0000)
  38 Pd     5.607656    0.003198   19.432032    ( 0.0000,  0.0000,  0.0000)
  39 Pt     1.441354    2.458850   19.369405    ( 0.0000,  0.0000,  0.0000)
  40 Pd     4.211433    2.427374   19.463642    ( 0.0000,  0.0000,  0.0000)
  41 Pd     7.082631    2.483306   19.414916    ( 0.0000,  0.0000,  0.0000)
  42 Pt     2.814800    4.836018   19.384744    ( 0.0000,  0.0000,  0.0000)
  43 Pd     5.686541    4.887569   19.522731    ( 0.0000,  0.0000,  0.0000)
  44 Ru     8.428363    4.985817   19.203811    ( 0.0000,  0.0000,  0.0000)
  45 O      2.913932   -0.060119   21.522731    ( 0.0000,  0.0000,  0.0000)
  46 H      3.563932    0.589881   21.922731    ( 0.0000,  0.0000,  0.0000)

Unit cell:
           periodic     x           y           z      points  spacing
  1. axis:    yes    8.379498    0.000000    0.000000    35     0.2073
  2. axis:    yes    4.189749    7.256858    0.000000    35     0.2073
  3. axis:    no     0.000000    0.000000   29.243062   135     0.2166

  Lengths:   8.379498   8.379498  29.243062
  Angles:   90.000000  90.000000  60.000000

Effective grid spacing dv^(1/3) = 0.2207

                     log10-error:    total        iterations:
           time      wfs    density  energy       fermi  poisson
iter:   1  00:39:57  +0.50   +inf  -242.828226    2             
iter:   2  00:41:01  -1.07  -1.21  -213.323278    3             
iter:   3  00:42:05  -1.44  -1.32  -212.255496    36            
iter:   4  00:43:09  -1.35  -1.34  -274.835496    34            
iter:   5  00:44:14  -1.57  -1.20  -196.319053    36            
iter:   6  00:45:17  -1.76  -1.50  -189.576354    37            
iter:   7  00:46:21  -2.11  -1.67  -188.578320    37            
iter:   8  00:47:25  -3.13  -1.75  -187.671684    3             
iter:   9  00:48:29  -2.19  -1.77  -193.298481    4             
iter:  10  00:49:33  -2.45  -1.70  -188.663072    4             
iter:  11  00:50:38  -2.71  -1.85  -186.517463    3             
iter:  12  00:51:42  -3.11  -2.05  -186.167560    2             
iter:  13  00:52:46  -3.46  -2.17  -186.190000    3             
iter:  14  00:53:52  -3.67  -2.22  -186.134260    2             
iter:  15  00:54:56  -3.27  -2.26  -186.086946    3             
iter:  16  00:56:00  -3.33  -2.34  -185.811385    3             
iter:  17  00:57:03  -3.50  -2.55  -185.710352    2             
iter:  18  00:58:07  -4.13  -2.81  -185.702405    3             
iter:  19  00:59:11  -4.47  -2.89  -185.696159    3             
iter:  20  01:00:16  -4.65  -2.97  -185.694426    2             
iter:  21  01:01:22  -4.86  -3.00  -185.702717    2             
iter:  22  01:02:27  -5.12  -2.96  -185.694428    2             
iter:  23  01:03:31  -5.22  -3.13  -185.693497    2             
iter:  24  01:04:35  -5.24  -3.17  -185.695639    2             
iter:  25  01:05:40  -5.30  -3.23  -185.692655    2             
iter:  26  01:06:45  -5.42  -3.36  -185.694365    2             
iter:  27  01:07:50  -5.71  -3.24  -185.690171    2             
iter:  28  01:08:55  -5.82  -3.50  -185.691589    2             
iter:  29  01:10:00  -5.99  -3.56  -185.690980    2             
iter:  30  01:11:05  -5.98  -3.50  -185.690821    2             
iter:  31  01:12:09  -6.56  -3.68  -185.690746    2             
iter:  32  01:13:14  -6.81  -3.71  -185.690650    2             
iter:  33  01:14:18  -6.42  -3.67  -185.690037    2             
iter:  34  01:15:22  -6.41  -3.81  -185.691467    2             
iter:  35  01:16:27  -6.72  -3.73  -185.690485    2             
iter:  36  01:17:33  -6.97  -3.97  -185.690438    1             
iter:  37  01:18:38  -6.93  -4.00  -185.690576    2             
iter:  38  01:19:43  -6.93  -4.08  -185.690538    2             
iter:  39  01:20:48  -7.04  -4.18  -185.690174    2             
iter:  40  01:21:53  -7.51  -4.31  -185.690481    2             

Converged after 40 iterations.

Dipole moment: (26.729574, 24.559463, -0.338910) |e|*Ang

Energy contributions relative to reference atoms: (reference = -9073466.092496)

Kinetic:       -179.000769
Potential:      +31.984375
External:        +0.000000
XC:             -33.247853
Entropy (-ST):   -2.036272
Local:           -4.408097
--------------------------
Free energy:   -186.708617
Extrapolated:  -185.690481

Fermi level: 0.77304

Showing only first 2 kpts
 Kpt  Band  Eigenvalues  Occupancy
  0   367      0.74883    0.14006
  0   368      0.77090    0.12634
  0   369      0.80201    0.10702
  0   370      0.82574    0.09281

  1   367      0.64493    0.19566
  1   368      0.69181    0.17315
  1   369      0.71130    0.16241
  1   370      0.73565    0.14811



Forces in eV/Ang:
  0 Pd    0.08601    0.50951   -0.42046
  1 Ag    0.11429    0.48751   -0.50593
  2 Pt   -0.22380    0.51916    0.84184
  3 Pd    0.09039    0.03603   -0.07502
  4 Pd    0.12196   -0.37580    0.20486
  5 Pt   -0.13457   -0.29887   -0.08673
  6 Pd   -0.17536   -0.38429   -0.04843
  7 Ag   -0.12011   -0.45507   -0.70821
  8 Pd   -0.25028   -0.30321    0.28597
  9 Ag    0.51678    0.21627    0.43478
 10 Ru    2.20938    1.28157    0.39174
 11 Ru   -1.86281    0.88807   -0.35820
 12 Pd    1.12414   -0.24850    0.00872
 13 Ru   -0.53010   -1.49919   -0.87831
 14 Ag   -0.44663    0.12627    0.28792
 15 Pd    0.18349   -0.58216    0.07272
 16 Ag   -0.18237   -0.38179    0.33748
 17 Pd   -0.37219    0.54807   -0.02426
 18 Ag   -0.01808   -0.00425    0.01866
 19 Ag   -0.01244   -0.00969    0.02598
 20 Pt    0.00245   -0.04179   -0.02275
 21 Ag    0.00558    0.01573    0.02104
 22 Ag    0.01313   -0.00631    0.00466
 23 Ag   -0.01268    0.00061    0.02938
 24 Pd   -0.01771    0.00478   -0.00561
 25 Pd    0.02860    0.01027    0.08673
 26 Ag    0.00309   -0.01456    0.02456
 27 Pt    0.01553    0.02968    0.02045
 28 Pd   -0.02655   -0.13310    0.11200
 29 Pd    0.03147   -0.04092   -0.02900
 30 Pd   -0.05029   -0.01873    0.09880
 31 Ru    0.00084    0.00582    0.03676
 32 Pt    0.00752   -0.03596   -0.03031
 33 Ag   -0.00388    0.06877    0.02268
 34 Pt    0.10399    0.08314    0.04964
 35 Ru    0.01535    0.01399    0.07711
 36 Pd   -0.02706    0.01795    0.00660
 37 Ru   -0.26569    0.41752    2.21610
 38 Pd    0.13776   -0.02079   -0.05657
 39 Pt   -0.09877    0.09708    0.00426
 40 Pd   -0.00975    0.10927   -0.09570
 41 Pd   -0.02210   -0.00173    0.00421
 42 Pt   -0.01854   -0.03857   -0.07719
 43 Pd   -0.12702   -0.08347   -0.07259
 44 Ru    0.21121   -0.32434   -0.02026
 45 O     0.28965    0.22885   -1.80684
 46 H    -0.36149   -0.32812   -0.43816

System changes: positions 

Initializing position-dependent things.

Density initialized from wave functions
                                            
                                            
                                            
                                            
                                            
                                            
                                            
                H                           
              O  Pt     Pd     Ru           
            Pt     Pd     Pd                
       Pd     Ru  Ag Pd  Pt    Ru           
             Pd     Ru     Pt               
        Pt     Pd     Pd                    
                     Pd     Pd    Ag        
                                            
                Ag     Ag     Ag            
           Ag     Ag     Pt                 
                 Pd     Ag     Pd           
            Pd     Ru     Ag                
       Ag     Ru  Pd Ru  Ag     Pd          
             Pd     Pd     Pt               
        Pd     Ag     Pt                    
                                            
                                            
                                            
                                            
                                            

Positions:
   0 Pd     0.000000    1.633958   10.000000    ( 0.0000,  0.0000,  0.0000)
   1 Ag     2.830098    1.633958   10.000000    ( 0.0000,  0.0000,  0.0000)
   2 Pt     5.660196    1.633958   10.000000    ( 0.0000,  0.0000,  0.0000)
   3 Pd     1.415049    4.084895   10.000000    ( 0.0000,  0.0000,  0.0000)
   4 Pd     4.245147    4.084895   10.000000    ( 0.0000,  0.0000,  0.0000)
   5 Pt     7.075245    4.084895   10.000000    ( 0.0000,  0.0000,  0.0000)
   6 Pd     2.830098    6.535832   10.000000    ( 0.0000,  0.0000,  0.0000)
   7 Ag     5.660196    6.535832   10.000000    ( 0.0000,  0.0000,  0.0000)
   8 Pd     8.490294    6.535832   10.000000    ( 0.0000,  0.0000,  0.0000)
   9 Ag     0.000000    0.000000   12.310765    ( 0.0000,  0.0000,  0.0000)
  10 Ru     2.830098    0.000000   12.310765    ( 0.0000,  0.0000,  0.0000)
  11 Ru     5.660196    0.000000   12.310765    ( 0.0000,  0.0000,  0.0000)
  12 Pd     1.415049    2.450937   12.310765    ( 0.0000,  0.0000,  0.0000)
  13 Ru     4.245147    2.450937   12.310765    ( 0.0000,  0.0000,  0.0000)
  14 Ag     7.075245    2.450937   12.310765    ( 0.0000,  0.0000,  0.0000)
  15 Pd     2.830098    4.901874   12.310765    ( 0.0000,  0.0000,  0.0000)
  16 Ag     5.660196    4.901874   12.310765    ( 0.0000,  0.0000,  0.0000)
  17 Pd     8.490294    4.901874   12.310765    ( 0.0000,  0.0000,  0.0000)
  18 Ag     1.421246    0.835984   14.688846    ( 0.0000,  0.0000,  0.0000)
  19 Ag     4.227195    0.833176   14.670826    ( 0.0000,  0.0000,  0.0000)
  20 Pt     7.001092    0.829741   14.675345    ( 0.0000,  0.0000,  0.0000)
  21 Ag     2.849901    3.276440   14.699500    ( 0.0000,  0.0000,  0.0000)
  22 Ag     5.608176    3.275479   14.716173    ( 0.0000,  0.0000,  0.0000)
  23 Ag     8.406519    3.278625   14.704273    ( 0.0000,  0.0000,  0.0000)
  24 Pd     4.225090    5.664862   14.783395    ( 0.0000,  0.0000,  0.0000)
  25 Pd     7.024044    5.718401   14.703409    ( 0.0000,  0.0000,  0.0000)
  26 Ag     9.810433    5.687089   14.692653    ( 0.0000,  0.0000,  0.0000)
  27 Pt     0.031731    1.657193   17.056111    ( 0.0000,  0.0000,  0.0000)
  28 Pd     2.861298    1.656487   17.090117    ( 0.0000,  0.0000,  0.0000)
  29 Pd     5.587582    1.664785   17.075214    ( 0.0000,  0.0000,  0.0000)
  30 Pd     1.447243    4.083130   17.063128    ( 0.0000,  0.0000,  0.0000)
  31 Ru     4.287289    4.070722   17.302702    ( 0.0000,  0.0000,  0.0000)
  32 Pt     6.976917    4.087847   17.093309    ( 0.0000,  0.0000,  0.0000)
  33 Ag     2.791487    6.507322   17.072933    ( 0.0000,  0.0000,  0.0000)
  34 Pt     5.626211    6.456824   17.097116    ( 0.0000,  0.0000,  0.0000)
  35 Ru     8.290422    6.445941   17.193508    ( 0.0000,  0.0000,  0.0000)
  36 Pd     0.107585    0.040000   19.432727    ( 0.0000,  0.0000,  0.0000)
  37 Ru     2.890530   -0.023344   19.407019    ( 0.0000,  0.0000,  0.0000)
  38 Pd     5.619790    0.001367   19.427049    ( 0.0000,  0.0000,  0.0000)
  39 Pt     1.432654    2.467400   19.369780    ( 0.0000,  0.0000,  0.0000)
  40 Pd     4.210574    2.436998   19.455213    ( 0.0000,  0.0000,  0.0000)
  41 Pd     7.080684    2.483153   19.415286    ( 0.0000,  0.0000,  0.0000)
  42 Pt     2.813167    4.832621   19.377945    ( 0.0000,  0.0000,  0.0000)
  43 Pd     5.675353    4.880217   19.516337    ( 0.0000,  0.0000,  0.0000)
  44 Ru     8.446967    4.957249   19.202027    ( 0.0000,  0.0000,  0.0000)
  45 O      2.939444   -0.039962   21.363586    ( 0.0000,  0.0000,  0.0000)
  46 H      3.532092    0.560981   21.884138    ( 0.0000,  0.0000,  0.0000)

Unit cell:
           periodic     x           y           z      points  spacing
  1. axis:    yes    8.379498    0.000000    0.000000    35     0.2073
  2. axis:    yes    4.189749    7.256858    0.000000    35     0.2073
  3. axis:    no     0.000000    0.000000   29.243062   135     0.2166

  Lengths:   8.379498   8.379498  29.243062
  Angles:   90.000000  90.000000  60.000000

Effective grid spacing dv^(1/3) = 0.2207

                     log10-error:    total        iterations:
           time      wfs    density  energy       fermi  poisson
iter:   1  01:23:27  -1.79   +inf  -190.544749    4             
iter:   2  01:24:31  -1.97  -2.02  -189.514171    37            
iter:   3  01:25:35  -2.26  -1.99  -199.733433    3             
iter:   4  01:26:41  -2.46  -1.71  -189.352248    4             
iter:   5  01:27:46  -3.06  -1.94  -187.161701    3             
iter:   6  01:28:52  -3.96  -2.23  -186.609456    3             
iter:   7  01:29:57  -3.65  -2.40  -186.442773    2             
iter:   8  01:31:01  -4.13  -2.43  -186.216140    2             
iter:   9  01:32:07  -4.28  -2.78  -186.172503    3             
iter:  10  01:33:11  -4.19  -3.01  -186.185040    2             
iter:  11  01:34:16  -4.44  -2.82  -186.204935    2             
iter:  12  01:35:21  -4.43  -2.73  -186.157359    3             
iter:  13  01:36:26  -5.10  -3.06  -186.147632    2             
iter:  14  01:37:31  -5.09  -3.28  -186.147615    3             
iter:  15  01:38:35  -5.41  -3.15  -186.143814    2             
iter:  16  01:39:40  -5.94  -3.39  -186.144438    2             
iter:  17  01:40:45  -5.78  -3.40  -186.141573    2             
iter:  18  01:41:51  -5.60  -3.58  -186.140200    2             
iter:  19  01:42:57  -5.47  -3.67  -186.142236    2             
iter:  20  01:44:01  -5.91  -3.72  -186.141411    2             
iter:  21  01:45:06  -6.59  -3.77  -186.140947    2             
iter:  22  01:46:11  -6.40  -3.92  -186.142287    2             
iter:  23  01:47:16  -6.78  -3.78  -186.141294    2             
iter:  24  01:48:20  -6.88  -3.97  -186.141075    2             
iter:  25  01:49:25  -7.11  -3.85  -186.141387    2             
iter:  26  01:50:29  -6.90  -4.12  -186.141264    2             
iter:  27  01:51:35  -6.89  -4.11  -186.140739    2             
iter:  28  01:52:41  -6.75  -4.05  -186.141100    2             
iter:  29  01:53:47  -7.30  -4.43  -186.141032    2             
iter:  30  01:54:53  -7.53  -4.36  -186.140939    2             

Converged after 30 iterations.

Dipole moment: (25.551744, 21.685892, -0.059303) |e|*Ang

Energy contributions relative to reference atoms: (reference = -9073466.092496)

Kinetic:       -178.573921
Potential:      +31.353479
External:        +0.000000
XC:             -33.499379
Entropy (-ST):   -2.066254
Local:           -4.387992
--------------------------
Free energy:   -187.174066
Extrapolated:  -186.140939

Fermi level: 0.90040

Showing only first 2 kpts
 Kpt  Band  Eigenvalues  Occupancy
  0   367      0.87585    0.14027
  0   368      0.89961    0.12549
  0   369      0.91666    0.11486
  0   370      0.95562    0.09134

  1   367      0.77891    0.19279
  1   368      0.82733    0.16874
  1   369      0.83962    0.16186
  1   370      0.86008    0.14986



Forces in eV/Ang:
  0 Pd    0.09841    0.50655   -0.42876
  1 Ag    0.10395    0.49310   -0.51688
  2 Pt   -0.22873    0.51387    0.82904
  3 Pd    0.10361    0.03491   -0.08309
  4 Pd    0.10718   -0.36934    0.19737
  5 Pt   -0.12993   -0.29145   -0.09197
  6 Pd   -0.17002   -0.39560   -0.06060
  7 Ag   -0.12665   -0.45212   -0.71369
  8 Pd   -0.24649   -0.30624    0.27279
  9 Ag    0.52500    0.21720    0.42735
 10 Ru    2.19981    1.27795    0.41074
 11 Ru   -1.85946    0.87868   -0.34515
 12 Pd    1.11432   -0.24595    0.01842
 13 Ru   -0.53388   -1.48271   -0.86325
 14 Ag   -0.43397    0.13532    0.29321
 15 Pd    0.18371   -0.58792    0.09075
 16 Ag   -0.17770   -0.37926    0.36000
 17 Pd   -0.37727    0.54222   -0.00317
 18 Ag    0.00464    0.00902    0.01342
 19 Ag   -0.01712    0.00612    0.03601
 20 Pt   -0.00941   -0.01188   -0.04131
 21 Ag   -0.00109   -0.02011    0.04891
 22 Ag   -0.00234   -0.00363   -0.01945
 23 Ag    0.00824   -0.00396   -0.00958
 24 Pd    0.00662   -0.00672   -0.00431
 25 Pd    0.00020    0.01484    0.09296
 26 Ag   -0.01310   -0.01489    0.04571
 27 Pt   -0.00330   -0.02000   -0.01205
 28 Pd    0.00887   -0.21061    0.16371
 29 Pd   -0.02892   -0.03518   -0.01463
 30 Pd    0.03442   -0.01388   -0.06158
 31 Ru    0.01486   -0.02054   -0.05660
 32 Pt   -0.05032    0.06389   -0.01288
 33 Ag    0.03509    0.01367   -0.02549
 34 Pt    0.27775    0.07967    0.25148
 35 Ru   -0.27379    0.13775    0.75304
 36 Pd   -0.05155   -0.00453    0.00285
 37 Ru    0.17584    0.02051   -0.29783
 38 Pd   -0.00339    0.00707   -0.07005
 39 Pt   -0.11950    0.06351    0.01050
 40 Pd    0.07875    0.00093   -0.06186
 41 Pd   -0.08949   -0.00230    0.00138
 42 Pt    0.01214    0.06671   -0.02013
 43 Pd   -0.07645   -0.01504   -0.11359
 44 Ru    0.02713    0.01836   -0.13538
 45 O    -0.15109   -0.20196    0.17714
 46 H    -0.03201    0.02132   -0.36633

System changes: positions 

Initializing position-dependent things.

Density initialized from wave functions
                                             
                                             
                                             
                                             
                                             
                                             
                                             
                                             
                HPt     Pd     Ru            
            PtO   APd    PPd    Ru           
                                             
        Pd    Ru     Pd    Pt                
                                             
        Pt     Pd    PPd    Pd     Ag        
                Ag     Ag     Ag             
                                             
           Ag    PAg    APt    Pd            
                                             
            Pd     Ru     Ag     Pd          
       Ag     Ru     Ru                      
             Pd     Pd     Pt                
        Pd     Ag     Pt                     
                                             
                                             
                                             
                                             
                                             

Positions:
   0 Pd     0.000000    1.633958   10.000000    ( 0.0000,  0.0000,  0.0000)
   1 Ag     2.830098    1.633958   10.000000    ( 0.0000,  0.0000,  0.0000)
   2 Pt     5.660196    1.633958   10.000000    ( 0.0000,  0.0000,  0.0000)
   3 Pd     1.415049    4.084895   10.000000    ( 0.0000,  0.0000,  0.0000)
   4 Pd     4.245147    4.084895   10.000000    ( 0.0000,  0.0000,  0.0000)
   5 Pt     7.075245    4.084895   10.000000    ( 0.0000,  0.0000,  0.0000)
   6 Pd     2.830098    6.535832   10.000000    ( 0.0000,  0.0000,  0.0000)
   7 Ag     5.660196    6.535832   10.000000    ( 0.0000,  0.0000,  0.0000)
   8 Pd     8.490294    6.535832   10.000000    ( 0.0000,  0.0000,  0.0000)
   9 Ag     0.000000    0.000000   12.310765    ( 0.0000,  0.0000,  0.0000)
  10 Ru     2.830098    0.000000   12.310765    ( 0.0000,  0.0000,  0.0000)
  11 Ru     5.660196    0.000000   12.310765    ( 0.0000,  0.0000,  0.0000)
  12 Pd     1.415049    2.450937   12.310765    ( 0.0000,  0.0000,  0.0000)
  13 Ru     4.245147    2.450937   12.310765    ( 0.0000,  0.0000,  0.0000)
  14 Ag     7.075245    2.450937   12.310765    ( 0.0000,  0.0000,  0.0000)
  15 Pd     2.830098    4.901874   12.310765    ( 0.0000,  0.0000,  0.0000)
  16 Ag     5.660196    4.901874   12.310765    ( 0.0000,  0.0000,  0.0000)
  17 Pd     8.490294    4.901874   12.310765    ( 0.0000,  0.0000,  0.0000)
  18 Ag     1.421445    0.836766   14.690328    ( 0.0000,  0.0000,  0.0000)
  19 Ag     4.225450    0.833619   14.674494    ( 0.0000,  0.0000,  0.0000)
  20 Pt     7.000251    0.828106   14.671227    ( 0.0000,  0.0000,  0.0000)
  21 Ag     2.849872    3.274779   14.704300    ( 0.0000,  0.0000,  0.0000)
  22 Ag     5.608127    3.275062   14.714431    ( 0.0000,  0.0000,  0.0000)
  23 Ag     8.407120    3.278266   14.703762    ( 0.0000,  0.0000,  0.0000)
  24 Pd     4.225477    5.664300   14.782924    ( 0.0000,  0.0000,  0.0000)
  25 Pd     7.024429    5.719907   14.713131    ( 0.0000,  0.0000,  0.0000)
  26 Ag     9.809259    5.685523   14.697202    ( 0.0000,  0.0000,  0.0000)
  27 Pt     0.031624    1.655720   17.055257    ( 0.0000,  0.0000,  0.0000)
  28 Pd     2.861779    1.635273   17.106717    ( 0.0000,  0.0000,  0.0000)
  29 Pd     5.585306    1.661002   17.073487    ( 0.0000,  0.0000,  0.0000)
  30 Pd     1.449788    4.081605   17.058688    ( 0.0000,  0.0000,  0.0000)
  31 Ru     4.288676    4.068893   17.297929    ( 0.0000,  0.0000,  0.0000)
  32 Pt     6.972351    4.093306   17.091728    ( 0.0000,  0.0000,  0.0000)
  33 Ag     2.794688    6.509469   17.070862    ( 0.0000,  0.0000,  0.0000)
  34 Pt     5.653272    6.465269   17.121047    ( 0.0000,  0.0000,  0.0000)
  35 Ru     8.265256    6.458881   17.264254    ( 0.0000,  0.0000,  0.0000)
  36 Pd     0.102464    0.039810   19.433075    ( 0.0000,  0.0000,  0.0000)
  37 Ru     2.903418   -0.016098   19.407800    ( 0.0000,  0.0000,  0.0000)
  38 Pd     5.621240    0.001756   19.419836    ( 0.0000,  0.0000,  0.0000)
  39 Pt     1.420320    2.474526   19.370807    ( 0.0000,  0.0000,  0.0000)
  40 Pd     4.217744    2.438483   19.448258    ( 0.0000,  0.0000,  0.0000)
  41 Pd     7.072111    2.482918   19.415468    ( 0.0000,  0.0000,  0.0000)
  42 Pt     2.814054    4.838307   19.375092    ( 0.0000,  0.0000,  0.0000)
  43 Pd     5.666644    4.877755   19.504885    ( 0.0000,  0.0000,  0.0000)
  44 Ru     8.452184    4.954798   19.189226    ( 0.0000,  0.0000,  0.0000)
  45 O      2.929156   -0.055741   21.356865    ( 0.0000,  0.0000,  0.0000)
  46 H      3.524499    0.558755   21.844593    ( 0.0000,  0.0000,  0.0000)

Unit cell:
           periodic     x           y           z      points  spacing
  1. axis:    yes    8.379498    0.000000    0.000000    35     0.2073
  2. axis:    yes    4.189749    7.256858    0.000000    35     0.2073
  3. axis:    no     0.000000    0.000000   29.243062   135     0.2166

  Lengths:   8.379498   8.379498  29.243062
  Angles:   90.000000  90.000000  60.000000

Effective grid spacing dv^(1/3) = 0.2207

                     log10-error:    total        iterations:
           time      wfs    density  energy       fermi  poisson
iter:   1  01:56:27  -2.33   +inf  -194.634185    4             
iter:   2  01:57:31  -1.08  -1.78  -356.445867    38            
iter:   3  01:58:36  -1.58  -1.18  -192.570822    38            
iter:   4  01:59:42  -2.48  -1.89  -187.414594    3             
iter:   5  02:00:47  -3.03  -2.22  -186.360687    3             
iter:   6  02:01:53  -3.89  -2.67  -186.303426    3             
iter:   7  02:02:58  -4.41  -2.74  -186.259855    2             
iter:   8  02:04:03  -4.53  -2.94  -186.234545    3             
iter:   9  02:05:09  -4.87  -3.03  -186.249467    3             
iter:  10  02:06:14  -4.74  -2.92  -186.229202    2             
iter:  11  02:07:18  -4.79  -3.15  -186.219577    2             
iter:  12  02:08:23  -5.37  -3.49  -186.220091    2             
iter:  13  02:09:27  -5.58  -3.54  -186.219779    2             
iter:  14  02:10:32  -5.70  -3.51  -186.220690    2             
iter:  15  02:11:36  -5.66  -3.37  -186.220520    2             
iter:  16  02:12:40  -6.26  -3.55  -186.219407    2             
iter:  17  02:13:45  -6.29  -3.71  -186.218436    2             
iter:  18  02:14:50  -6.60  -3.72  -186.218698    2             
iter:  19  02:15:54  -6.84  -3.89  -186.218563    2             
iter:  20  02:16:59  -6.69  -3.83  -186.218382    2             
iter:  21  02:18:03  -6.72  -3.81  -186.218539    2             
iter:  22  02:19:08  -6.77  -3.87  -186.218533    2             
iter:  23  02:20:13  -6.88  -4.09  -186.218203    2             
iter:  24  02:21:18  -6.93  -3.88  -186.218304    2             
iter:  25  02:22:22  -7.18  -4.22  -186.218242    2             
iter:  26  02:23:27  -7.27  -4.14  -186.218253    2             
iter:  27  02:24:31  -6.95  -4.22  -186.218057    2             
iter:  28  02:25:35  -7.23  -4.42  -186.218703    2             
iter:  29  02:26:40  -7.52  -4.34  -186.218402    2             

Converged after 29 iterations.

Dipole moment: (27.245746, 22.657370, -0.070046) |e|*Ang

Energy contributions relative to reference atoms: (reference = -9073466.092496)

Kinetic:       -173.709650
Potential:      +27.284902
External:        +0.000000
XC:             -34.363932
Entropy (-ST):   -2.048853
Local:           -4.405296
--------------------------
Free energy:   -187.242828
Extrapolated:  -186.218402

Fermi level: 0.89804

Showing only first 2 kpts
 Kpt  Band  Eigenvalues  Occupancy
  0   367      0.87700    0.13810
  0   368      0.89532    0.12670
  0   369      0.91474    0.11459
  0   370      0.94744    0.09474

  1   367      0.77349    0.19413
  1   368      0.82533    0.16854
  1   369      0.83920    0.16075
  1   370      0.85747    0.15001



Forces in eV/Ang:
  0 Pd    0.09951    0.50594   -0.42549
  1 Ag    0.10429    0.49289   -0.51357
  2 Pt   -0.22983    0.51379    0.83191
  3 Pd    0.10363    0.03541   -0.07951
  4 Pd    0.10837   -0.37052    0.20223
  5 Pt   -0.13160   -0.29039   -0.08841
  6 Pd   -0.17034   -0.39500   -0.05673
  7 Ag   -0.12595   -0.45221   -0.71017
  8 Pd   -0.24826   -0.30603    0.27639
  9 Ag    0.53273    0.21610    0.42120
 10 Ru    2.20313    1.27657    0.42293
 11 Ru   -1.86779    0.87158   -0.33387
 12 Pd    1.11819   -0.24722    0.01808
 13 Ru   -0.53874   -1.48647   -0.85846
 14 Ag   -0.43261    0.13894    0.28470
 15 Pd    0.18218   -0.58858    0.09526
 16 Ag   -0.16615   -0.37087    0.36786
 17 Pd   -0.38011    0.54987    0.00637
 18 Ag   -0.00177   -0.01095    0.02420
 19 Ag   -0.01070   -0.01081    0.04085
 20 Pt   -0.00651   -0.00857   -0.02740
 21 Ag    0.00884   -0.02891    0.05193
 22 Ag    0.00451   -0.00506   -0.01657
 23 Ag   -0.00911   -0.00576   -0.00279
 24 Pd    0.04262    0.01868    0.06249
 25 Pd   -0.01062    0.00996    0.08490
 26 Ag   -0.02997    0.00815    0.05171
 27 Pt   -0.02483    0.02135   -0.00935
 28 Pd   -0.02676   -0.00343    0.11186
 29 Pd    0.02049   -0.00839   -0.03897
 30 Pd    0.05890   -0.02739   -0.06892
 31 Ru   -0.02080    0.01925   -0.08892
 32 Pt    0.00340   -0.08435   -0.06436
 33 Ag    0.05030   -0.02057   -0.05072
 34 Pt   -0.12920    0.05053    0.06187
 35 Ru    0.12589    0.07496    0.16678
 36 Pd   -0.05207    0.02979    0.02539
 37 Ru   -0.15380    0.12697   -0.22794
 38 Pd    0.06331    0.03863    0.03433
 39 Pt   -0.07208    0.08580    0.01800
 40 Pd    0.01109    0.01958   -0.02418
 41 Pd   -0.05907   -0.00241   -0.00179
 42 Pt    0.01703    0.01385   -0.02478
 43 Pd   -0.04819    0.00153   -0.03563
 44 Ru    0.09334   -0.21216    0.19591
 45 O    -0.24857   -0.33419    0.14454
 46 H     0.13149    0.16259   -0.11078

System changes: positions 

Initializing position-dependent things.

Density initialized from wave functions
                                             
                                             
                                             
                                             
                                             
                                             
                                             
                                             
                HPt     Pd     Ru            
            PtO   APd    PPd    Ru           
                                             
        Pd    Ru     Pd    Pt                
                                             
        Pt     Pd    PPd    Pd     Ag        
                Ag     Ag     Ag             
                                             
           Ag     Ag    APt    Pd            
                                             
            Pd     Ru     Ag     Pd          
       Ag     Ru     Ru                      
             Pd     Pd     Pt                
        Pd     Ag     Pt                     
                                             
                                             
                                             
                                             
                                             

Positions:
   0 Pd     0.000000    1.633958   10.000000    ( 0.0000,  0.0000,  0.0000)
   1 Ag     2.830098    1.633958   10.000000    ( 0.0000,  0.0000,  0.0000)
   2 Pt     5.660196    1.633958   10.000000    ( 0.0000,  0.0000,  0.0000)
   3 Pd     1.415049    4.084895   10.000000    ( 0.0000,  0.0000,  0.0000)
   4 Pd     4.245147    4.084895   10.000000    ( 0.0000,  0.0000,  0.0000)
   5 Pt     7.075245    4.084895   10.000000    ( 0.0000,  0.0000,  0.0000)
   6 Pd     2.830098    6.535832   10.000000    ( 0.0000,  0.0000,  0.0000)
   7 Ag     5.660196    6.535832   10.000000    ( 0.0000,  0.0000,  0.0000)
   8 Pd     8.490294    6.535832   10.000000    ( 0.0000,  0.0000,  0.0000)
   9 Ag     0.000000    0.000000   12.310765    ( 0.0000,  0.0000,  0.0000)
  10 Ru     2.830098    0.000000   12.310765    ( 0.0000,  0.0000,  0.0000)
  11 Ru     5.660196    0.000000   12.310765    ( 0.0000,  0.0000,  0.0000)
  12 Pd     1.415049    2.450937   12.310765    ( 0.0000,  0.0000,  0.0000)
  13 Ru     4.245147    2.450937   12.310765    ( 0.0000,  0.0000,  0.0000)
  14 Ag     7.075245    2.450937   12.310765    ( 0.0000,  0.0000,  0.0000)
  15 Pd     2.830098    4.901874   12.310765    ( 0.0000,  0.0000,  0.0000)
  16 Ag     5.660196    4.901874   12.310765    ( 0.0000,  0.0000,  0.0000)
  17 Pd     8.490294    4.901874   12.310765    ( 0.0000,  0.0000,  0.0000)
  18 Ag     1.421259    0.835854   14.694328    ( 0.0000,  0.0000,  0.0000)
  19 Ag     4.223002    0.832493   14.681926    ( 0.0000,  0.0000,  0.0000)
  20 Pt     6.998944    0.825852   14.665215    ( 0.0000,  0.0000,  0.0000)
  21 Ag     2.850982    3.270247   14.713774    ( 0.0000,  0.0000,  0.0000)
  22 Ag     5.608722    3.274150   14.711334    ( 0.0000,  0.0000,  0.0000)
  23 Ag     8.406289    3.277335   14.703244    ( 0.0000,  0.0000,  0.0000)
  24 Pd     4.230938    5.666310   14.790400    ( 0.0000,  0.0000,  0.0000)
  25 Pd     7.023474    5.722107   14.730000    ( 0.0000,  0.0000,  0.0000)
  26 Ag     9.804829    5.685523   14.706512    ( 0.0000,  0.0000,  0.0000)
  27 Pt     0.028539    1.657631   17.053672    ( 0.0000,  0.0000,  0.0000)
  28 Pd     2.858610    1.621389   17.131224    ( 0.0000,  0.0000,  0.0000)
  29 Pd     5.586632    1.657477   17.067450    ( 0.0000,  0.0000,  0.0000)
  30 Pd     1.458429    4.077181   17.047884    ( 0.0000,  0.0000,  0.0000)
  31 Ru     4.286927    4.070214   17.284137    ( 0.0000,  0.0000,  0.0000)
  32 Pt     6.970049    4.085925   17.082609    ( 0.0000,  0.0000,  0.0000)
  33 Ag     2.802873    6.508529   17.063396    ( 0.0000,  0.0000,  0.0000)
  34 Pt     5.654027    6.477066   17.143462    ( 0.0000,  0.0000,  0.0000)
  35 Ru     8.265799    6.476112   17.328177    ( 0.0000,  0.0000,  0.0000)
  36 Pd     0.092750    0.043492   19.436481    ( 0.0000,  0.0000,  0.0000)
  37 Ru     2.890786    0.006083   19.390368    ( 0.0000,  0.0000,  0.0000)
  38 Pd     5.630658    0.006707   19.419484    ( 0.0000,  0.0000,  0.0000)
  39 Pt     1.403411    2.489986   19.373692    ( 0.0000,  0.0000,  0.0000)
  40 Pd     4.223416    2.442339   19.440585    ( 0.0000,  0.0000,  0.0000)
  41 Pd     7.059462    2.482468   19.415375    ( 0.0000,  0.0000,  0.0000)
  42 Pt     2.816625    4.843289   19.369913    ( 0.0000,  0.0000,  0.0000)
  43 Pd     5.654771    4.876062   19.493177    ( 0.0000,  0.0000,  0.0000)
  44 Ru     8.467971    4.925341   19.205804    ( 0.0000,  0.0000,  0.0000)
  45 O      2.893333   -0.105841   21.362251    ( 0.0000,  0.0000,  0.0000)
  46 H      3.534580    0.576116   21.804802    ( 0.0000,  0.0000,  0.0000)

Unit cell:
           periodic     x           y           z      points  spacing
  1. axis:    yes    8.379498    0.000000    0.000000    35     0.2073
  2. axis:    yes    4.189749    7.256858    0.000000    35     0.2073
  3. axis:    no     0.000000    0.000000   29.243062   135     0.2166

  Lengths:   8.379498   8.379498  29.243062
  Angles:   90.000000  90.000000  60.000000

Effective grid spacing dv^(1/3) = 0.2207

                     log10-error:    total        iterations:
           time      wfs    density  energy       fermi  poisson
iter:   1  02:28:14  -2.26   +inf  -190.392885    4             
iter:   2  02:29:18  -1.41  -1.90  -300.782115    37            
iter:   3  02:30:23  -1.85  -1.26  -190.507459    36            
iter:   4  02:31:28  -2.69  -1.96  -187.576576    3             
iter:   5  02:32:34  -3.10  -2.14  -186.449475    3             
iter:   6  02:33:38  -3.90  -2.52  -186.451651    3             
iter:   7  02:34:42  -3.89  -2.48  -186.428861    2             
iter:   8  02:35:46  -4.36  -2.54  -186.232658    3             
iter:   9  02:36:50  -4.62  -2.98  -186.242393    2             
iter:  10  02:37:54  -5.37  -2.88  -186.216006    2             
iter:  11  02:38:59  -4.65  -3.22  -186.221667    2             
iter:  12  02:40:04  -5.09  -3.16  -186.208616    3             
iter:  13  02:41:08  -5.69  -3.57  -186.210025    2             
iter:  14  02:42:13  -5.98  -3.66  -186.209459    2             
iter:  15  02:43:16  -6.16  -3.61  -186.210277    2             
iter:  16  02:44:21  -5.91  -3.54  -186.209773    2             
iter:  17  02:45:26  -5.89  -3.91  -186.209277    2             
iter:  18  02:46:31  -6.49  -3.90  -186.209086    2             
iter:  19  02:47:35  -6.98  -4.01  -186.209416    2             
iter:  20  02:48:39  -7.18  -4.14  -186.209178    2             
iter:  21  02:49:43  -6.87  -4.01  -186.208987    2             
iter:  22  02:50:47  -7.12  -4.30  -186.209383    2             
iter:  23  02:51:52  -7.31  -4.32  -186.209103    2             
iter:  24  02:52:58  -7.74  -4.56  -186.209091    2             

Converged after 24 iterations.

Dipole moment: (30.111424, 24.352761, -0.112574) |e|*Ang

Energy contributions relative to reference atoms: (reference = -9073466.092496)

Kinetic:       -174.781906
Potential:      +27.879648
External:        +0.000000
XC:             -33.888133
Entropy (-ST):   -2.043223
Local:           -4.397089
--------------------------
Free energy:   -187.230703
Extrapolated:  -186.209091

Fermi level: 0.88040

Showing only first 2 kpts
 Kpt  Band  Eigenvalues  Occupancy
  0   367      0.85764    0.13917
  0   368      0.87534    0.12816
  0   369      0.89697    0.11467
  0   370      0.92371    0.09835

  1   367      0.75526    0.19439
  1   368      0.80796    0.16840
  1   369      0.82417    0.15925
  1   370      0.84589    0.14636



Forces in eV/Ang:
  0 Pd    0.09760    0.50680   -0.42100
  1 Ag    0.10552    0.49370   -0.51236
  2 Pt   -0.23005    0.51263    0.83386
  3 Pd    0.10387    0.03678   -0.07578
  4 Pd    0.10767   -0.37183    0.20747
  5 Pt   -0.13223   -0.29068   -0.08523
  6 Pd   -0.17238   -0.39569   -0.05133
  7 Ag   -0.12518   -0.45317   -0.70817
  8 Pd   -0.24788   -0.30665    0.27842
  9 Ag    0.54147    0.21074    0.42181
 10 Ru    2.21359    1.27889    0.45858
 11 Ru   -1.88192    0.86067   -0.30729
 12 Pd    1.12471   -0.24766    0.03496
 13 Ru   -0.54663   -1.49518   -0.83686
 14 Ag   -0.43074    0.14408    0.27265
 15 Pd    0.18112   -0.58924    0.13156
 16 Ag   -0.15515   -0.36019    0.39157
 17 Pd   -0.38155    0.56170    0.03464
 18 Ag    0.00211   -0.00169    0.02866
 19 Ag   -0.01082   -0.01354    0.03227
 20 Pt   -0.00486   -0.00980   -0.01649
 21 Ag    0.01577    0.00200    0.00761
 22 Ag   -0.00361   -0.00715   -0.02956
 23 Ag   -0.00122   -0.00279   -0.02248
 24 Pd    0.01300   -0.00934    0.04568
 25 Pd   -0.00665   -0.01192    0.03969
 26 Ag   -0.00331    0.00208    0.00157
 27 Pt   -0.01945    0.04043    0.00079
 28 Pd   -0.03342    0.18052   -0.02588
 29 Pd    0.01164   -0.01344   -0.01629
 30 Pd    0.00414    0.01232    0.01591
 31 Ru   -0.00043    0.02836   -0.07089
 32 Pt    0.08494    0.04452    0.04552
 33 Ag   -0.01622   -0.01405   -0.00614
 34 Pt   -0.18581   -0.08927   -0.10049
 35 Ru    0.18655   -0.18128   -0.18588
 36 Pd   -0.03399    0.04364    0.06425
 37 Ru   -0.25175    0.05833    0.28999
 38 Pd    0.01490   -0.00252    0.11056
 39 Pt   -0.01455    0.03256    0.05401
 40 Pd   -0.04564    0.02656   -0.00097
 41 Pd   -0.02541    0.02373    0.00597
 42 Pt    0.01602    0.00131   -0.02063
 43 Pd    0.01835    0.02954    0.01234
 44 Ru    0.05361   -0.14281    0.13326
 45 O     1.18805    1.12428    0.55859
 46 H    -1.07465   -1.14420   -0.82363

System changes: positions 

Initializing position-dependent things.

Density initialized from wave functions
                                             
                                             
                                             
                                             
                                             
                                             
                                             
                                             
                HPt     Pd     Ru            
            PtO   APd    PPd    Ru           
                                             
        Pd    Ru     Pd    Pt                
                                             
        Pt     Pd    PPd    Pd     Ag        
                Ag     Ag     Ag             
                                             
           Ag    PAg    APt    Pd            
                                             
            Pd     Ru     Ag     Pd          
       Ag     Ru     Ru                      
             Pd     Pd     Pt                
        Pd     Ag     Pt                     
                                             
                                             
                                             
                                             
                                             

Positions:
   0 Pd     0.000000    1.633958   10.000000    ( 0.0000,  0.0000,  0.0000)
   1 Ag     2.830098    1.633958   10.000000    ( 0.0000,  0.0000,  0.0000)
   2 Pt     5.660196    1.633958   10.000000    ( 0.0000,  0.0000,  0.0000)
   3 Pd     1.415049    4.084895   10.000000    ( 0.0000,  0.0000,  0.0000)
   4 Pd     4.245147    4.084895   10.000000    ( 0.0000,  0.0000,  0.0000)
   5 Pt     7.075245    4.084895   10.000000    ( 0.0000,  0.0000,  0.0000)
   6 Pd     2.830098    6.535832   10.000000    ( 0.0000,  0.0000,  0.0000)
   7 Ag     5.660196    6.535832   10.000000    ( 0.0000,  0.0000,  0.0000)
   8 Pd     8.490294    6.535832   10.000000    ( 0.0000,  0.0000,  0.0000)
   9 Ag     0.000000    0.000000   12.310765    ( 0.0000,  0.0000,  0.0000)
  10 Ru     2.830098    0.000000   12.310765    ( 0.0000,  0.0000,  0.0000)
  11 Ru     5.660196    0.000000   12.310765    ( 0.0000,  0.0000,  0.0000)
  12 Pd     1.415049    2.450937   12.310765    ( 0.0000,  0.0000,  0.0000)
  13 Ru     4.245147    2.450937   12.310765    ( 0.0000,  0.0000,  0.0000)
  14 Ag     7.075245    2.450937   12.310765    ( 0.0000,  0.0000,  0.0000)
  15 Pd     2.830098    4.901874   12.310765    ( 0.0000,  0.0000,  0.0000)
  16 Ag     5.660196    4.901874   12.310765    ( 0.0000,  0.0000,  0.0000)
  17 Pd     8.490294    4.901874   12.310765    ( 0.0000,  0.0000,  0.0000)
  18 Ag     1.421365    0.836375   14.692045    ( 0.0000,  0.0000,  0.0000)
  19 Ag     4.224399    0.833136   14.677684    ( 0.0000,  0.0000,  0.0000)
  20 Pt     6.999691    0.827139   14.668647    ( 0.0000,  0.0000,  0.0000)
  21 Ag     2.850348    3.272834   14.708365    ( 0.0000,  0.0000,  0.0000)
  22 Ag     5.608383    3.274671   14.713102    ( 0.0000,  0.0000,  0.0000)
  23 Ag     8.406763    3.277866   14.703539    ( 0.0000,  0.0000,  0.0000)
  24 Pd     4.227820    5.665163   14.786132    ( 0.0000,  0.0000,  0.0000)
  25 Pd     7.024019    5.720851   14.720370    ( 0.0000,  0.0000,  0.0000)
  26 Ag     9.807358    5.685523   14.701197    ( 0.0000,  0.0000,  0.0000)
  27 Pt     0.030300    1.656540   17.054577    ( 0.0000,  0.0000,  0.0000)
  28 Pd     2.860419    1.629315   17.117233    ( 0.0000,  0.0000,  0.0000)
  29 Pd     5.585875    1.659489   17.070897    ( 0.0000,  0.0000,  0.0000)
  30 Pd     1.453496    4.079707   17.054052    ( 0.0000,  0.0000,  0.0000)
  31 Ru     4.287926    4.069460   17.292011    ( 0.0000,  0.0000,  0.0000)
  32 Pt     6.971363    4.090138   17.087815    ( 0.0000,  0.0000,  0.0000)
  33 Ag     2.798200    6.509065   17.067659    ( 0.0000,  0.0000,  0.0000)
  34 Pt     5.653596    6.470331   17.130666    ( 0.0000,  0.0000,  0.0000)
  35 Ru     8.265489    6.466275   17.291684    ( 0.0000,  0.0000,  0.0000)
  36 Pd     0.098296    0.041390   19.434536    ( 0.0000,  0.0000,  0.0000)
  37 Ru     2.897997   -0.006580   19.400320    ( 0.0000,  0.0000,  0.0000)
  38 Pd     5.625282    0.003881   19.419685    ( 0.0000,  0.0000,  0.0000)
  39 Pt     1.413064    2.481160   19.372045    ( 0.0000,  0.0000,  0.0000)
  40 Pd     4.220178    2.440138   19.444965    ( 0.0000,  0.0000,  0.0000)
  41 Pd     7.066683    2.482725   19.415428    ( 0.0000,  0.0000,  0.0000)
  42 Pt     2.815157    4.840445   19.372870    ( 0.0000,  0.0000,  0.0000)
  43 Pd     5.661549    4.877028   19.499861    ( 0.0000,  0.0000,  0.0000)
  44 Ru     8.458959    4.942158   19.196340    ( 0.0000,  0.0000,  0.0000)
  45 O      2.913784   -0.077239   21.359176    ( 0.0000,  0.0000,  0.0000)
  46 H      3.528825    0.566205   21.827518    ( 0.0000,  0.0000,  0.0000)

Unit cell:
           periodic     x           y           z      points  spacing
  1. axis:    yes    8.379498    0.000000    0.000000    35     0.2073
  2. axis:    yes    4.189749    7.256858    0.000000    35     0.2073
  3. axis:    no     0.000000    0.000000   29.243062   135     0.2166

  Lengths:   8.379498   8.379498  29.243062
  Angles:   90.000000  90.000000  60.000000

Effective grid spacing dv^(1/3) = 0.2207

                     log10-error:    total        iterations:
           time      wfs    density  energy       fermi  poisson
iter:   1  02:54:31  -2.80   +inf  -186.477165    3             
iter:   2  02:55:35  -2.96  -2.55  -191.255373    4             
iter:   3  02:56:40  -3.24  -1.88  -186.323786    3             
iter:   4  02:57:44  -4.05  -2.78  -186.295031    3             
iter:   5  02:58:49  -4.34  -2.87  -186.244771    3             
iter:   6  02:59:53  -5.04  -3.22  -186.249306    3             
iter:   7  03:00:58  -5.45  -3.12  -186.245753    2             
iter:   8  03:02:04  -5.27  -3.23  -186.244376    2             
iter:   9  03:03:09  -5.66  -3.28  -186.243747    2             
iter:  10  03:04:14  -5.25  -3.22  -186.240997    3             
iter:  11  03:05:19  -5.42  -3.57  -186.238694    2             
iter:  12  03:06:23  -5.96  -3.54  -186.239791    2             
iter:  13  03:07:27  -6.37  -3.59  -186.237710    2             
iter:  14  03:08:32  -6.55  -3.78  -186.238230    2             
iter:  15  03:09:37  -6.63  -3.93  -186.237741    2             
iter:  16  03:10:42  -6.83  -4.04  -186.238267    2             
iter:  17  03:11:46  -6.72  -3.94  -186.237670    2             
iter:  18  03:12:52  -6.87  -4.25  -186.237605    2             
iter:  19  03:13:56  -6.63  -4.14  -186.237951    2             
iter:  20  03:14:59  -6.97  -3.74  -186.237689    2             
iter:  21  03:16:04  -7.81  -4.29  -186.237431    2             

Converged after 21 iterations.

Dipole moment: (28.533447, 23.481292, -0.089881) |e|*Ang

Energy contributions relative to reference atoms: (reference = -9073466.092496)

Kinetic:       -173.954981
Potential:      +27.292910
External:        +0.000000
XC:             -34.169684
Entropy (-ST):   -2.046634
Local:           -4.382359
--------------------------
Free energy:   -187.260747
Extrapolated:  -186.237431

Fermi level: 0.88992

Showing only first 2 kpts
 Kpt  Band  Eigenvalues  Occupancy
  0   367      0.86830    0.13846
  0   368      0.88614    0.12736
  0   369      0.90641    0.11471
  0   370      0.93677    0.09624

  1   367      0.76470    0.19442
  1   368      0.81742    0.16842
  1   369      0.83223    0.16009
  1   370      0.85141    0.14878



Forces in eV/Ang:
  0 Pd    0.09810    0.50682   -0.42268
  1 Ag    0.10534    0.49386   -0.51227
  2 Pt   -0.22977    0.51289    0.83270
  3 Pd    0.10398    0.03635   -0.07599
  4 Pd    0.10759   -0.37076    0.20637
  5 Pt   -0.13169   -0.28974   -0.08589
  6 Pd   -0.17168   -0.39599   -0.05208
  7 Ag   -0.12514   -0.45321   -0.70794
  8 Pd   -0.24744   -0.30741    0.27798
  9 Ag    0.53732    0.21083    0.42212
 10 Ru    2.21002    1.27692    0.44299
 11 Ru   -1.87613    0.86245   -0.32016
 12 Pd    1.12423   -0.24611    0.02531
 13 Ru   -0.54489   -1.48793   -0.84802
 14 Ag   -0.43308    0.14211    0.27709
 15 Pd    0.18190   -0.58957    0.10948
 16 Ag   -0.16400   -0.36595    0.37777
 17 Pd   -0.37833    0.55792    0.01962
 18 Ag    0.00551   -0.01556    0.02591
 19 Ag   -0.01115   -0.02563    0.03625
 20 Pt   -0.01124   -0.01726   -0.02052
 21 Ag    0.00841   -0.01501    0.02504
 22 Ag    0.00114   -0.00370   -0.02576
 23 Ag   -0.00273    0.00601   -0.00781
 24 Pd    0.03546    0.01265    0.05360
 25 Pd    0.00202    0.00917    0.07564
 26 Ag   -0.03111    0.00954    0.03736
 27 Pt   -0.02505    0.03384   -0.00894
 28 Pd   -0.03723    0.08957    0.04091
 29 Pd    0.02724   -0.00656   -0.03989
 30 Pd    0.02362    0.00183   -0.03547
 31 Ru   -0.00959    0.03387   -0.07352
 32 Pt    0.04775   -0.01009   -0.02029
 33 Ag    0.01847   -0.02391   -0.03844
 34 Pt   -0.15851   -0.03088   -0.03322
 35 Ru    0.15542   -0.06372   -0.01037
 36 Pd   -0.04480    0.03720    0.05331
 37 Ru   -0.18472    0.12225    0.00183
 38 Pd    0.02710    0.02169    0.10359
 39 Pt   -0.01944    0.05541    0.05379
 40 Pd   -0.02804    0.01735    0.02763
 41 Pd   -0.05415    0.00731    0.00723
 42 Pt    0.02336   -0.00453   -0.02151
 43 Pd   -0.02065    0.00434   -0.01077
 44 Ru    0.08170   -0.18183    0.16870
 45 O     0.41600    0.35073    0.36515
 46 H    -0.40798   -0.41268   -0.46453

System changes: positions 

Initializing position-dependent things.

Density initialized from wave functions
                                             
                                             
                                             
                                             
                                             
                                             
                                             
                                             
              O HPt     Pd     Ru            
            Pt     Pd    PPd    Ru           
                                             
        Pd    Ru     Pd    Pt                
               Pd                            
        Pt           PPd    Pd     Ag        
                Ag     Ag     Ag             
                                             
           Ag     Ag    APt    Pd            
                                             
            Pd     Ru     Ag     Pd          
       Ag     Ru     Ru                      
             Pd     Pd     Pt                
        Pd     Ag     Pt                     
                                             
                                             
                                             
                                             
                                             

Positions:
   0 Pd     0.000000    1.633958   10.000000    ( 0.0000,  0.0000,  0.0000)
   1 Ag     2.830098    1.633958   10.000000    ( 0.0000,  0.0000,  0.0000)
   2 Pt     5.660196    1.633958   10.000000    ( 0.0000,  0.0000,  0.0000)
   3 Pd     1.415049    4.084895   10.000000    ( 0.0000,  0.0000,  0.0000)
   4 Pd     4.245147    4.084895   10.000000    ( 0.0000,  0.0000,  0.0000)
   5 Pt     7.075245    4.084895   10.000000    ( 0.0000,  0.0000,  0.0000)
   6 Pd     2.830098    6.535832   10.000000    ( 0.0000,  0.0000,  0.0000)
   7 Ag     5.660196    6.535832   10.000000    ( 0.0000,  0.0000,  0.0000)
   8 Pd     8.490294    6.535832   10.000000    ( 0.0000,  0.0000,  0.0000)
   9 Ag     0.000000    0.000000   12.310765    ( 0.0000,  0.0000,  0.0000)
  10 Ru     2.830098    0.000000   12.310765    ( 0.0000,  0.0000,  0.0000)
  11 Ru     5.660196    0.000000   12.310765    ( 0.0000,  0.0000,  0.0000)
  12 Pd     1.415049    2.450937   12.310765    ( 0.0000,  0.0000,  0.0000)
  13 Ru     4.245147    2.450937   12.310765    ( 0.0000,  0.0000,  0.0000)
  14 Ag     7.075245    2.450937   12.310765    ( 0.0000,  0.0000,  0.0000)
  15 Pd     2.830098    4.901874   12.310765    ( 0.0000,  0.0000,  0.0000)
  16 Ag     5.660196    4.901874   12.310765    ( 0.0000,  0.0000,  0.0000)
  17 Pd     8.490294    4.901874   12.310765    ( 0.0000,  0.0000,  0.0000)
  18 Ag     1.421667    0.833662   14.699917    ( 0.0000,  0.0000,  0.0000)
  19 Ag     4.220026    0.829155   14.691176    ( 0.0000,  0.0000,  0.0000)
  20 Pt     6.996837    0.822447   14.658570    ( 0.0000,  0.0000,  0.0000)
  21 Ag     2.852644    3.265289   14.723514    ( 0.0000,  0.0000,  0.0000)
  22 Ag     5.609278    3.273091   14.706430    ( 0.0000,  0.0000,  0.0000)
  23 Ag     8.405407    3.277201   14.702063    ( 0.0000,  0.0000,  0.0000)
  24 Pd     4.238572    5.669062   14.801313    ( 0.0000,  0.0000,  0.0000)
  25 Pd     7.022932    5.724700   14.750357    ( 0.0000,  0.0000,  0.0000)
  26 Ag     9.798399    5.686432   14.717320    ( 0.0000,  0.0000,  0.0000)
  27 Pt     0.023736    1.662337   17.051565    ( 0.0000,  0.0000,  0.0000)
  28 Pd     2.852595    1.619201   17.154140    ( 0.0000,  0.0000,  0.0000)
  29 Pd     5.590234    1.654103   17.058948    ( 0.0000,  0.0000,  0.0000)
  30 Pd     1.467396    4.073967   17.036049    ( 0.0000,  0.0000,  0.0000)
  31 Ru     4.284684    4.074481   17.266351    ( 0.0000,  0.0000,  0.0000)
  32 Pt     6.972851    4.079431   17.073665    ( 0.0000,  0.0000,  0.0000)
  33 Ag     2.810977    6.505485   17.053908    ( 0.0000,  0.0000,  0.0000)
  34 Pt     5.639614    6.483168   17.157741    ( 0.0000,  0.0000,  0.0000)
  35 Ru     8.280867    6.483288   17.377188    ( 0.0000,  0.0000,  0.0000)
  36 Pd     0.080902    0.049907   19.444268    ( 0.0000,  0.0000,  0.0000)
  37 Ru     2.863568    0.034787   19.375949    ( 0.0000,  0.0000,  0.0000)
  38 Pd     5.640426    0.012615   19.429196    ( 0.0000,  0.0000,  0.0000)
  39 Pt     1.388452    2.507246   19.381143    ( 0.0000,  0.0000,  0.0000)
  40 Pd     4.225152    2.446931   19.437349    ( 0.0000,  0.0000,  0.0000)
  41 Pd     7.044399    2.482833   19.416009    ( 0.0000,  0.0000,  0.0000)
  42 Pt     2.820886    4.846776   19.363862    ( 0.0000,  0.0000,  0.0000)
  43 Pd     5.643619    4.875196   19.483030    ( 0.0000,  0.0000,  0.0000)
  44 Ru     8.487937    4.885321   19.234646    ( 0.0000,  0.0000,  0.0000)
  45 O      2.906113   -0.110369   21.402833    ( 0.0000,  0.0000,  0.0000)
  46 H      3.502655    0.549365   21.728783    ( 0.0000,  0.0000,  0.0000)

Unit cell:
           periodic     x           y           z      points  spacing
  1. axis:    yes    8.379498    0.000000    0.000000    35     0.2073
  2. axis:    yes    4.189749    7.256858    0.000000    35     0.2073
  3. axis:    no     0.000000    0.000000   29.243062   135     0.2166

  Lengths:   8.379498   8.379498  29.243062
  Angles:   90.000000  90.000000  60.000000

Effective grid spacing dv^(1/3) = 0.2207

                     log10-error:    total        iterations:
           time      wfs    density  energy       fermi  poisson
iter:   1  03:17:39  -1.90   +inf  -193.556685    3             
iter:   2  03:18:44  -1.12  -1.79  -349.687941    37            
iter:   3  03:19:49  -1.65  -1.19  -193.979536    37            
iter:   4  03:20:54  -2.44  -1.85  -188.189759    3             
iter:   5  03:21:59  -2.87  -2.10  -186.585541    3             
iter:   6  03:23:04  -3.89  -2.38  -186.296896    3             
iter:   7  03:24:08  -3.99  -2.64  -186.235227    2             
iter:   8  03:25:13  -4.45  -2.76  -186.191734    3             
iter:   9  03:26:16  -4.58  -2.89  -186.221514    3             
iter:  10  03:27:21  -4.18  -2.76  -186.351689    2             
iter:  11  03:28:26  -3.99  -2.54  -186.170238    3             
iter:  12  03:29:31  -4.76  -3.24  -186.164375    2             
iter:  13  03:30:35  -5.41  -3.31  -186.166346    2             
iter:  14  03:31:40  -5.14  -3.30  -186.165138    3             
iter:  15  03:32:45  -5.35  -3.42  -186.163942    3             
iter:  16  03:33:50  -5.26  -3.51  -186.166449    2             
iter:  17  03:34:55  -6.14  -3.49  -186.164651    2             
iter:  18  03:36:00  -6.32  -3.64  -186.163820    2             
iter:  19  03:37:05  -6.40  -3.84  -186.163982    2             
iter:  20  03:38:10  -6.47  -3.92  -186.163908    2             
iter:  21  03:39:14  -6.47  -3.94  -186.163369    2             
iter:  22  03:40:19  -6.71  -4.15  -186.163702    2             
iter:  23  03:41:24  -7.05  -4.06  -186.163793    2             
iter:  24  03:42:30  -7.24  -4.29  -186.163498    2             
iter:  25  03:43:36  -7.49  -4.37  -186.163564    2             

Converged after 25 iterations.

Dipole moment: (31.051822, 22.714789, -0.200860) |e|*Ang

Energy contributions relative to reference atoms: (reference = -9073466.092496)

Kinetic:       -173.153917
Potential:      +26.965636
External:        +0.000000
XC:             -34.564467
Entropy (-ST):   -2.045534
Local:           -4.388050
--------------------------
Free energy:   -187.186331
Extrapolated:  -186.163564

Fermi level: 0.83892

Showing only first 2 kpts
 Kpt  Band  Eigenvalues  Occupancy
  0   367      0.81270    0.14129
  0   368      0.83079    0.13008
  0   369      0.85707    0.11369
  0   370      0.87738    0.10125

  1   367      0.71424    0.19418
  1   368      0.76521    0.16909
  1   369      0.78607    0.15728
  1   370      0.81147    0.14205



Forces in eV/Ang:
  0 Pd    0.09680    0.50722   -0.41557
  1 Ag    0.10587    0.49374   -0.51087
  2 Pt   -0.23062    0.51167    0.83833
  3 Pd    0.10350    0.03681   -0.07011
  4 Pd    0.10738   -0.37270    0.21418
  5 Pt   -0.13216   -0.28965   -0.07884
  6 Pd   -0.17240   -0.39561   -0.04351
  7 Ag   -0.12482   -0.45405   -0.70409
  8 Pd   -0.24879   -0.30688    0.28197
  9 Ag    0.55240    0.20334    0.42467
 10 Ru    2.21800    1.28124    0.49442
 11 Ru   -1.89408    0.84637   -0.28028
 12 Pd    1.13116   -0.25263    0.05370
 13 Ru   -0.55608   -1.50619   -0.81613
 14 Ag   -0.42728    0.14719    0.25746
 15 Pd    0.18083   -0.58720    0.17053
 16 Ag   -0.14503   -0.34412    0.41632
 17 Pd   -0.38386    0.57614    0.06035
 18 Ag   -0.00077    0.02838    0.01798
 19 Ag   -0.01355    0.00809    0.01240
 20 Pt    0.00833    0.00277   -0.01843
 21 Ag    0.02055    0.03502   -0.05831
 22 Ag   -0.00746   -0.01413   -0.03845
 23 Ag    0.01115   -0.01434   -0.05140
 24 Pd   -0.04365   -0.05809   -0.03696
 25 Pd   -0.00293   -0.04105   -0.01755
 26 Ag    0.03985   -0.01443   -0.07191
 27 Pt    0.00523    0.03087    0.02874
 28 Pd   -0.00579    0.22974   -0.16402
 29 Pd   -0.03609   -0.02186    0.04352
 30 Pd   -0.07716    0.05116    0.13657
 31 Ru    0.05126   -0.01480   -0.00717
 32 Pt    0.12287    0.19828    0.19858
 33 Ag   -0.11361    0.03425    0.09066
 34 Pt    0.01793   -0.16136   -0.14194
 35 Ru   -0.02776   -0.34282   -0.24884
 36 Pd   -0.00019    0.04056    0.05652
 37 Ru   -0.08444   -0.16892    0.94396
 38 Pd   -0.10874   -0.06034    0.13698
 39 Pt    0.05494   -0.09689    0.06600
 40 Pd   -0.07918    0.00033    0.01186
 41 Pd    0.00873    0.05561   -0.00223
 42 Pt    0.00113    0.01745   -0.02594
 43 Pd    0.08127    0.06335   -0.00121
 44 Ru   -0.06697    0.13591   -0.12101
 45 O    -1.27501   -1.43269   -1.68525
 46 H     1.28961    1.43104    0.78892

System changes: positions 

Initializing position-dependent things.

Density initialized from wave functions
                                             
                                             
                                             
                                             
                                             
                                             
                                             
                                             
                HPt     Pd     Ru            
            PtO   APd    PPd    Ru           
                                             
        Pd    Ru     Pd    Pt                
                                             
        Pt     Pd    PPd    Pd     Ag        
                Ag     Ag     Ag             
                                             
           Ag     Ag    APt    Pd            
                                             
            Pd     Ru     Ag     Pd          
       Ag     Ru     Ru                      
             Pd     Pd     Pt                
        Pd     Ag     Pt                     
                                             
                                             
                                             
                                             
                                             

Positions:
   0 Pd     0.000000    1.633958   10.000000    ( 0.0000,  0.0000,  0.0000)
   1 Ag     2.830098    1.633958   10.000000    ( 0.0000,  0.0000,  0.0000)
   2 Pt     5.660196    1.633958   10.000000    ( 0.0000,  0.0000,  0.0000)
   3 Pd     1.415049    4.084895   10.000000    ( 0.0000,  0.0000,  0.0000)
   4 Pd     4.245147    4.084895   10.000000    ( 0.0000,  0.0000,  0.0000)
   5 Pt     7.075245    4.084895   10.000000    ( 0.0000,  0.0000,  0.0000)
   6 Pd     2.830098    6.535832   10.000000    ( 0.0000,  0.0000,  0.0000)
   7 Ag     5.660196    6.535832   10.000000    ( 0.0000,  0.0000,  0.0000)
   8 Pd     8.490294    6.535832   10.000000    ( 0.0000,  0.0000,  0.0000)
   9 Ag     0.000000    0.000000   12.310765    ( 0.0000,  0.0000,  0.0000)
  10 Ru     2.830098    0.000000   12.310765    ( 0.0000,  0.0000,  0.0000)
  11 Ru     5.660196    0.000000   12.310765    ( 0.0000,  0.0000,  0.0000)
  12 Pd     1.415049    2.450937   12.310765    ( 0.0000,  0.0000,  0.0000)
  13 Ru     4.245147    2.450937   12.310765    ( 0.0000,  0.0000,  0.0000)
  14 Ag     7.075245    2.450937   12.310765    ( 0.0000,  0.0000,  0.0000)
  15 Pd     2.830098    4.901874   12.310765    ( 0.0000,  0.0000,  0.0000)
  16 Ag     5.660196    4.901874   12.310765    ( 0.0000,  0.0000,  0.0000)
  17 Pd     8.490294    4.901874   12.310765    ( 0.0000,  0.0000,  0.0000)
  18 Ag     1.421455    0.835568   14.694386    ( 0.0000,  0.0000,  0.0000)
  19 Ag     4.223099    0.831952   14.681696    ( 0.0000,  0.0000,  0.0000)
  20 Pt     6.998842    0.825743   14.665650    ( 0.0000,  0.0000,  0.0000)
  21 Ag     2.851031    3.270590   14.712871    ( 0.0000,  0.0000,  0.0000)
  22 Ag     5.608649    3.274201   14.711118    ( 0.0000,  0.0000,  0.0000)
  23 Ag     8.406360    3.277669   14.703100    ( 0.0000,  0.0000,  0.0000)
  24 Pd     4.231018    5.666322   14.790647    ( 0.0000,  0.0000,  0.0000)
  25 Pd     7.023696    5.721996   14.729288    ( 0.0000,  0.0000,  0.0000)
  26 Ag     9.804694    5.685793   14.705992    ( 0.0000,  0.0000,  0.0000)
  27 Pt     0.028348    1.658264   17.053681    ( 0.0000,  0.0000,  0.0000)
  28 Pd     2.858092    1.626307   17.128209    ( 0.0000,  0.0000,  0.0000)
  29 Pd     5.587171    1.657887   17.067343    ( 0.0000,  0.0000,  0.0000)
  30 Pd     1.457630    4.078000   17.048698    ( 0.0000,  0.0000,  0.0000)
  31 Ru     4.286961    4.070953   17.284380    ( 0.0000,  0.0000,  0.0000)
  32 Pt     6.971806    4.086954   17.083607    ( 0.0000,  0.0000,  0.0000)
  33 Ag     2.802000    6.508001   17.063569    ( 0.0000,  0.0000,  0.0000)
  34 Pt     5.649438    6.474149   17.138718    ( 0.0000,  0.0000,  0.0000)
  35 Ru     8.270062    6.471335   17.317112    ( 0.0000,  0.0000,  0.0000)
  36 Pd     0.093123    0.043923   19.437431    ( 0.0000,  0.0000,  0.0000)
  37 Ru     2.887758    0.005723   19.393072    ( 0.0000,  0.0000,  0.0000)
  38 Pd     5.629785    0.006478   19.422513    ( 0.0000,  0.0000,  0.0000)
  39 Pt     1.405745    2.488918   19.374751    ( 0.0000,  0.0000,  0.0000)
  40 Pd     4.221657    2.442158   19.442700    ( 0.0000,  0.0000,  0.0000)
  41 Pd     7.060056    2.482757   19.415601    ( 0.0000,  0.0000,  0.0000)
  42 Pt     2.816861    4.842328   19.370191    ( 0.0000,  0.0000,  0.0000)
  43 Pd     5.656217    4.876484   19.494855    ( 0.0000,  0.0000,  0.0000)
  44 Ru     8.467577    4.925255   19.207732    ( 0.0000,  0.0000,  0.0000)
  45 O      2.911503   -0.087092   21.372159    ( 0.0000,  0.0000,  0.0000)
  46 H      3.521042    0.561197   21.798155    ( 0.0000,  0.0000,  0.0000)

Unit cell:
           periodic     x           y           z      points  spacing
  1. axis:    yes    8.379498    0.000000    0.000000    35     0.2073
  2. axis:    yes    4.189749    7.256858    0.000000    35     0.2073
  3. axis:    no     0.000000    0.000000   29.243062   135     0.2166

  Lengths:   8.379498   8.379498  29.243062
  Angles:   90.000000  90.000000  60.000000

Effective grid spacing dv^(1/3) = 0.2207

                     log10-error:    total        iterations:
           time      wfs    density  energy       fermi  poisson
iter:   1  03:45:11  -2.17   +inf  -189.625303    3             
iter:   2  03:46:16  -1.53  -1.94  -272.255647    38            
iter:   3  03:47:21  -1.91  -1.32  -188.660722    38            
iter:   4  03:48:26  -2.94  -2.07  -186.671368    3             
iter:   5  03:49:31  -3.64  -2.44  -186.373074    3             
iter:   6  03:50:37  -3.96  -2.69  -186.287848    3             
iter:   7  03:51:43  -4.75  -2.86  -186.295909    3             
iter:   8  03:52:49  -4.27  -2.89  -186.298533    2             
iter:   9  03:53:56  -4.32  -2.80  -186.266423    3             
iter:  10  03:55:01  -4.98  -3.17  -186.258650    2             
iter:  11  03:56:05  -5.47  -3.38  -186.256469    2             
iter:  12  03:57:09  -5.48  -3.47  -186.257041    2             
iter:  13  03:58:13  -5.77  -3.47  -186.258852    2             
iter:  14  03:59:16  -5.86  -3.39  -186.256877    2             
iter:  15  04:00:20  -6.01  -3.54  -186.255532    2             
iter:  16  04:01:24  -6.28  -3.72  -186.256781    2             
iter:  17  04:02:29  -6.47  -3.64  -186.255376    2             
iter:  18  04:03:33  -6.37  -3.88  -186.255846    2             
iter:  19  04:04:36  -6.67  -3.88  -186.255573    2             
iter:  20  04:05:41  -6.56  -3.94  -186.255987    2             
iter:  21  04:06:45  -6.68  -4.12  -186.255103    2             
iter:  22  04:07:49  -6.94  -4.04  -186.255559    2             
iter:  23  04:08:54  -7.20  -4.18  -186.255461    2             
iter:  24  04:09:58  -7.33  -4.27  -186.255483    2             
iter:  25  04:11:02  -7.43  -4.34  -186.255383    2             

Converged after 25 iterations.

Dipole moment: (29.305836, 23.291601, -0.120116) |e|*Ang

Energy contributions relative to reference atoms: (reference = -9073466.092496)

Kinetic:       -174.170123
Potential:      +27.561298
External:        +0.000000
XC:             -34.242135
Entropy (-ST):   -2.047053
Local:           -4.380895
--------------------------
Free energy:   -187.278909
Extrapolated:  -186.255383

Fermi level: 0.87506

Showing only first 2 kpts
 Kpt  Band  Eigenvalues  Occupancy
  0   367      0.85234    0.13914
  0   368      0.86993    0.12821
  0   369      0.89202    0.11443
  0   370      0.91909    0.09792

  1   367      0.74937    0.19462
  1   368      0.80271    0.16834
  1   369      0.81926    0.15900
  1   370      0.83966    0.14690



Forces in eV/Ang:
  0 Pd    0.09993    0.50717   -0.42729
  1 Ag    0.10425    0.49329   -0.51445
  2 Pt   -0.23004    0.51164    0.82588
  3 Pd    0.10450    0.03655   -0.07869
  4 Pd    0.10589   -0.36945    0.20286
  5 Pt   -0.13025   -0.28924   -0.09036
  6 Pd   -0.17146   -0.39734   -0.05764
  7 Ag   -0.12554   -0.45287   -0.71158
  8 Pd   -0.24762   -0.30735    0.27464
  9 Ag    0.54141    0.20998    0.42339
 10 Ru    2.20928    1.27704    0.45750
 11 Ru   -1.87979    0.85782   -0.30953
 12 Pd    1.12470   -0.24536    0.03517
 13 Ru   -0.54819   -1.48963   -0.83651
 14 Ag   -0.42965    0.14439    0.27290
 15 Pd    0.18090   -0.59118    0.12708
 16 Ag   -0.15762   -0.36075    0.39199
 17 Pd   -0.37975    0.55956    0.03207
 18 Ag    0.00320   -0.00220    0.02170
 19 Ag   -0.01154   -0.01694    0.02790
 20 Pt   -0.00223   -0.00498   -0.01660
 21 Ag    0.01019    0.00223   -0.00631
 22 Ag    0.00263   -0.00339   -0.02798
 23 Ag   -0.00064    0.00065   -0.02180
 24 Pd    0.00842   -0.01221    0.01482
 25 Pd    0.00403   -0.00892    0.03619
 26 Ag   -0.01058   -0.00045    0.00274
 27 Pt   -0.01751    0.02968    0.00183
 28 Pd   -0.01940    0.13606   -0.05008
 29 Pd    0.00707   -0.00353   -0.00643
 30 Pd   -0.02155    0.02254    0.02287
 31 Ru    0.01138    0.01258   -0.04764
 32 Pt    0.06780    0.06609    0.04752
 33 Ag   -0.02263   -0.00332    0.00616
 34 Pt   -0.09101   -0.08083   -0.07909
 35 Ru    0.08994   -0.15076   -0.08647
 36 Pd   -0.00195    0.02664    0.06241
 37 Ru   -0.15495    0.00160    0.23509
 38 Pd   -0.01804   -0.02616    0.08977
 39 Pt    0.00245    0.00322    0.04799
 40 Pd   -0.03786    0.03696   -0.00461
 41 Pd   -0.02283    0.02331   -0.00722
 42 Pt    0.02339    0.00245   -0.02911
 43 Pd    0.03441    0.04593    0.01829
 44 Ru    0.01720   -0.06218    0.07708
 45 O     0.07980    0.01253   -0.23405
 46 H     0.05633    0.07261   -0.07526

System changes: positions 

Initializing position-dependent things.

Density initialized from wave functions
                                             
                                             
                                             
                                             
                                             
                                             
                                             
                                             
                HPt     Pd     Ru            
            PtO   APd    PPd    Ru           
                                             
        Pd    Ru     Pd    Pt                
                                             
        Pt     Pd    PPd    Pd     Ag        
                Ag     Ag     Ag             
                                             
           Ag     Ag    APt    Pd            
                                             
            Pd     Ru     Ag     Pd          
       Ag     Ru     Ru                      
             Pd     Pd     Pt                
        Pd     Ag     Pt                     
                                             
                                             
                                             
                                             
                                             

Positions:
   0 Pd     0.000000    1.633958   10.000000    ( 0.0000,  0.0000,  0.0000)
   1 Ag     2.830098    1.633958   10.000000    ( 0.0000,  0.0000,  0.0000)
   2 Pt     5.660196    1.633958   10.000000    ( 0.0000,  0.0000,  0.0000)
   3 Pd     1.415049    4.084895   10.000000    ( 0.0000,  0.0000,  0.0000)
   4 Pd     4.245147    4.084895   10.000000    ( 0.0000,  0.0000,  0.0000)
   5 Pt     7.075245    4.084895   10.000000    ( 0.0000,  0.0000,  0.0000)
   6 Pd     2.830098    6.535832   10.000000    ( 0.0000,  0.0000,  0.0000)
   7 Ag     5.660196    6.535832   10.000000    ( 0.0000,  0.0000,  0.0000)
   8 Pd     8.490294    6.535832   10.000000    ( 0.0000,  0.0000,  0.0000)
   9 Ag     0.000000    0.000000   12.310765    ( 0.0000,  0.0000,  0.0000)
  10 Ru     2.830098    0.000000   12.310765    ( 0.0000,  0.0000,  0.0000)
  11 Ru     5.660196    0.000000   12.310765    ( 0.0000,  0.0000,  0.0000)
  12 Pd     1.415049    2.450937   12.310765    ( 0.0000,  0.0000,  0.0000)
  13 Ru     4.245147    2.450937   12.310765    ( 0.0000,  0.0000,  0.0000)
  14 Ag     7.075245    2.450937   12.310765    ( 0.0000,  0.0000,  0.0000)
  15 Pd     2.830098    4.901874   12.310765    ( 0.0000,  0.0000,  0.0000)
  16 Ag     5.660196    4.901874   12.310765    ( 0.0000,  0.0000,  0.0000)
  17 Pd     8.490294    4.901874   12.310765    ( 0.0000,  0.0000,  0.0000)
  18 Ag     1.421873    0.835246   14.697225    ( 0.0000,  0.0000,  0.0000)
  19 Ag     4.221448    0.830128   14.685882    ( 0.0000,  0.0000,  0.0000)
  20 Pt     6.998254    0.824784   14.662735    ( 0.0000,  0.0000,  0.0000)
  21 Ag     2.852149    3.269842   14.714220    ( 0.0000,  0.0000,  0.0000)
  22 Ag     5.608915    3.273714   14.707684    ( 0.0000,  0.0000,  0.0000)
  23 Ag     8.406313    3.277623   14.700783    ( 0.0000,  0.0000,  0.0000)
  24 Pd     4.232863    5.665447   14.793312    ( 0.0000,  0.0000,  0.0000)
  25 Pd     7.023928    5.721690   14.736330    ( 0.0000,  0.0000,  0.0000)
  26 Ag     9.802747    5.685667   14.708220    ( 0.0000,  0.0000,  0.0000)
  27 Pt     0.026082    1.661206   17.053389    ( 0.0000,  0.0000,  0.0000)
  28 Pd     2.855767    1.635491   17.128766    ( 0.0000,  0.0000,  0.0000)
  29 Pd     5.587783    1.656702   17.065550    ( 0.0000,  0.0000,  0.0000)
  30 Pd     1.457401    4.079433   17.048244    ( 0.0000,  0.0000,  0.0000)
  31 Ru     4.287917    4.072289   17.276921    ( 0.0000,  0.0000,  0.0000)
  32 Pt     6.977537    4.093014   17.086631    ( 0.0000,  0.0000,  0.0000)
  33 Ag     2.801499    6.507429   17.062548    ( 0.0000,  0.0000,  0.0000)
  34 Pt     5.643210    6.468692   17.136965    ( 0.0000,  0.0000,  0.0000)
  35 Ru     8.276152    6.460659   17.326281    ( 0.0000,  0.0000,  0.0000)
  36 Pd     0.090780    0.047046   19.444080    ( 0.0000,  0.0000,  0.0000)
  37 Ru     2.873169    0.009066   19.404831    ( 0.0000,  0.0000,  0.0000)
  38 Pd     5.629163    0.004968   19.430853    ( 0.0000,  0.0000,  0.0000)
  39 Pt     1.402437    2.492168   19.380124    ( 0.0000,  0.0000,  0.0000)
  40 Pd     4.219632    2.445979   19.440996    ( 0.0000,  0.0000,  0.0000)
  41 Pd     7.054855    2.484890   19.415004    ( 0.0000,  0.0000,  0.0000)
  42 Pt     2.819717    4.844040   19.366590    ( 0.0000,  0.0000,  0.0000)
  43 Pd     5.657041    4.880504   19.493713    ( 0.0000,  0.0000,  0.0000)
  44 Ru     8.471705    4.915308   19.216505    ( 0.0000,  0.0000,  0.0000)
  45 O      2.916035   -0.091555   21.360151    ( 0.0000,  0.0000,  0.0000)
  46 H      3.523850    0.566945   21.778300    ( 0.0000,  0.0000,  0.0000)

Unit cell:
           periodic     x           y           z      points  spacing
  1. axis:    yes    8.379498    0.000000    0.000000    35     0.2073
  2. axis:    yes    4.189749    7.256858    0.000000    35     0.2073
  3. axis:    no     0.000000    0.000000   29.243062   135     0.2166

  Lengths:   8.379498   8.379498  29.243062
  Angles:   90.000000  90.000000  60.000000

Effective grid spacing dv^(1/3) = 0.2207

                     log10-error:    total        iterations:
           time      wfs    density  energy       fermi  poisson
iter:   1  04:12:36  -3.08   +inf  -186.954603    3             
iter:   2  04:13:41  -2.18  -2.28  -215.619687    35            
iter:   3  04:14:47  -2.45  -1.55  -186.651649    37            
iter:   4  04:15:51  -3.54  -2.49  -186.326693    3             
iter:   5  04:16:55  -4.30  -2.88  -186.277297    3             
iter:   6  04:18:00  -4.94  -3.30  -186.280825    2             
iter:   7  04:19:04  -5.34  -3.16  -186.279458    2             
iter:   8  04:20:08  -5.26  -3.23  -186.272590    2             
iter:   9  04:21:12  -5.80  -3.25  -186.269036    2             
iter:  10  04:22:16  -5.93  -3.62  -186.268790    2             
iter:  11  04:23:21  -5.79  -3.46  -186.268304    2             
iter:  12  04:24:26  -5.87  -3.51  -186.266820    2             
iter:  13  04:25:30  -6.25  -3.72  -186.267060    2             
iter:  14  04:26:34  -6.74  -4.03  -186.266886    2             
iter:  15  04:27:39  -6.86  -3.80  -186.266604    2             
iter:  16  04:28:43  -7.33  -4.18  -186.266839    2             
iter:  17  04:29:49  -7.32  -4.18  -186.266694    2             
iter:  18  04:30:54  -7.02  -4.21  -186.266670    2             
iter:  19  04:31:58  -7.18  -4.42  -186.266900    2             
iter:  20  04:33:02  -7.53  -4.27  -186.266686    2             

Converged after 20 iterations.

Dipole moment: (29.417520, 23.026602, -0.108379) |e|*Ang

Energy contributions relative to reference atoms: (reference = -9073466.092496)

Kinetic:       -174.895674
Potential:      +28.172264
External:        +0.000000
XC:             -34.126792
Entropy (-ST):   -2.049244
Local:           -4.391863
--------------------------
Free energy:   -187.291308
Extrapolated:  -186.266686

Fermi level: 0.88063

Showing only first 2 kpts
 Kpt  Band  Eigenvalues  Occupancy
  0   367      0.85661    0.13994
  0   368      0.87452    0.12882
  0   369      0.89683    0.11490
  0   370      0.92320    0.09878

  1   367      0.75513    0.19454
  1   368      0.80946    0.16769
  1   369      0.82609    0.15827
  1   370      0.84551    0.14673



Forces in eV/Ang:
  0 Pd    0.09777    0.50590   -0.42627
  1 Ag    0.10526    0.49222   -0.51402
  2 Pt   -0.23009    0.51090    0.82989
  3 Pd    0.10374    0.03666   -0.07960
  4 Pd    0.10743   -0.37178    0.20363
  5 Pt   -0.13129   -0.28888   -0.09058
  6 Pd   -0.17168   -0.39458   -0.05405
  7 Ag   -0.12444   -0.45276   -0.71092
  8 Pd   -0.24890   -0.30653    0.27477
  9 Ag    0.54656    0.20896    0.42205
 10 Ru    2.21162    1.27886    0.46132
 11 Ru   -1.88482    0.85658   -0.30515
 12 Pd    1.12790   -0.25131    0.03642
 13 Ru   -0.54964   -1.49996   -0.83621
 14 Ag   -0.43019    0.14305    0.26100
 15 Pd    0.17989   -0.58877    0.13876
 16 Ag   -0.15314   -0.35371    0.39515
 17 Pd   -0.38234    0.56796    0.03422
 18 Ag   -0.00937    0.00497    0.01621
 19 Ag   -0.00258    0.00194    0.01642
 20 Pt    0.00305   -0.00118   -0.00620
 21 Ag    0.00243    0.01295   -0.01421
 22 Ag    0.01520   -0.01219   -0.00299
 23 Ag   -0.00191   -0.01177   -0.01185
 24 Pd   -0.01818   -0.01286   -0.00542
 25 Pd   -0.00503   -0.01839    0.00534
 26 Ag    0.01708   -0.00530   -0.01496
 27 Pt    0.00052   -0.00133    0.01749
 28 Pd   -0.00610   -0.00998    0.01646
 29 Pd   -0.00351   -0.00361    0.01444
 30 Pd   -0.00016   -0.00581    0.01934
 31 Ru    0.01305   -0.01251   -0.02647
 32 Pt    0.01564   -0.03025    0.01863
 33 Ag   -0.02194    0.02951    0.02521
 34 Pt   -0.00473    0.03380   -0.01048
 35 Ru   -0.04333    0.02910    0.01751
 36 Pd   -0.03098    0.02973    0.02315
 37 Ru   -0.04604    0.01167   -0.13441
 38 Pd   -0.05541   -0.00499    0.05144
 39 Pt   -0.00308   -0.00154    0.03935
 40 Pd   -0.02386   -0.01029   -0.00512
 41 Pd   -0.02350    0.00435    0.01182
 42 Pt    0.00675    0.01211    0.00448
 43 Pd   -0.00141    0.01667    0.00038
 44 Ru    0.02295   -0.01778    0.05309
 45 O     0.02267   -0.07515    0.08667
 46 H     0.00165    0.01604   -0.06879

System changes: positions 

Initializing position-dependent things.

Density initialized from wave functions
                                             
                                             
                                             
                                             
                                             
                                             
                                             
                                             
                HPt     Pd     Ru            
            PtO   APd    PPd    Ru           
                                             
        Pd    Ru     Pd    Pt                
                                             
        Pt     Pd    PPd    Pd     Ag        
                Ag     Ag     Ag             
                                             
           Ag     Ag    APt    Pd            
                                             
            Pd     Ru     Ag     Pd          
       Ag     Ru     Ru                      
             Pd     Pd     Pt                
        Pd     Ag     Pt                     
                                             
                                             
                                             
                                             
                                             

Positions:
   0 Pd     0.000000    1.633958   10.000000    ( 0.0000,  0.0000,  0.0000)
   1 Ag     2.830098    1.633958   10.000000    ( 0.0000,  0.0000,  0.0000)
   2 Pt     5.660196    1.633958   10.000000    ( 0.0000,  0.0000,  0.0000)
   3 Pd     1.415049    4.084895   10.000000    ( 0.0000,  0.0000,  0.0000)
   4 Pd     4.245147    4.084895   10.000000    ( 0.0000,  0.0000,  0.0000)
   5 Pt     7.075245    4.084895   10.000000    ( 0.0000,  0.0000,  0.0000)
   6 Pd     2.830098    6.535832   10.000000    ( 0.0000,  0.0000,  0.0000)
   7 Ag     5.660196    6.535832   10.000000    ( 0.0000,  0.0000,  0.0000)
   8 Pd     8.490294    6.535832   10.000000    ( 0.0000,  0.0000,  0.0000)
   9 Ag     0.000000    0.000000   12.310765    ( 0.0000,  0.0000,  0.0000)
  10 Ru     2.830098    0.000000   12.310765    ( 0.0000,  0.0000,  0.0000)
  11 Ru     5.660196    0.000000   12.310765    ( 0.0000,  0.0000,  0.0000)
  12 Pd     1.415049    2.450937   12.310765    ( 0.0000,  0.0000,  0.0000)
  13 Ru     4.245147    2.450937   12.310765    ( 0.0000,  0.0000,  0.0000)
  14 Ag     7.075245    2.450937   12.310765    ( 0.0000,  0.0000,  0.0000)
  15 Pd     2.830098    4.901874   12.310765    ( 0.0000,  0.0000,  0.0000)
  16 Ag     5.660196    4.901874   12.310765    ( 0.0000,  0.0000,  0.0000)
  17 Pd     8.490294    4.901874   12.310765    ( 0.0000,  0.0000,  0.0000)
  18 Ag     1.421092    0.835610   14.700844    ( 0.0000,  0.0000,  0.0000)
  19 Ag     4.220043    0.829222   14.690485    ( 0.0000,  0.0000,  0.0000)
  20 Pt     6.998187    0.823932   14.660016    ( 0.0000,  0.0000,  0.0000)
  21 Ag     2.853117    3.270693   14.713830    ( 0.0000,  0.0000,  0.0000)
  22 Ag     5.610748    3.272061   14.705162    ( 0.0000,  0.0000,  0.0000)
  23 Ag     8.406072    3.276289   14.698090    ( 0.0000,  0.0000,  0.0000)
  24 Pd     4.232070    5.663516   14.794401    ( 0.0000,  0.0000,  0.0000)
  25 Pd     7.023565    5.719602   14.741898    ( 0.0000,  0.0000,  0.0000)
  26 Ag     9.803321    5.684929   14.708273    ( 0.0000,  0.0000,  0.0000)
  27 Pt     0.024735    1.662862   17.055084    ( 0.0000,  0.0000,  0.0000)
  28 Pd     2.853643    1.638849   17.131955    ( 0.0000,  0.0000,  0.0000)
  29 Pd     5.587732    1.655341   17.065856    ( 0.0000,  0.0000,  0.0000)
  30 Pd     1.457365    4.079544   17.049911    ( 0.0000,  0.0000,  0.0000)
  31 Ru     4.289956    4.071687   17.269198    ( 0.0000,  0.0000,  0.0000)
  32 Pt     6.982536    4.093542   17.090309    ( 0.0000,  0.0000,  0.0000)
  33 Ag     2.799025    6.510451   17.064533    ( 0.0000,  0.0000,  0.0000)
  34 Pt     5.640144    6.469595   17.136038    ( 0.0000,  0.0000,  0.0000)
  35 Ru     8.274189    6.458005   17.337442    ( 0.0000,  0.0000,  0.0000)
  36 Pd     0.085666    0.052226   19.450713    ( 0.0000,  0.0000,  0.0000)
  37 Ru     2.859277    0.013421   19.400378    ( 0.0000,  0.0000,  0.0000)
  38 Pd     5.623133    0.003527   19.441125    ( 0.0000,  0.0000,  0.0000)
  39 Pt     1.399253    2.494568   19.387732    ( 0.0000,  0.0000,  0.0000)
  40 Pd     4.216154    2.447471   19.438865    ( 0.0000,  0.0000,  0.0000)
  41 Pd     7.048630    2.486656   19.415915    ( 0.0000,  0.0000,  0.0000)
  42 Pt     2.822234    4.846639   19.364585    ( 0.0000,  0.0000,  0.0000)
  43 Pd     5.656760    4.884562   19.492377    ( 0.0000,  0.0000,  0.0000)
  44 Ru     8.477361    4.906465   19.227247    ( 0.0000,  0.0000,  0.0000)
  45 O      2.920353   -0.103803   21.359063    ( 0.0000,  0.0000,  0.0000)
  46 H      3.525581    0.572402   21.756468    ( 0.0000,  0.0000,  0.0000)

Unit cell:
           periodic     x           y           z      points  spacing
  1. axis:    yes    8.379498    0.000000    0.000000    35     0.2073
  2. axis:    yes    4.189749    7.256858    0.000000    35     0.2073
  3. axis:    no     0.000000    0.000000   29.243062   135     0.2166

  Lengths:   8.379498   8.379498  29.243062
  Angles:   90.000000  90.000000  60.000000

Effective grid spacing dv^(1/3) = 0.2207

                     log10-error:    total        iterations:
           time      wfs    density  energy       fermi  poisson
iter:   1  04:34:36  -3.20   +inf  -186.866412    3             
iter:   2  04:35:40  -2.21  -2.30  -214.390040    37            
iter:   3  04:36:46  -2.52  -1.55  -186.651622    36            
iter:   4  04:37:51  -3.61  -2.49  -186.387863    3             
iter:   5  04:38:55  -4.26  -2.69  -186.278233    3             
iter:   6  04:40:00  -4.99  -3.37  -186.275807    2             
iter:   7  04:41:04  -5.73  -3.43  -186.274488    2             
iter:   8  04:42:08  -5.65  -3.58  -186.274377    2             
iter:   9  04:43:12  -5.75  -3.44  -186.273492    2             
iter:  10  04:44:16  -5.91  -3.71  -186.271746    2             
iter:  11  04:45:20  -6.43  -3.85  -186.272233    2             
iter:  12  04:46:25  -6.38  -4.01  -186.272135    2             
iter:  13  04:47:30  -6.69  -4.10  -186.271969    2             
iter:  14  04:48:36  -6.93  -4.17  -186.272173    2             
iter:  15  04:49:43  -7.16  -4.07  -186.272143    2             
iter:  16  04:50:49  -7.40  -4.14  -186.271974    2             

Converged after 16 iterations.

Dipole moment: (29.943526, 23.274517, -0.118676) |e|*Ang

Energy contributions relative to reference atoms: (reference = -9073466.092496)

Kinetic:       -175.546643
Potential:      +28.684763
External:        +0.000000
XC:             -33.990581
Entropy (-ST):   -2.049108
Local:           -4.394960
--------------------------
Free energy:   -187.296528
Extrapolated:  -186.271974

Fermi level: 0.87621

Showing only first 2 kpts
 Kpt  Band  Eigenvalues  Occupancy
  0   367      0.85211    0.13999
  0   368      0.86908    0.12946
  0   369      0.89221    0.11502
  0   370      0.91775    0.09940

  1   367      0.75071    0.19454
  1   368      0.80550    0.16744
  1   369      0.82281    0.15760
  1   370      0.84205    0.14615



Forces in eV/Ang:
  0 Pd    0.09791    0.50617   -0.42416
  1 Ag    0.10804    0.49172   -0.50974
  2 Pt   -0.23390    0.51081    0.83266
  3 Pd    0.10406    0.03549   -0.07775
  4 Pd    0.10886   -0.37456    0.20779
  5 Pt   -0.13304   -0.28826   -0.08860
  6 Pd   -0.17220   -0.39339   -0.04987
  7 Ag   -0.12326   -0.45300   -0.70607
  8 Pd   -0.24955   -0.30365    0.27941
  9 Ag    0.55916    0.20591    0.42213
 10 Ru    2.21282    1.27937    0.48520
 11 Ru   -1.89922    0.85643   -0.29730
 12 Pd    1.13458   -0.26327    0.03696
 13 Ru   -0.55186   -1.51264   -0.83306
 14 Ag   -0.43253    0.14389    0.24646
 15 Pd    0.18273   -0.58689    0.13059
 16 Ag   -0.14944   -0.34472    0.40055
 17 Pd   -0.38886    0.57975    0.03876
 18 Ag    0.00542   -0.00915   -0.00604
 19 Ag   -0.00315   -0.01488    0.00672
 20 Pt   -0.00715   -0.00845    0.01962
 21 Ag   -0.00696   -0.00922   -0.01816
 22 Ag    0.01390   -0.01143    0.01733
 23 Ag    0.00574   -0.00170    0.01276
 24 Pd   -0.00280    0.01053   -0.01199
 25 Pd    0.00662    0.00644   -0.01182
 26 Ag   -0.00762    0.00808   -0.00182
 27 Pt    0.00614   -0.01263    0.01650
 28 Pd    0.00758   -0.01697   -0.00814
 29 Pd   -0.01439   -0.00541    0.02185
 30 Pd   -0.00114    0.01046    0.02534
 31 Ru    0.00676    0.00090    0.03388
 32 Pt   -0.02385   -0.01456    0.00589
 33 Ag   -0.02992    0.01964    0.03081
 34 Pt   -0.00257    0.00498   -0.01408
 35 Ru   -0.03461    0.03253    0.01235
 36 Pd   -0.02379   -0.00062   -0.00799
 37 Ru    0.03325   -0.01219   -0.02568
 38 Pd   -0.06800    0.00636   -0.00451
 39 Pt    0.03886   -0.03150    0.00424
 40 Pd   -0.01399   -0.00298   -0.01667
 41 Pd   -0.03349   -0.01191   -0.00473
 42 Pt    0.02168   -0.00303   -0.02867
 43 Pd   -0.02827   -0.00143   -0.03574
 44 Ru   -0.02191    0.06981   -0.04895
 45 O     0.08514    0.01154    0.01799
 46 H    -0.05124   -0.03592   -0.07696

Timing:                                      incl.     excl.
-------------------------------------------------------------------
Density initialized from wave functions:    25.583    25.582   0.2% |
 Symmetrize density:                         0.000     0.000   0.0% |
Forces:                                    145.302   145.302   1.0% |
Hamiltonian:                                23.736     0.069   0.0% |
 Atomic:                                     5.367     2.539   0.0% |
  XC Correction:                             2.828     2.828   0.0% |
 Calculate atomic Hamiltonians:              9.460     9.460   0.1% |
 Communicate:                                0.408     0.408   0.0% |
 Initialize Hamiltonian:                     0.001     0.001   0.0% |
 Poisson:                                    0.048     0.048   0.0% |
 XC 3D grid:                                 8.383     8.383   0.1% |
LCAO initialization:                        56.230     3.380   0.0% |
 LCAO eigensolver:                           6.929     0.002   0.0% |
  Calculate projections:                     0.059     0.059   0.0% |
  DenseAtomicCorrection:                     0.054     0.054   0.0% |
  Distribute overlap matrix:                 0.468     0.468   0.0% |
  Orbital Layouts:                           0.465     0.465   0.0% |
  Potential matrix:                          5.837     5.837   0.0% |
  Sum over cells:                            0.043     0.043   0.0% |
 LCAO to grid:                              43.376    43.376   0.3% |
 Set positions (LCAO WFS):                   2.545     1.144   0.0% |
  Basic WFS set positions:                   0.003     0.003   0.0% |
  Basis functions set positions:             0.001     0.001   0.0% |
  P tci:                                     0.559     0.559   0.0% |
  ST tci:                                    0.632     0.632   0.0% |
  mktci:                                     0.207     0.207   0.0% |
PWDescriptor:                                0.041     0.041   0.0% |
Redistribute:                                0.035     0.035   0.0% |
SCF-cycle:                               14886.228    53.188   0.3% |
 Davidson:                               13542.943  3078.876  20.3% |-------|
  Apply H:                                2137.396  2077.153  13.7% |----|
   HMM T:                                   60.243    60.243   0.4% |
  Subspace diag:                          1938.662     0.063   0.0% |
   calc_h_matrix:                         1126.978   416.116   2.7% ||
    Apply H:                               710.862   690.237   4.5% |-|
     HMM T:                                 20.625    20.625   0.1% |
   diagonalize:                             33.809    33.809   0.2% |
   rotate_psi:                             777.812   777.812   5.1% |-|
  calc. matrices:                         4236.397  2815.435  18.5% |------|
   Apply H:                               1420.962  1380.801   9.1% |---|
    HMM T:                                  40.161    40.161   0.3% |
  diagonalize:                             590.097   590.097   3.9% |-|
  rotate_psi:                             1561.514  1561.514  10.3% |---|
 Density:                                  681.131     0.010   0.0% |
  Atomic density matrices:                   3.347     3.347   0.0% |
  Mix:                                     270.763   270.763   1.8% ||
  Multipole moments:                         0.301     0.301   0.0% |
  Pseudo density:                          406.710   406.695   2.7% ||
   Symmetrize density:                       0.015     0.015   0.0% |
 Hamiltonian:                              555.349     1.659   0.0% |
  Atomic:                                  111.967    42.529   0.3% |
   XC Correction:                           69.438    69.438   0.5% |
  Calculate atomic Hamiltonians:           224.642   224.642   1.5% ||
  Communicate:                              13.451    13.451   0.1% |
  Poisson:                                   1.064     1.064   0.0% |
  XC 3D grid:                              202.566   202.566   1.3% ||
 Orthonormalize:                            53.617     0.003   0.0% |
  calc_s_matrix:                             8.182     8.182   0.1% |
  inverse-cholesky:                          0.717     0.717   0.0% |
  projections:                              29.195    29.195   0.2% |
  rotate_psi_s:                             15.519    15.519   0.1% |
Set symmetry:                                0.002     0.002   0.0% |
Other:                                      63.858    63.858   0.4% |
-------------------------------------------------------------------
Total:                                             15201.015 100.0%

Date: Fri Mar  4 04:51:05 2022
