
  ___ ___ ___ _ _ _  
 |   |   |_  | | | | 
 | | | | | . | | | | 
 |__ |  _|___|_____|  1.5.1
 |___|_|             

User:   clausen@node506.cluster
Date:   Wed Mar  2 15:10:17 2022
Arch:   x86_64
Pid:    37072
Python: 3.6.12
gpaw:   /software/kemi/gpaw/1.5.1/gpaw
_gpaw:  /software/kemi/gpaw/1.5.1/bin/gpaw-python
ase:    /software/kemi/ase/3.17.0/ase (version 3.17.0)
numpy:  /opt/rh/rh-python36/root/usr/lib64/python3.6/site-packages/numpy (version 1.13.1)
scipy:  /opt/rh/rh-python36/root/usr/lib64/python3.6/site-packages/scipy (version 0.19.1)
units:  Angstrom and eV
cores:  16

Input parameters:
  kpts: [4 4 1]
  mode: {ecut: 400.0,
         gammacentered: False,
         name: pw}
  xc: RPBE

System changes: positions, numbers, cell, pbc, initial_charges, initial_magmoms 

Initialize ...

Pd-setup:
  name: Palladium
  id: 6da19bfba079f22767af9506641940b9
  Z: 46
  valence: 16
  core: 30
  charge: 0.0
  file: /software/kemi/gpaw-setups/0.9.20000/Pd.RPBE.gz
  cutoffs: 1.19(comp), 2.38(filt), 2.28(core), lmax=2
  valence states:
                energy  radius
    5s(0.00)    -3.225   1.228
    4p(6.00)   -51.131   1.360
    5p(0.00)    -0.373   1.360
    4d(10.00)    -3.964   1.228
    *s          23.987   1.228
    *d          23.247   1.228

  Using partial waves for Pd as LCAO basis

Ir-setup:
  name: Iridium
  id: 73b603359d1d5397a85ae3c2440f9033
  Z: 77
  valence: 15
  core: 62
  charge: 0.0
  file: /software/kemi/gpaw-setups/0.9.20000/Ir.RPBE.gz
  cutoffs: 1.26(comp), 2.40(filt), 2.36(core), lmax=2
  valence states:
                energy  radius
    6s(2.00)    -6.219   1.296
    5p(6.00)   -54.684   1.328
    6p(0.00)    -1.215   1.328
    5d(7.00)    -7.118   1.286
    *s          20.992   1.296
    *d          20.093   1.286

  Using partial waves for Ir as LCAO basis

Ru-setup:
  name: Ruthenium
  id: 76477906e28f51dc1b29884d53556fe9
  Z: 44
  valence: 16
  core: 28
  charge: 0.0
  file: /software/kemi/gpaw-setups/0.9.20000/Ru.RPBE.gz
  cutoffs: 1.23(comp), 2.16(filt), 1.30(core), lmax=2
  valence states:
                energy  radius
    4s(2.00)   -76.255   1.281
    5s(1.00)    -4.126   1.281
    4p(6.00)   -46.371   1.286
    5p(0.00)    -0.913   1.286
    4d(7.00)    -5.146   1.254
    *d          22.066   1.254

  Using partial waves for Ru as LCAO basis

Pt-setup:
  name: Platinum
  id: f04f522592575c47ad794f6b4a415b4b
  Z: 78
  valence: 16
  core: 62
  charge: 0.0
  file: /software/kemi/gpaw-setups/0.9.20000/Pt.RPBE.gz
  cutoffs: 1.29(comp), 2.26(filt), 2.26(core), lmax=2
  valence states:
                energy  radius
    6s(1.00)    -5.516   1.307
    5p(6.00)   -55.971   1.371
    6p(0.00)    -0.856   1.371
    5d(9.00)    -6.087   1.307
    *s          21.695   1.307
    *d          21.125   1.307

  Using partial waves for Pt as LCAO basis

Ag-setup:
  name: Silver
  id: c05e55bab2c3858b3f9398f6d75cb77c
  Z: 47
  valence: 17
  core: 30
  charge: 0.0
  file: /software/kemi/gpaw-setups/0.9.20000/Ag.RPBE.gz
  cutoffs: 1.25(comp), 2.35(filt), 2.19(core), lmax=2
  valence states:
                energy  radius
    5s(1.00)    -4.277   1.286
    4p(6.00)   -58.523   1.328
    5p(0.00)    -0.755   1.328
    4d(10.00)    -7.386   1.180
    *s          22.934   1.286
    *d          19.826   1.180

  Using partial waves for Ag as LCAO basis

Reference energy: -12875804.626151

Spin-paired calculation

Occupation numbers:
  Fermi-Dirac: width=0.1000 eV

Convergence criteria:
  Maximum total energy change: 0.0005 eV / electron
  Maximum integral of absolute density change: 0.0001 electrons
  Maximum integral of absolute eigenstate change: 4e-08 eV^2
  Maximum number of iterations: 333

Symmetries present (total): 1

  ( 1  0  0)
  ( 0  1  0)
  ( 0  0  1)

16 k-points: 4 x 4 x 1 Monkhorst-Pack grid
8 k-points in the irreducible part of the Brillouin zone
       k-points in crystal coordinates                weights
   0:     0.12500000   -0.37500000    0.00000000          2/16
   1:     0.12500000   -0.12500000    0.00000000          2/16
   2:     0.12500000    0.12500000    0.00000000          2/16
   3:     0.12500000    0.37500000    0.00000000          2/16
   4:     0.37500000   -0.37500000    0.00000000          2/16
   5:     0.37500000   -0.12500000    0.00000000          2/16
   6:     0.37500000    0.12500000    0.00000000          2/16
   7:     0.37500000    0.37500000    0.00000000          2/16

Wave functions: Plane wave expansion
  Cutoff energy: 400.000 eV
  Number of coefficients (min, max): 32894, 32940
  Pulay-stress correction: 0.000000 eV/Ang^3 (de/decut=0.000000)
  Using FFTW library
  ScaLapack parameters: grid=1x1, blocksize=None
  Wavefunction extrapolation:
    Improved wavefunction reuse through dual PAW basis 

Eigensolver
   Davidson(niter=2, smin=None, normalize=True) 

Densities:
  Coarse grid: 35*35*135 grid
  Fine grid: 70*70*270 grid
  Total Charge: 0.000000 

Density mixing:
  Method: separate
  Backend: pulay
  Linear mixing parameter: 0.05
  Mixing with 5 old densities
  Damping of long wave oscillations: 50 

Hamiltonian:
  XC and Coulomb potentials evaluated on a 70*70*270 grid
  Using the RPBE Exchange-Correlation functional
 

XC parameters: RPBE with 2 nearest neighbor stencil

Memory estimate:
  Process memory now: 148.59 MiB
  Calculator: 542.46 MiB
    Density: 48.07 MiB
      Arrays: 16.41 MiB
      Localized functions: 25.30 MiB
      Mixer: 6.36 MiB
    Hamiltonian: 11.50 MiB
      Arrays: 10.73 MiB
      XC: 0.00 MiB
      Poisson: 0.00 MiB
      vbar: 0.77 MiB
    Wavefunctions: 482.89 MiB
      Arrays psit_nG: 218.64 MiB
      Eigensolver: 250.04 MiB
      Projections: 2.69 MiB
      Projectors: 4.90 MiB
      PW-descriptor: 6.62 MiB

Total number of cores used: 16
Parallelization over k-points: 8
Domain decomposition: 1 x 1 x 2

Number of atoms: 45
Number of atomic orbitals: 546
Number of bands in calculation: 435
Bands to converge: occupied states only
Number of valence electrons: 717

... initialized

Initializing position-dependent things.

Density initialized from atomic densities
Creating initial wave functions:
  435 bands from LCAO basis set

                                            
                                            
                                            
                                            
                 Ag     Ir     Ir           
                                            
            Pd    RPd    PIr   Ir           
       Ir     Pt     Ag                     
             Pd     Pd     Pd               
        Ir     Pd     Ag                    
                     Ir     Ir    Pt        
                Ag     Ru     Pd            
           Pt     Ag     Pd                 
                 Ru     Pt     Ir           
            Pt     Pt     Pt                
                  Pd     Pd    Ru           
       Ag    RAg    IAg    Pt               
                                            
        Pd     Ir     Ru                    
                                            
                                            
                                            
                                            

Positions:
   0 Pd     0.000000    1.624086   10.000000    ( 0.0000,  0.0000,  0.0000)
   1 Ir     2.812999    1.624086   10.000000    ( 0.0000,  0.0000,  0.0000)
   2 Ru     5.625998    1.624086   10.000000    ( 0.0000,  0.0000,  0.0000)
   3 Ru     1.406500    4.060215   10.000000    ( 0.0000,  0.0000,  0.0000)
   4 Ir     4.219499    4.060215   10.000000    ( 0.0000,  0.0000,  0.0000)
   5 Pt     7.032498    4.060215   10.000000    ( 0.0000,  0.0000,  0.0000)
   6 Pd     2.812999    6.496343   10.000000    ( 0.0000,  0.0000,  0.0000)
   7 Pd     5.625998    6.496343   10.000000    ( 0.0000,  0.0000,  0.0000)
   8 Ru     8.438997    6.496343   10.000000    ( 0.0000,  0.0000,  0.0000)
   9 Ag     0.000000    0.000000   12.296804    ( 0.0000,  0.0000,  0.0000)
  10 Ag     2.812999    0.000000   12.296804    ( 0.0000,  0.0000,  0.0000)
  11 Ag     5.625998    0.000000   12.296804    ( 0.0000,  0.0000,  0.0000)
  12 Pt     1.406500    2.436129   12.296804    ( 0.0000,  0.0000,  0.0000)
  13 Pt     4.219499    2.436129   12.296804    ( 0.0000,  0.0000,  0.0000)
  14 Pt     7.032498    2.436129   12.296804    ( 0.0000,  0.0000,  0.0000)
  15 Ru     2.812999    4.872257   12.296804    ( 0.0000,  0.0000,  0.0000)
  16 Pt     5.625998    4.872257   12.296804    ( 0.0000,  0.0000,  0.0000)
  17 Ir     8.438997    4.872257   12.296804    ( 0.0000,  0.0000,  0.0000)
  18 Pt     1.406500    0.812043   14.593608    ( 0.0000,  0.0000,  0.0000)
  19 Ag     4.219499    0.812043   14.593608    ( 0.0000,  0.0000,  0.0000)
  20 Pd     7.032498    0.812043   14.593608    ( 0.0000,  0.0000,  0.0000)
  21 Ag     2.812999    3.248172   14.593608    ( 0.0000,  0.0000,  0.0000)
  22 Ru     5.625998    3.248172   14.593608    ( 0.0000,  0.0000,  0.0000)
  23 Pd     8.438997    3.248172   14.593608    ( 0.0000,  0.0000,  0.0000)
  24 Ir     4.219499    5.684300   14.593608    ( 0.0000,  0.0000,  0.0000)
  25 Ir     7.032498    5.684300   14.593608    ( 0.0000,  0.0000,  0.0000)
  26 Pt     9.845497    5.684300   14.593608    ( 0.0000,  0.0000,  0.0000)
  27 Ir     0.000000    1.624086   16.890413    ( 0.0000,  0.0000,  0.0000)
  28 Pd     2.812999    1.624086   16.890413    ( 0.0000,  0.0000,  0.0000)
  29 Ag     5.625998    1.624086   16.890413    ( 0.0000,  0.0000,  0.0000)
  30 Pd     1.406500    4.060215   16.890413    ( 0.0000,  0.0000,  0.0000)
  31 Pd     4.219499    4.060215   16.890413    ( 0.0000,  0.0000,  0.0000)
  32 Pd     7.032498    4.060215   16.890413    ( 0.0000,  0.0000,  0.0000)
  33 Ru     2.812999    6.496343   16.890413    ( 0.0000,  0.0000,  0.0000)
  34 Pd     5.625998    6.496343   16.890413    ( 0.0000,  0.0000,  0.0000)
  35 Ir     8.438997    6.496343   16.890413    ( 0.0000,  0.0000,  0.0000)
  36 Ir     0.000000    0.000000   19.187217    ( 0.0000,  0.0000,  0.0000)
  37 Pt     2.812999    0.000000   19.187217    ( 0.0000,  0.0000,  0.0000)
  38 Ag     5.625998    0.000000   19.187217    ( 0.0000,  0.0000,  0.0000)
  39 Pd     1.406500    2.436129   19.187217    ( 0.0000,  0.0000,  0.0000)
  40 Pd     4.219499    2.436129   19.187217    ( 0.0000,  0.0000,  0.0000)
  41 Ir     7.032498    2.436129   19.187217    ( 0.0000,  0.0000,  0.0000)
  42 Ag     2.812999    4.872257   19.187217    ( 0.0000,  0.0000,  0.0000)
  43 Ir     5.625998    4.872257   19.187217    ( 0.0000,  0.0000,  0.0000)
  44 Ir     8.438997    4.872257   19.187217    ( 0.0000,  0.0000,  0.0000)

Unit cell:
           periodic     x           y           z      points  spacing
  1. axis:    yes    8.465341    0.000000    0.000000    35     0.2095
  2. axis:    yes    4.232670    7.331200    0.000000    35     0.2095
  3. axis:    no     0.000000    0.000000   29.187217   135     0.2162

  Lengths:   8.465341   8.465341  29.187217
  Angles:   90.000000  90.000000  60.000000

Effective grid spacing dv^(1/3) = 0.2221

                     log10-error:    total        iterations:
           time      wfs    density  energy       fermi  poisson
iter:   1  15:13:04  +0.32   +inf  -315.672671    2             
iter:   2  15:14:30  -0.58  -1.16  -376.729650    4             
iter:   3  15:15:55  -0.62  -1.10  -359.209651    3             
iter:   4  15:17:20  -1.26  -1.12  -265.121368    35            
iter:   5  15:18:45  -1.71  -1.33  -240.810691    34            
iter:   6  15:20:10  -1.91  -1.45  -237.376777    37            
iter:   7  15:21:36  -2.23  -1.49  -234.656788    3             
iter:   8  15:22:51  -2.27  -1.55  -231.225944    3             
iter:   9  15:24:02  -1.82  -1.69  -240.871196    3             
iter:  10  15:25:15  -2.23  -1.57  -229.887391    3             
iter:  11  15:26:29  -2.93  -1.99  -229.505842    3             
iter:  12  15:27:41  -3.29  -2.09  -229.408412    3             
iter:  13  15:28:55  -3.58  -2.15  -229.294750    2             
iter:  14  15:30:07  -3.34  -2.23  -229.461937    3             
iter:  15  15:31:20  -3.39  -2.26  -229.244073    3             
iter:  16  15:32:33  -3.59  -2.42  -229.430356    3             
iter:  17  15:33:46  -3.72  -2.29  -229.153434    3             
iter:  18  15:35:00  -3.87  -2.54  -229.084123    3             
iter:  19  15:36:11  -3.96  -2.70  -229.067872    3             
iter:  20  15:37:25  -4.32  -2.75  -229.072116    2             
iter:  21  15:38:38  -4.33  -2.72  -229.045376    3             
iter:  22  15:39:51  -4.56  -2.87  -229.080986    3             
iter:  23  15:41:03  -4.41  -2.75  -229.041113    3             
iter:  24  15:42:17  -4.80  -2.96  -229.038479    3             
iter:  25  15:43:30  -5.05  -3.07  -229.039747    2             
iter:  26  15:44:43  -5.45  -3.07  -229.040263    2             
iter:  27  15:45:56  -5.43  -3.09  -229.037969    2             
iter:  28  15:47:10  -4.85  -3.16  -229.049910    2             
iter:  29  15:48:22  -5.15  -3.15  -229.035599    3             
iter:  30  15:49:34  -5.75  -3.32  -229.034741    2             
iter:  31  15:50:48  -5.99  -3.47  -229.034717    2             
iter:  32  15:52:00  -6.11  -3.45  -229.035183    2             
iter:  33  15:53:13  -6.20  -3.48  -229.034074    2             
iter:  34  15:54:26  -5.64  -3.62  -229.034915    2             
iter:  35  15:55:39  -6.06  -3.68  -229.033032    2             
iter:  36  15:56:51  -5.67  -3.64  -229.033649    2             
iter:  37  15:58:04  -6.49  -3.86  -229.033275    2             
iter:  38  15:59:14  -6.93  -3.88  -229.033586    2             
iter:  39  16:00:14  -7.33  -3.88  -229.033307    2             
iter:  40  16:01:13  -6.79  -3.99  -229.033239    2             
iter:  41  16:02:12  -6.57  -4.16  -229.032467    2             
iter:  42  16:03:11  -7.20  -4.14  -229.033029    2             
iter:  43  16:04:10  -7.98  -4.30  -229.032907    2             

Converged after 43 iterations.

Dipole moment: (24.692149, 13.970690, -0.034334) |e|*Ang

Energy contributions relative to reference atoms: (reference = -12875804.626151)

Kinetic:       -264.620480
Potential:     +135.658703
External:        +0.000000
XC:             -91.736832
Entropy (-ST):   -2.421240
Local:           -7.123678
--------------------------
Free energy:   -230.243527
Extrapolated:  -229.032907

Fermi level: 0.97501

Showing only first 2 kpts
 Kpt  Band  Eigenvalues  Occupancy
  0   356      0.94008    0.14661
  0   357      0.98145    0.12098
  0   358      1.01049    0.10305
  0   359      1.02928    0.09189

  1   356      0.88116    0.17970
  1   357      0.88680    0.17681
  1   358      0.91051    0.16397
  1   359      0.93411    0.15021



Forces in eV/Ang:
  0 Pd   -0.11518    0.32747   -0.35934
  1 Ir    0.97278    0.67960    0.58855
  2 Ru   -1.10519    0.30458    0.71595
  3 Ru    0.42754    0.28004    1.66301
  4 Ir   -0.59578   -0.83858    1.20578
  5 Pt    0.15663    0.16129    0.11169
  6 Pd   -0.50665   -0.42584   -0.25048
  7 Pd    0.39805   -0.24396   -0.57207
  8 Ru    0.33308   -0.11920    0.52205
  9 Ag   -0.20371   -0.14419   -0.04826
 10 Ag    0.01303   -0.19618   -0.17463
 11 Ag    0.12783   -0.21482   -0.31755
 12 Pt   -0.00462    0.90952   -0.65414
 13 Pt    0.26230    0.64668   -0.79911
 14 Pt   -0.16698    0.31267    0.03489
 15 Ru   -0.33873   -0.56627   -0.96667
 16 Pt   -0.35259   -0.18104    0.57241
 17 Ir    0.76842   -0.10785   -0.87331
 18 Pt   -0.63077   -0.48384    0.68748
 19 Ag    0.06204   -0.01331    0.21329
 20 Pd    0.22385    0.08917    0.54980
 21 Ag    0.05390    0.11976    0.13853
 22 Ru    0.63424    1.59003   -1.02797
 23 Pd   -0.40918   -0.10470    0.07025
 24 Ir    0.25073   -0.47669    0.27450
 25 Ir   -0.45731   -0.95896    0.27798
 26 Pt    0.12099    0.07683    0.17414
 27 Ir   -0.40976   -0.84791    1.09713
 28 Pd   -0.30246   -0.32225    0.22095
 29 Ag    0.07077   -0.05632   -0.08046
 30 Pd   -0.36771    0.33655    0.26435
 31 Pd    0.18954    0.44110   -0.23091
 32 Pd    0.10556   -0.05048    0.02688
 33 Ru    0.37315    0.48682   -0.99075
 34 Pd   -0.22567    0.18683   -0.03209
 35 Ir    0.35575   -0.94677    0.23611
 36 Ir    0.35056    0.39252   -1.59928
 37 Pt   -0.40015   -0.90451   -0.25645
 38 Ag    0.08637   -0.08245    0.89870
 39 Pd   -0.86234   -0.24608    0.10642
 40 Pd    0.36772    0.27623    0.32649
 41 Ir    1.29954    0.77613   -0.83650
 42 Ag    0.01739    0.09964    0.80197
 43 Ir    1.09283    0.35051   -0.46871
 44 Ir   -1.65865   -0.29918   -1.23441

System changes: positions 

Initializing position-dependent things.

Density initialized from wave functions
                                             
                                             
                                             
                                             
                                             
                 Ag      Ir    Ir            
                   Pd                        
            Pd     Ru    PdIr   Ir           
       Ir    PPt    PAg    Pd                
                                             
        Ir     Pd    IAg    Ir     Pt        
                                             
                Ag      Ru    Pd             
           Pt    RAg    PPd    Ir            
                                             
            Pt     Pt    PPt    Ru           
       Ag     Ag     Ag                      
             Ru     Ir     Pt                
        Pd     Ir     Ru                     
                                             
                                             
                                             
                                             
                                             

Positions:
   0 Pd     0.000000    1.624086   10.000000    ( 0.0000,  0.0000,  0.0000)
   1 Ir     2.812999    1.624086   10.000000    ( 0.0000,  0.0000,  0.0000)
   2 Ru     5.625998    1.624086   10.000000    ( 0.0000,  0.0000,  0.0000)
   3 Ru     1.406500    4.060215   10.000000    ( 0.0000,  0.0000,  0.0000)
   4 Ir     4.219499    4.060215   10.000000    ( 0.0000,  0.0000,  0.0000)
   5 Pt     7.032498    4.060215   10.000000    ( 0.0000,  0.0000,  0.0000)
   6 Pd     2.812999    6.496343   10.000000    ( 0.0000,  0.0000,  0.0000)
   7 Pd     5.625998    6.496343   10.000000    ( 0.0000,  0.0000,  0.0000)
   8 Ru     8.438997    6.496343   10.000000    ( 0.0000,  0.0000,  0.0000)
   9 Ag     0.000000    0.000000   12.296804    ( 0.0000,  0.0000,  0.0000)
  10 Ag     2.812999    0.000000   12.296804    ( 0.0000,  0.0000,  0.0000)
  11 Ag     5.625998    0.000000   12.296804    ( 0.0000,  0.0000,  0.0000)
  12 Pt     1.406500    2.436129   12.296804    ( 0.0000,  0.0000,  0.0000)
  13 Pt     4.219499    2.436129   12.296804    ( 0.0000,  0.0000,  0.0000)
  14 Pt     7.032498    2.436129   12.296804    ( 0.0000,  0.0000,  0.0000)
  15 Ru     2.812999    4.872257   12.296804    ( 0.0000,  0.0000,  0.0000)
  16 Pt     5.625998    4.872257   12.296804    ( 0.0000,  0.0000,  0.0000)
  17 Ir     8.438997    4.872257   12.296804    ( 0.0000,  0.0000,  0.0000)
  18 Pt     1.346113    0.765723   14.659424    ( 0.0000,  0.0000,  0.0000)
  19 Ag     4.225438    0.810768   14.614027    ( 0.0000,  0.0000,  0.0000)
  20 Pd     7.053928    0.820580   14.646243    ( 0.0000,  0.0000,  0.0000)
  21 Ag     2.818159    3.259637   14.606870    ( 0.0000,  0.0000,  0.0000)
  22 Ru     5.686717    3.400393   14.495196    ( 0.0000,  0.0000,  0.0000)
  23 Pd     8.399825    3.238148   14.600334    ( 0.0000,  0.0000,  0.0000)
  24 Ir     4.243502    5.638665   14.619887    ( 0.0000,  0.0000,  0.0000)
  25 Ir     6.988718    5.592495   14.620220    ( 0.0000,  0.0000,  0.0000)
  26 Pt     9.857080    5.691656   14.610280    ( 0.0000,  0.0000,  0.0000)
  27 Ir    -0.039228    1.542912   16.995446    ( 0.0000,  0.0000,  0.0000)
  28 Pd     2.784043    1.593235   16.911565    ( 0.0000,  0.0000,  0.0000)
  29 Ag     5.632774    1.618694   16.882710    ( 0.0000,  0.0000,  0.0000)
  30 Pd     1.371297    4.092434   16.915720    ( 0.0000,  0.0000,  0.0000)
  31 Pd     4.237644    4.102443   16.868306    ( 0.0000,  0.0000,  0.0000)
  32 Pd     7.042604    4.055382   16.892986    ( 0.0000,  0.0000,  0.0000)
  33 Ru     2.848723    6.542949   16.795564    ( 0.0000,  0.0000,  0.0000)
  34 Pd     5.604394    6.514229   16.887341    ( 0.0000,  0.0000,  0.0000)
  35 Ir     8.473055    6.405705   16.913016    ( 0.0000,  0.0000,  0.0000)
  36 Ir     0.033561    0.037578   19.034111    ( 0.0000,  0.0000,  0.0000)
  37 Pt     2.774691   -0.086593   19.162665    ( 0.0000,  0.0000,  0.0000)
  38 Ag     5.634267   -0.007893   19.273253    ( 0.0000,  0.0000,  0.0000)
  39 Pd     1.323944    2.412570   19.197404    ( 0.0000,  0.0000,  0.0000)
  40 Pd     4.254702    2.462573   19.218474    ( 0.0000,  0.0000,  0.0000)
  41 Ir     7.156909    2.510431   19.107135    ( 0.0000,  0.0000,  0.0000)
  42 Ag     2.814664    4.881796   19.263993    ( 0.0000,  0.0000,  0.0000)
  43 Ir     5.730620    4.905814   19.142345    ( 0.0000,  0.0000,  0.0000)
  44 Ir     8.280208    4.843615   19.069041    ( 0.0000,  0.0000,  0.0000)

Unit cell:
           periodic     x           y           z      points  spacing
  1. axis:    yes    8.465341    0.000000    0.000000    35     0.2095
  2. axis:    yes    4.232670    7.331200    0.000000    35     0.2095
  3. axis:    no     0.000000    0.000000   29.187217   135     0.2162

  Lengths:   8.465341   8.465341  29.187217
  Angles:   90.000000  90.000000  60.000000

Effective grid spacing dv^(1/3) = 0.2221

                     log10-error:    total        iterations:
           time      wfs    density  energy       fermi  poisson
iter:   1  16:05:36  -0.89   +inf  -297.069559    37            
iter:   2  16:06:35  +0.64  -1.32  -913.829976    33            
iter:   3  16:07:55  -0.34  -0.76  -247.022148    39            
iter:   4  16:09:20  -0.84  -1.61  -236.164828    37            
iter:   5  16:10:45  -1.72  -1.76  -231.857405    3             
iter:   6  16:12:11  -2.54  -2.10  -231.148970    3             
iter:   7  16:13:36  -3.06  -2.21  -230.946111    3             
iter:   8  16:15:01  -2.98  -2.26  -231.419071    3             
iter:   9  16:16:26  -3.40  -2.13  -230.722085    3             
iter:  10  16:17:52  -3.43  -2.36  -230.565674    3             
iter:  11  16:19:17  -3.66  -2.55  -230.512289    3             
iter:  12  16:20:42  -4.16  -2.71  -230.520041    2             
iter:  13  16:22:07  -4.35  -2.64  -230.492219    3             
iter:  14  16:23:32  -4.08  -2.78  -230.488473    3             
iter:  15  16:24:57  -4.56  -2.79  -230.489796    2             
iter:  16  16:26:08  -4.21  -2.76  -230.465775    3             
iter:  17  16:27:20  -4.84  -3.05  -230.464063    3             
iter:  18  16:28:33  -4.86  -3.11  -230.462163    3             
iter:  19  16:29:45  -5.18  -3.14  -230.464948    2             
iter:  20  16:30:57  -4.93  -3.11  -230.456777    3             
iter:  21  16:32:10  -5.14  -3.31  -230.470168    3             
iter:  22  16:33:23  -5.24  -3.04  -230.454622    2             
iter:  23  16:34:35  -5.77  -3.55  -230.454370    2             
iter:  24  16:35:48  -5.55  -3.59  -230.454474    2             
iter:  25  16:37:01  -5.36  -3.59  -230.466891    2             
iter:  26  16:38:13  -5.38  -3.16  -230.454521    2             
iter:  27  16:39:26  -6.23  -3.85  -230.454981    2             
iter:  28  16:40:39  -6.90  -3.73  -230.454605    2             
iter:  29  16:41:52  -7.02  -3.95  -230.454727    2             
iter:  30  16:43:04  -7.00  -3.95  -230.454863    2             
iter:  31  16:44:17  -6.62  -4.03  -230.455366    2             
iter:  32  16:45:29  -7.29  -4.23  -230.454857    2             
iter:  33  16:46:42  -7.72  -4.15  -230.454994    2             

Converged after 33 iterations.

Dipole moment: (27.527124, 14.956702, -0.003012) |e|*Ang

Energy contributions relative to reference atoms: (reference = -12875804.626151)

Kinetic:       -228.240156
Potential:     +103.507443
External:        +0.000000
XC:             -97.509468
Entropy (-ST):   -2.293079
Local:           -7.066275
--------------------------
Free energy:   -231.601534
Extrapolated:  -230.454994

Fermi level: 1.00892

Showing only first 2 kpts
 Kpt  Band  Eigenvalues  Occupancy
  0   356      0.98622    0.13913
  0   357      1.01223    0.12294
  0   358      1.03937    0.10612
  0   359      1.06160    0.09282

  1   356      0.91658    0.17894
  1   357      0.92639    0.17384
  1   358      0.95524    0.15777
  1   359      0.97284    0.14731



Forces in eV/Ang:
  0 Pd   -0.11935    0.32464   -0.36392
  1 Ir    0.96544    0.68792    0.60396
  2 Ru   -1.08248    0.29334    0.69960
  3 Ru    0.41762    0.30526    1.70612
  4 Ir   -0.55948   -0.79596    1.17127
  5 Pt    0.13952    0.16494    0.05029
  6 Pd   -0.49612   -0.41633   -0.25145
  7 Pd    0.38322   -0.25550   -0.58152
  8 Ru    0.32424   -0.14374    0.55372
  9 Ag   -0.22515   -0.12419    0.10067
 10 Ag   -0.03650   -0.16161    0.13858
 11 Ag    0.15984   -0.18481   -0.15715
 12 Pt    0.00102    0.78374   -0.41477
 13 Pt    0.20775    0.62456   -0.76786
 14 Pt   -0.08709    0.17615   -0.04009
 15 Ru   -0.43900   -0.61407   -1.02747
 16 Pt   -0.37448    0.18354    0.02552
 17 Ir    0.89618   -0.08404   -0.93470
 18 Pt    0.06565    0.03008    0.06915
 19 Ag   -0.13922    0.01464    0.17518
 20 Pd   -0.13745    0.22160   -0.20165
 21 Ag   -0.15048   -0.29568    0.16823
 22 Ru   -0.10561   -0.25359    0.03855
 23 Pd    0.21424   -0.15069    0.06865
 24 Ir   -0.14814    0.04933   -0.22549
 25 Ir    0.24013    0.23426   -0.01101
 26 Pt   -0.01652   -0.03404   -0.04226
 27 Ir   -0.10371    0.10506   -0.40824
 28 Pd    0.06800    0.09625    0.28565
 29 Ag   -0.47366    0.09475    0.08004
 30 Pd    0.27482   -0.20299    0.11145
 31 Pd   -0.12450   -0.11218    0.21883
 32 Pd   -0.38792   -0.41437   -1.02204
 33 Ru   -0.05570   -0.15243   -0.19806
 34 Pd    0.21995   -0.24642   -0.38279
 35 Ir    0.29021    0.15247   -0.01763
 36 Ir   -0.10959   -0.33262    0.23595
 37 Pt    0.13341    0.12626   -0.02715
 38 Ag    0.04045    0.01233    0.33922
 39 Pd    0.36148    0.02973    0.24649
 40 Pd    0.16484    0.17382   -0.04655
 41 Ir   -0.14811   -0.09347   -0.14178
 42 Ag    0.07377    0.04075    0.23954
 43 Ir   -0.45460   -0.11007   -0.17113
 44 Ir    0.34679    0.25275    0.09771

System changes: positions 

Initializing position-dependent things.

Density initialized from wave functions
                                             
                                             
                                             
                                             
                                             
                  Ag     Ir    Ir            
                                             
            Pd     Pd    PdIr   Ir           
       Ir    PPt    PAg    Pd                
                                             
        Ir     Pd    IAg    Ir     Pt        
                                             
                Ag      Ru    Pd             
           Pt    RAg    PPd    Ir            
                                             
            Pt     Pt    PPt    Ru           
       Ag     Ag     Ag                      
              Ru    Ir     Pt                
        Pd     Ir     Ru                     
                                             
                                             
                                             
                                             
                                             

Positions:
   0 Pd     0.000000    1.624086   10.000000    ( 0.0000,  0.0000,  0.0000)
   1 Ir     2.812999    1.624086   10.000000    ( 0.0000,  0.0000,  0.0000)
   2 Ru     5.625998    1.624086   10.000000    ( 0.0000,  0.0000,  0.0000)
   3 Ru     1.406500    4.060215   10.000000    ( 0.0000,  0.0000,  0.0000)
   4 Ir     4.219499    4.060215   10.000000    ( 0.0000,  0.0000,  0.0000)
   5 Pt     7.032498    4.060215   10.000000    ( 0.0000,  0.0000,  0.0000)
   6 Pd     2.812999    6.496343   10.000000    ( 0.0000,  0.0000,  0.0000)
   7 Pd     5.625998    6.496343   10.000000    ( 0.0000,  0.0000,  0.0000)
   8 Ru     8.438997    6.496343   10.000000    ( 0.0000,  0.0000,  0.0000)
   9 Ag     0.000000    0.000000   12.296804    ( 0.0000,  0.0000,  0.0000)
  10 Ag     2.812999    0.000000   12.296804    ( 0.0000,  0.0000,  0.0000)
  11 Ag     5.625998    0.000000   12.296804    ( 0.0000,  0.0000,  0.0000)
  12 Pt     1.406500    2.436129   12.296804    ( 0.0000,  0.0000,  0.0000)
  13 Pt     4.219499    2.436129   12.296804    ( 0.0000,  0.0000,  0.0000)
  14 Pt     7.032498    2.436129   12.296804    ( 0.0000,  0.0000,  0.0000)
  15 Ru     2.812999    4.872257   12.296804    ( 0.0000,  0.0000,  0.0000)
  16 Pt     5.625998    4.872257   12.296804    ( 0.0000,  0.0000,  0.0000)
  17 Ir     8.438997    4.872257   12.296804    ( 0.0000,  0.0000,  0.0000)
  18 Pt     1.344989    0.763074   14.673045    ( 0.0000,  0.0000,  0.0000)
  19 Ag     4.213853    0.811912   14.631795    ( 0.0000,  0.0000,  0.0000)
  20 Pd     7.044271    0.841078   14.634500    ( 0.0000,  0.0000,  0.0000)
  21 Ag     2.805493    3.234900   14.623208    ( 0.0000,  0.0000,  0.0000)
  22 Ru     5.684360    3.395466   14.487334    ( 0.0000,  0.0000,  0.0000)
  23 Pd     8.414218    3.223726   14.607151    ( 0.0000,  0.0000,  0.0000)
  24 Ir     4.233197    5.637790   14.603029    ( 0.0000,  0.0000,  0.0000)
  25 Ir     7.004864    5.602630   14.622295    ( 0.0000,  0.0000,  0.0000)
  26 Pt     9.856950    5.689498   14.608464    ( 0.0000,  0.0000,  0.0000)
  27 Ir    -0.052852    1.542881   16.971497    ( 0.0000,  0.0000,  0.0000)
  28 Pd     2.786721    1.598185   16.939149    ( 0.0000,  0.0000,  0.0000)
  29 Ag     5.591821    1.626425   16.888880    ( 0.0000,  0.0000,  0.0000)
  30 Pd     1.391480    4.078237   16.928434    ( 0.0000,  0.0000,  0.0000)
  31 Pd     4.228752    4.097392   16.885056    ( 0.0000,  0.0000,  0.0000)
  32 Pd     7.009586    4.018325   16.803243    ( 0.0000,  0.0000,  0.0000)
  33 Ru     2.847902    6.534852   16.767265    ( 0.0000,  0.0000,  0.0000)
  34 Pd     5.621298    6.494567   16.853267    ( 0.0000,  0.0000,  0.0000)
  35 Ir     8.502517    6.408768   16.914049    ( 0.0000,  0.0000,  0.0000)
  36 Ir     0.027746    0.012575   19.037382    ( 0.0000,  0.0000,  0.0000)
  37 Pt     2.782062   -0.085376   19.157465    ( 0.0000,  0.0000,  0.0000)
  38 Ag     5.638776   -0.007710   19.312980    ( 0.0000,  0.0000,  0.0000)
  39 Pd     1.346345    2.412494   19.220284    ( 0.0000,  0.0000,  0.0000)
  40 Pd     4.273251    2.480912   19.217948    ( 0.0000,  0.0000,  0.0000)
  41 Ir     7.158093    2.510696   19.085484    ( 0.0000,  0.0000,  0.0000)
  42 Ag     2.821354    4.886477   19.293878    ( 0.0000,  0.0000,  0.0000)
  43 Ir     5.702539    4.899956   19.122136    ( 0.0000,  0.0000,  0.0000)
  44 Ir     8.292594    4.862605   19.064130    ( 0.0000,  0.0000,  0.0000)

Unit cell:
           periodic     x           y           z      points  spacing
  1. axis:    yes    8.465341    0.000000    0.000000    35     0.2095
  2. axis:    yes    4.232670    7.331200    0.000000    35     0.2095
  3. axis:    no     0.000000    0.000000   29.187217   135     0.2162

  Lengths:   8.465341   8.465341  29.187217
  Angles:   90.000000  90.000000  60.000000

Effective grid spacing dv^(1/3) = 0.2221

                     log10-error:    total        iterations:
           time      wfs    density  energy       fermi  poisson
iter:   1  16:48:26  -1.77   +inf  -239.062761    3             
iter:   2  16:49:39  -1.08  -1.74  -411.900883    37            
iter:   3  16:50:51  -1.49  -1.12  -234.321234    38            
iter:   4  16:52:03  -2.37  -1.90  -231.323510    3             
iter:   5  16:53:16  -3.38  -2.26  -230.795965    3             
iter:   6  16:54:29  -4.12  -2.61  -230.724014    3             
iter:   7  16:55:42  -4.26  -2.76  -230.705338    2             
iter:   8  16:56:54  -4.04  -2.79  -230.694706    3             
iter:   9  16:58:06  -4.42  -2.81  -230.712536    3             
iter:  10  16:59:19  -4.62  -2.74  -230.680753    3             
iter:  11  17:00:31  -4.52  -2.96  -230.677625    2             
iter:  12  17:01:44  -4.91  -2.98  -230.667917    2             
iter:  13  17:02:57  -5.40  -3.13  -230.662285    2             
iter:  14  17:04:10  -5.21  -3.34  -230.659688    2             
iter:  15  17:05:23  -5.71  -3.44  -230.659661    2             
iter:  16  17:06:35  -5.37  -3.53  -230.659482    2             
iter:  17  17:07:35  -5.78  -3.66  -230.658340    2             
iter:  18  17:08:34  -6.18  -3.78  -230.658628    2             
iter:  19  17:09:33  -6.12  -3.78  -230.661381    2             
iter:  20  17:10:32  -6.15  -3.48  -230.658105    2             
iter:  21  17:11:31  -6.49  -3.91  -230.658442    2             
iter:  22  17:12:31  -6.64  -4.09  -230.658453    2             
iter:  23  17:13:31  -6.99  -4.17  -230.658366    2             
iter:  24  17:14:29  -7.06  -4.16  -230.658584    2             
iter:  25  17:15:28  -7.22  -4.15  -230.658871    2             
iter:  26  17:16:28  -7.31  -4.04  -230.658495    2             
iter:  27  17:17:27  -7.52  -4.26  -230.658715    2             

Converged after 27 iterations.

Dipole moment: (26.748556, 15.993242, 0.004846) |e|*Ang

Energy contributions relative to reference atoms: (reference = -12875804.626151)

Kinetic:       -236.521567
Potential:     +110.697692
External:        +0.000000
XC:             -96.603986
Entropy (-ST):   -2.289024
Local:           -7.086341
--------------------------
Free energy:   -231.803227
Extrapolated:  -230.658715

Fermi level: 1.00940

Showing only first 2 kpts
 Kpt  Band  Eigenvalues  Occupancy
  0   356      0.98806    0.13829
  0   357      1.00874    0.12541
  0   358      1.03844    0.10698
  0   359      1.06346    0.09201

  1   356      0.91058    0.18218
  1   357      0.92582    0.17439
  1   358      0.95660    0.15725
  1   359      0.98089    0.14270



Forces in eV/Ang:
  0 Pd   -0.12242    0.32237   -0.35544
  1 Ir    0.96113    0.68493    0.60418
  2 Ru   -1.08454    0.28884    0.69730
  3 Ru    0.41536    0.30187    1.68965
  4 Ir   -0.56469   -0.79596    1.18111
  5 Pt    0.14243    0.15836    0.05517
  6 Pd   -0.49553   -0.41486   -0.24327
  7 Pd    0.38204   -0.25713   -0.57357
  8 Ru    0.33004   -0.14102    0.56072
  9 Ag   -0.20697   -0.10540    0.10409
 10 Ag   -0.03069   -0.14435    0.15621
 11 Ag    0.12496   -0.17553   -0.13396
 12 Pt    0.01220    0.78340   -0.42073
 13 Pt    0.18259    0.61842   -0.71442
 14 Pt   -0.07505    0.21614   -0.06855
 15 Ru   -0.41378   -0.65822   -0.97849
 16 Pt   -0.34060    0.19404    0.02409
 17 Ir    0.88268   -0.10123   -0.92301
 18 Pt    0.03107    0.00779   -0.05713
 19 Ag   -0.07770   -0.01187    0.02146
 20 Pd   -0.17323    0.08942   -0.09906
 21 Ag   -0.02144   -0.10042    0.07242
 22 Ru   -0.13258   -0.15191   -0.07571
 23 Pd    0.20758   -0.04245   -0.11881
 24 Ir   -0.13950   -0.07919   -0.12267
 25 Ir    0.14272    0.08492   -0.23189
 26 Pt    0.00050   -0.06490   -0.06347
 27 Ir   -0.07848   -0.09994    0.01155
 28 Pd   -0.07630    0.01414    0.21428
 29 Ag   -0.18233   -0.11002    0.07689
 30 Pd    0.04006   -0.10906    0.16229
 31 Pd   -0.17788    0.03301    0.06099
 32 Pd    0.05961   -0.11573   -0.03405
 33 Ru   -0.00687    0.02240   -0.00812
 34 Pd    0.10504   -0.12729   -0.03988
 35 Ir    0.11498   -0.10189    0.09036
 36 Ir    0.07972   -0.07082   -0.19490
 37 Pt    0.03754   -0.00954   -0.07497
 38 Ag    0.04287    0.05222    0.22339
 39 Pd    0.06883   -0.07055    0.11378
 40 Pd    0.12072    0.11087    0.06385
 41 Ir    0.04951    0.09309   -0.24507
 42 Ag   -0.00464    0.02590    0.19375
 43 Ir    0.04348    0.01043   -0.28136
 44 Ir   -0.15658   -0.06877   -0.34256

System changes: positions 

Initializing position-dependent things.

Density initialized from wave functions
                                             
                                             
                                             
                                             
                                             
                  Ag     Ir    Ir            
                                             
            Pd     RPd   PdIr   Ir           
        Ir    Pt    PAg                      
                           Pd                
        Ir     Pd    IAg    Ir     Pt        
                                             
                Ag     Ru     Pd             
           Pt     Ag    PPd    Ir            
                                             
            Pt     Pt    PPt    Ru           
       Ag     Ag     Ag                      
              Ru    Ir     Pt                
         Pd    Ir     Ru                     
                                             
                                             
                                             
                                             
                                             

Positions:
   0 Pd     0.000000    1.624086   10.000000    ( 0.0000,  0.0000,  0.0000)
   1 Ir     2.812999    1.624086   10.000000    ( 0.0000,  0.0000,  0.0000)
   2 Ru     5.625998    1.624086   10.000000    ( 0.0000,  0.0000,  0.0000)
   3 Ru     1.406500    4.060215   10.000000    ( 0.0000,  0.0000,  0.0000)
   4 Ir     4.219499    4.060215   10.000000    ( 0.0000,  0.0000,  0.0000)
   5 Pt     7.032498    4.060215   10.000000    ( 0.0000,  0.0000,  0.0000)
   6 Pd     2.812999    6.496343   10.000000    ( 0.0000,  0.0000,  0.0000)
   7 Pd     5.625998    6.496343   10.000000    ( 0.0000,  0.0000,  0.0000)
   8 Ru     8.438997    6.496343   10.000000    ( 0.0000,  0.0000,  0.0000)
   9 Ag     0.000000    0.000000   12.296804    ( 0.0000,  0.0000,  0.0000)
  10 Ag     2.812999    0.000000   12.296804    ( 0.0000,  0.0000,  0.0000)
  11 Ag     5.625998    0.000000   12.296804    ( 0.0000,  0.0000,  0.0000)
  12 Pt     1.406500    2.436129   12.296804    ( 0.0000,  0.0000,  0.0000)
  13 Pt     4.219499    2.436129   12.296804    ( 0.0000,  0.0000,  0.0000)
  14 Pt     7.032498    2.436129   12.296804    ( 0.0000,  0.0000,  0.0000)
  15 Ru     2.812999    4.872257   12.296804    ( 0.0000,  0.0000,  0.0000)
  16 Pt     5.625998    4.872257   12.296804    ( 0.0000,  0.0000,  0.0000)
  17 Ir     8.438997    4.872257   12.296804    ( 0.0000,  0.0000,  0.0000)
  18 Pt     1.346030    0.760662   14.676020    ( 0.0000,  0.0000,  0.0000)
  19 Ag     4.196831    0.810926   14.645930    ( 0.0000,  0.0000,  0.0000)
  20 Pd     7.016120    0.865495   14.616431    ( 0.0000,  0.0000,  0.0000)
  21 Ag     2.795402    3.207346   14.643090    ( 0.0000,  0.0000,  0.0000)
  22 Ru     5.667590    3.378363   14.468449    ( 0.0000,  0.0000,  0.0000)
  23 Pd     8.449043    3.209143   14.595376    ( 0.0000,  0.0000,  0.0000)
  24 Ir     4.209328    5.624701   14.577691    ( 0.0000,  0.0000,  0.0000)
  25 Ir     7.031769    5.616232   14.593303    ( 0.0000,  0.0000,  0.0000)
  26 Pt     9.857419    5.679779   14.599523    ( 0.0000,  0.0000,  0.0000)
  27 Ir    -0.073038    1.526017   16.963385    ( 0.0000,  0.0000,  0.0000)
  28 Pd     2.776790    1.601715   16.985088    ( 0.0000,  0.0000,  0.0000)
  29 Ag     5.543529    1.615872   16.902551    ( 0.0000,  0.0000,  0.0000)
  30 Pd     1.407241    4.056539   16.958827    ( 0.0000,  0.0000,  0.0000)
  31 Pd     4.200286    4.100638   16.902175    ( 0.0000,  0.0000,  0.0000)
  32 Pd     6.998735    3.980823   16.746251    ( 0.0000,  0.0000,  0.0000)
  33 Ru     2.847971    6.535064   16.745695    ( 0.0000,  0.0000,  0.0000)
  34 Pd     5.644476    6.466619   16.827823    ( 0.0000,  0.0000,  0.0000)
  35 Ir     8.536683    6.393061   16.927785    ( 0.0000,  0.0000,  0.0000)
  36 Ir     0.036493   -0.010061   19.006659    ( 0.0000,  0.0000,  0.0000)
  37 Pt     2.789860   -0.089530   19.143287    ( 0.0000,  0.0000,  0.0000)
  38 Ag     5.647544   -0.000879   19.369934    ( 0.0000,  0.0000,  0.0000)
  39 Pd     1.365331    2.401952   19.249451    ( 0.0000,  0.0000,  0.0000)
  40 Pd     4.301855    2.507700   19.227553    ( 0.0000,  0.0000,  0.0000)
  41 Ir     7.170609    2.526488   19.036424    ( 0.0000,  0.0000,  0.0000)
  42 Ag     2.824710    4.893106   19.340690    ( 0.0000,  0.0000,  0.0000)
  43 Ir     5.696303    4.899324   19.070476    ( 0.0000,  0.0000,  0.0000)
  44 Ir     8.272141    4.863246   19.010128    ( 0.0000,  0.0000,  0.0000)

Unit cell:
           periodic     x           y           z      points  spacing
  1. axis:    yes    8.465341    0.000000    0.000000    35     0.2095
  2. axis:    yes    4.232670    7.331200    0.000000    35     0.2095
  3. axis:    no     0.000000    0.000000   29.187217   135     0.2162

  Lengths:   8.465341   8.465341  29.187217
  Angles:   90.000000  90.000000  60.000000

Effective grid spacing dv^(1/3) = 0.2221

                     log10-error:    total        iterations:
           time      wfs    density  energy       fermi  poisson
iter:   1  17:18:53  -1.77   +inf  -231.567662    3             
iter:   2  17:19:52  -2.17  -2.19  -253.518051    3             
iter:   3  17:20:48  -2.45  -1.52  -230.958684    3             
iter:   4  17:21:45  -3.41  -2.54  -230.880333    3             
iter:   5  17:22:44  -3.95  -2.57  -230.829485    3             
iter:   6  17:23:43  -4.22  -2.73  -230.806197    3             
iter:   7  17:24:42  -4.02  -2.79  -230.790410    3             
iter:   8  17:25:41  -4.01  -2.91  -230.849201    3             
iter:   9  17:26:41  -4.49  -2.65  -230.786460    3             
iter:  10  17:27:40  -4.93  -2.97  -230.772005    2             
iter:  11  17:29:03  -5.20  -3.20  -230.772016    3             
iter:  12  17:30:28  -5.20  -3.26  -230.768376    2             
iter:  13  17:31:54  -5.33  -3.31  -230.767837    3             
iter:  14  17:33:19  -5.28  -3.41  -230.768414    2             
iter:  15  17:34:45  -4.98  -3.35  -230.784820    2             
iter:  16  17:36:10  -5.28  -3.03  -230.766764    2             
iter:  17  17:37:36  -5.84  -3.60  -230.767762    2             
iter:  18  17:39:02  -6.11  -3.64  -230.766512    2             
iter:  19  17:40:27  -6.26  -3.77  -230.766742    2             
iter:  20  17:41:53  -6.43  -3.94  -230.766652    2             
iter:  21  17:43:18  -6.25  -3.98  -230.767310    2             
iter:  22  17:44:44  -6.95  -3.80  -230.766522    2             
iter:  23  17:46:09  -7.01  -4.15  -230.766766    2             
iter:  24  17:47:35  -6.97  -4.18  -230.766409    2             
iter:  25  17:48:46  -7.18  -4.24  -230.766661    2             
iter:  26  17:49:58  -7.24  -4.24  -230.766605    2             
iter:  27  17:51:10  -7.64  -4.43  -230.766665    2             

Converged after 27 iterations.

Dipole moment: (25.131087, 16.590291, 0.015389) |e|*Ang

Energy contributions relative to reference atoms: (reference = -12875804.626151)

Kinetic:       -230.726703
Potential:     +105.609257
External:        +0.000000
XC:             -97.415898
Entropy (-ST):   -2.267741
Local:           -7.099449
--------------------------
Free energy:   -231.900535
Extrapolated:  -230.766665

Fermi level: 1.01630

Showing only first 2 kpts
 Kpt  Band  Eigenvalues  Occupancy
  0   356      0.99869    0.13598
  0   357      1.01626    0.12502
  0   358      1.04369    0.10799
  0   359      1.06788    0.09346

  1   356      0.91859    0.18163
  1   357      0.93113    0.17523
  1   358      0.95862    0.16009
  1   359      0.99178    0.14025



Forces in eV/Ang:
  0 Pd   -0.12487    0.32240   -0.35277
  1 Ir    0.95350    0.68512    0.59958
  2 Ru   -1.08226    0.28536    0.68341
  3 Ru    0.41645    0.29718    1.64090
  4 Ir   -0.57276   -0.79763    1.17277
  5 Pt    0.15045    0.15451    0.05440
  6 Pd   -0.49765   -0.41813   -0.24568
  7 Pd    0.38283   -0.26062   -0.57695
  8 Ru    0.33953   -0.15008    0.55335
  9 Ag   -0.20376   -0.08701    0.10220
 10 Ag   -0.02315   -0.10284    0.10396
 11 Ag    0.08387   -0.16824   -0.14858
 12 Pt    0.05881    0.77863   -0.48571
 13 Pt    0.13027    0.59401   -0.72024
 14 Pt   -0.07135    0.24759   -0.13906
 15 Ru   -0.38325   -0.70514   -0.95894
 16 Pt   -0.34262    0.20348   -0.02809
 17 Ir    0.86941   -0.10049   -0.94821
 18 Pt   -0.08421   -0.12658   -0.05889
 19 Ag   -0.02862   -0.06448   -0.03903
 20 Pd   -0.03084   -0.05388    0.06962
 21 Ag    0.07811    0.04879   -0.00454
 22 Ru    0.00850    0.10605   -0.03555
 23 Pd   -0.02481    0.07312   -0.14197
 24 Ir    0.02040   -0.08151    0.01725
 25 Ir   -0.06081   -0.26520   -0.15435
 26 Pt   -0.01279   -0.05883   -0.00932
 27 Ir    0.01187   -0.11072   -0.12086
 28 Pd   -0.15738   -0.05217   -0.01980
 29 Ag    0.06799   -0.14537    0.03475
 30 Pd   -0.07482   -0.06321    0.04436
 31 Pd   -0.05876    0.07121   -0.11822
 32 Pd    0.09977    0.04203    0.06811
 33 Ru    0.00349    0.09429    0.07584
 34 Pd    0.01324   -0.00878   -0.10875
 35 Ir    0.02424   -0.06807   -0.06252
 36 Ir    0.12019   -0.03335   -0.08730
 37 Pt    0.01832   -0.02279    0.02121
 38 Ag    0.04452    0.05877    0.08811
 39 Pd   -0.09770   -0.09963    0.09186
 40 Pd    0.02669    0.00796    0.15342
 41 Ir   -0.00621   -0.05429   -0.00129
 42 Ag   -0.07368    0.00434    0.12456
 43 Ir    0.05932    0.07822   -0.09144
 44 Ir    0.03600   -0.08363   -0.04094

System changes: positions 

Initializing position-dependent things.

Density initialized from wave functions
                                             
                                             
                                             
                                             
                                             
                  Ag     Ir    Ir            
                                             
            Pd     RPd   PdIr    Ir          
              Pt    PAg                      
        Ir                 Pd                
        Ir     Pd    IAg    Ir     Pt        
                                             
                Ag     Ru     Pd             
           Pt     Ag    PPd    Ir            
                                             
            Pt     Pt    PPt    Ru           
       Ag     Ag     Ag                      
              Ru    Ir     Pt                
         Pd    Ir     Ru                     
                                             
                                             
                                             
                                             
                                             

Positions:
   0 Pd     0.000000    1.624086   10.000000    ( 0.0000,  0.0000,  0.0000)
   1 Ir     2.812999    1.624086   10.000000    ( 0.0000,  0.0000,  0.0000)
   2 Ru     5.625998    1.624086   10.000000    ( 0.0000,  0.0000,  0.0000)
   3 Ru     1.406500    4.060215   10.000000    ( 0.0000,  0.0000,  0.0000)
   4 Ir     4.219499    4.060215   10.000000    ( 0.0000,  0.0000,  0.0000)
   5 Pt     7.032498    4.060215   10.000000    ( 0.0000,  0.0000,  0.0000)
   6 Pd     2.812999    6.496343   10.000000    ( 0.0000,  0.0000,  0.0000)
   7 Pd     5.625998    6.496343   10.000000    ( 0.0000,  0.0000,  0.0000)
   8 Ru     8.438997    6.496343   10.000000    ( 0.0000,  0.0000,  0.0000)
   9 Ag     0.000000    0.000000   12.296804    ( 0.0000,  0.0000,  0.0000)
  10 Ag     2.812999    0.000000   12.296804    ( 0.0000,  0.0000,  0.0000)
  11 Ag     5.625998    0.000000   12.296804    ( 0.0000,  0.0000,  0.0000)
  12 Pt     1.406500    2.436129   12.296804    ( 0.0000,  0.0000,  0.0000)
  13 Pt     4.219499    2.436129   12.296804    ( 0.0000,  0.0000,  0.0000)
  14 Pt     7.032498    2.436129   12.296804    ( 0.0000,  0.0000,  0.0000)
  15 Ru     2.812999    4.872257   12.296804    ( 0.0000,  0.0000,  0.0000)
  16 Pt     5.625998    4.872257   12.296804    ( 0.0000,  0.0000,  0.0000)
  17 Ir     8.438997    4.872257   12.296804    ( 0.0000,  0.0000,  0.0000)
  18 Pt     1.337339    0.746215   14.671783    ( 0.0000,  0.0000,  0.0000)
  19 Ag     4.188260    0.803821   14.647250    ( 0.0000,  0.0000,  0.0000)
  20 Pd     7.005252    0.867807   14.618013    ( 0.0000,  0.0000,  0.0000)
  21 Ag     2.799817    3.202940   14.649191    ( 0.0000,  0.0000,  0.0000)
  22 Ru     5.664192    3.384352   14.460364    ( 0.0000,  0.0000,  0.0000)
  23 Pd     8.456075    3.211957   14.578442    ( 0.0000,  0.0000,  0.0000)
  24 Ir     4.204835    5.613379   14.571433    ( 0.0000,  0.0000,  0.0000)
  25 Ir     7.033584    5.592287   14.570568    ( 0.0000,  0.0000,  0.0000)
  26 Pt     9.855971    5.670911   14.596240    ( 0.0000,  0.0000,  0.0000)
  27 Ir    -0.077687    1.511199   16.943397    ( 0.0000,  0.0000,  0.0000)
  28 Pd     2.758171    1.597796   16.996541    ( 0.0000,  0.0000,  0.0000)
  29 Ag     5.534403    1.599078   16.910233    ( 0.0000,  0.0000,  0.0000)
  30 Pd     1.405877    4.042527   16.971703    ( 0.0000,  0.0000,  0.0000)
  31 Pd     4.186436    4.107888   16.895593    ( 0.0000,  0.0000,  0.0000)
  32 Pd     7.001915    3.971761   16.727229    ( 0.0000,  0.0000,  0.0000)
  33 Ru     2.847890    6.543699   16.745887    ( 0.0000,  0.0000,  0.0000)
  34 Pd     5.653628    6.456576   16.805031    ( 0.0000,  0.0000,  0.0000)
  35 Ir     8.550829    6.383790   16.923598    ( 0.0000,  0.0000,  0.0000)
  36 Ir     0.050201   -0.022837   18.992892    ( 0.0000,  0.0000,  0.0000)
  37 Pt     2.795048   -0.091843   19.142148    ( 0.0000,  0.0000,  0.0000)
  38 Ag     5.654889    0.007077   19.396917    ( 0.0000,  0.0000,  0.0000)
  39 Pd     1.362914    2.389064   19.269175    ( 0.0000,  0.0000,  0.0000)
  40 Pd     4.313311    2.516774   19.246010    ( 0.0000,  0.0000,  0.0000)
  41 Ir     7.171441    2.522997   19.023582    ( 0.0000,  0.0000,  0.0000)
  42 Ag     2.818365    4.895609   19.368096    ( 0.0000,  0.0000,  0.0000)
  43 Ir     5.695874    4.906518   19.047076    ( 0.0000,  0.0000,  0.0000)
  44 Ir     8.275618    4.857619   18.995103    ( 0.0000,  0.0000,  0.0000)

Unit cell:
           periodic     x           y           z      points  spacing
  1. axis:    yes    8.465341    0.000000    0.000000    35     0.2095
  2. axis:    yes    4.232670    7.331200    0.000000    35     0.2095
  3. axis:    no     0.000000    0.000000   29.187217   135     0.2162

  Lengths:   8.465341   8.465341  29.187217
  Angles:   90.000000  90.000000  60.000000

Effective grid spacing dv^(1/3) = 0.2221

                     log10-error:    total        iterations:
           time      wfs    density  energy       fermi  poisson
iter:   1  17:52:55  -2.33   +inf  -232.383943    3             
iter:   2  17:54:08  -1.88  -2.08  -275.106884    3             
iter:   3  17:55:20  -2.17  -1.39  -231.053044    4             
iter:   4  17:56:33  -3.36  -2.47  -230.984477    3             
iter:   5  17:57:46  -4.07  -2.54  -230.833724    3             
iter:   6  17:58:57  -4.53  -2.98  -230.822985    2             
iter:   7  18:00:10  -4.77  -3.02  -230.815503    2             
iter:   8  18:01:23  -4.62  -3.10  -230.842937    3             
iter:   9  18:02:37  -4.77  -2.81  -230.814167    3             
iter:  10  18:03:49  -5.10  -3.11  -230.808371    2             
iter:  11  18:05:02  -5.10  -3.31  -230.806807    2             
iter:  12  18:06:15  -5.61  -3.34  -230.804757    2             
iter:  13  18:07:29  -6.00  -3.59  -230.804215    2             
iter:  14  18:08:41  -5.44  -3.65  -230.804024    2             
iter:  15  18:09:54  -6.13  -3.78  -230.804611    2             
iter:  16  18:11:07  -6.12  -3.79  -230.803733    2             
iter:  17  18:12:20  -6.48  -3.84  -230.803820    2             
iter:  18  18:13:32  -6.73  -4.05  -230.803556    2             
iter:  19  18:14:46  -6.84  -4.14  -230.803259    2             
iter:  20  18:15:54  -7.10  -4.20  -230.803283    2             
iter:  21  18:16:54  -7.24  -4.41  -230.803287    2             
iter:  22  18:17:54  -7.52  -4.41  -230.803123    2             

Converged after 22 iterations.

Dipole moment: (24.339652, 16.443724, 0.017867) |e|*Ang

Energy contributions relative to reference atoms: (reference = -12875804.626151)

Kinetic:       -227.709810
Potential:     +102.928688
External:        +0.000000
XC:             -97.788466
Entropy (-ST):   -2.255187
Local:           -7.105941
--------------------------
Free energy:   -231.930716
Extrapolated:  -230.803123

Fermi level: 1.01960

Showing only first 2 kpts
 Kpt  Band  Eigenvalues  Occupancy
  0   356      1.00206    0.13593
  0   357      1.01786    0.12608
  0   358      1.04624    0.10844
  0   359      1.06907    0.09469

  1   356      0.92366    0.18075
  1   357      0.93282    0.17607
  1   358      0.95997    0.16120
  1   359      0.99530    0.14011



Forces in eV/Ang:
  0 Pd   -0.12442    0.32226   -0.35553
  1 Ir    0.95197    0.68543    0.60367
  2 Ru   -1.08216    0.28338    0.68273
  3 Ru    0.41791    0.29513    1.61880
  4 Ir   -0.56690   -0.79596    1.16552
  5 Pt    0.15257    0.15663    0.04954
  6 Pd   -0.49820   -0.41801   -0.24560
  7 Pd    0.38446   -0.25971   -0.57959
  8 Ru    0.34165   -0.14883    0.54790
  9 Ag   -0.22021   -0.08545    0.09443
 10 Ag   -0.02664   -0.09119    0.07767
 11 Ag    0.07944   -0.16563   -0.14047
 12 Pt    0.09287    0.75903   -0.50355
 13 Pt    0.11159    0.57722   -0.72073
 14 Pt   -0.08335    0.22527   -0.17125
 15 Ru   -0.38867   -0.72667   -0.97042
 16 Pt   -0.38786    0.22320   -0.13787
 17 Ir    0.89582   -0.09821   -1.01743
 18 Pt   -0.03775   -0.02830   -0.10741
 19 Ag   -0.03136   -0.06638   -0.02142
 20 Pd   -0.00292   -0.05612    0.02458
 21 Ag    0.00394   -0.01615   -0.04304
 22 Ru   -0.01004   -0.07306    0.04190
 23 Pd   -0.03577   -0.02593   -0.04420
 24 Ir    0.00176    0.01961    0.00142
 25 Ir   -0.02677   -0.07677   -0.02773
 26 Pt    0.01859   -0.02098    0.01437
 27 Ir    0.00885   -0.01522    0.02875
 28 Pd   -0.05811   -0.03511   -0.07160
 29 Ag    0.01689   -0.00232    0.04575
 30 Pd   -0.04369   -0.05303   -0.01410
 31 Pd    0.02960   -0.01291   -0.02038
 32 Pd    0.05400    0.01375    0.15259
 33 Ru   -0.01664   -0.03154    0.06232
 34 Pd    0.04258   -0.02336   -0.02406
 35 Ir   -0.02283   -0.03789   -0.01306
 36 Ir    0.07352   -0.01379   -0.08455
 37 Pt    0.04222   -0.04837   -0.00578
 38 Ag    0.03578    0.03102    0.01671
 39 Pd   -0.11692   -0.07517    0.03069
 40 Pd   -0.01018   -0.00798    0.04654
 41 Ir    0.03191   -0.05623   -0.01945
 42 Ag   -0.05906   -0.02440    0.03314
 43 Ir    0.06098    0.05097   -0.01430
 44 Ir   -0.00880   -0.06964    0.05695

System changes: positions 

Initializing position-dependent things.

Density initialized from wave functions
                                             
                                             
                                             
                                             
                                             
                  Ag     Ir    Ir            
                                             
            Pd     RPd    PIr    Ir          
              Pt    PAg                      
        Ir                 Pd                
        Ir     Pd    IAg    Ir     Pt        
                                             
                Ag     Ru     Pd             
           Pt     Ag    PPd    Ir            
                                             
            Pt     Pt    PPt    Ru           
       Ag     Ag     Ag                      
              Ru    Ir     Pt                
         Pd    Ir     Ru                     
                                             
                                             
                                             
                                             
                                             

Positions:
   0 Pd     0.000000    1.624086   10.000000    ( 0.0000,  0.0000,  0.0000)
   1 Ir     2.812999    1.624086   10.000000    ( 0.0000,  0.0000,  0.0000)
   2 Ru     5.625998    1.624086   10.000000    ( 0.0000,  0.0000,  0.0000)
   3 Ru     1.406500    4.060215   10.000000    ( 0.0000,  0.0000,  0.0000)
   4 Ir     4.219499    4.060215   10.000000    ( 0.0000,  0.0000,  0.0000)
   5 Pt     7.032498    4.060215   10.000000    ( 0.0000,  0.0000,  0.0000)
   6 Pd     2.812999    6.496343   10.000000    ( 0.0000,  0.0000,  0.0000)
   7 Pd     5.625998    6.496343   10.000000    ( 0.0000,  0.0000,  0.0000)
   8 Ru     8.438997    6.496343   10.000000    ( 0.0000,  0.0000,  0.0000)
   9 Ag     0.000000    0.000000   12.296804    ( 0.0000,  0.0000,  0.0000)
  10 Ag     2.812999    0.000000   12.296804    ( 0.0000,  0.0000,  0.0000)
  11 Ag     5.625998    0.000000   12.296804    ( 0.0000,  0.0000,  0.0000)
  12 Pt     1.406500    2.436129   12.296804    ( 0.0000,  0.0000,  0.0000)
  13 Pt     4.219499    2.436129   12.296804    ( 0.0000,  0.0000,  0.0000)
  14 Pt     7.032498    2.436129   12.296804    ( 0.0000,  0.0000,  0.0000)
  15 Ru     2.812999    4.872257   12.296804    ( 0.0000,  0.0000,  0.0000)
  16 Pt     5.625998    4.872257   12.296804    ( 0.0000,  0.0000,  0.0000)
  17 Ir     8.438997    4.872257   12.296804    ( 0.0000,  0.0000,  0.0000)
  18 Pt     1.331112    0.739375   14.657283    ( 0.0000,  0.0000,  0.0000)
  19 Ag     4.181622    0.793852   14.645499    ( 0.0000,  0.0000,  0.0000)
  20 Pd     7.001587    0.862206   14.620346    ( 0.0000,  0.0000,  0.0000)
  21 Ag     2.800841    3.198617   14.645984    ( 0.0000,  0.0000,  0.0000)
  22 Ru     5.661352    3.374873   14.464570    ( 0.0000,  0.0000,  0.0000)
  23 Pd     8.454364    3.209063   14.568969    ( 0.0000,  0.0000,  0.0000)
  24 Ir     4.203312    5.613553   14.568997    ( 0.0000,  0.0000,  0.0000)
  25 Ir     7.031881    5.578044   14.561300    ( 0.0000,  0.0000,  0.0000)
  26 Pt     9.857688    5.665883   14.596939    ( 0.0000,  0.0000,  0.0000)
  27 Ir    -0.077764    1.506761   16.938800    ( 0.0000,  0.0000,  0.0000)
  28 Pd     2.746751    1.593087   16.991368    ( 0.0000,  0.0000,  0.0000)
  29 Ag     5.532334    1.594992   16.918159    ( 0.0000,  0.0000,  0.0000)
  30 Pd     1.401555    4.031321   16.973309    ( 0.0000,  0.0000,  0.0000)
  31 Pd     4.186062    4.107308   16.892321    ( 0.0000,  0.0000,  0.0000)
  32 Pd     7.007491    3.969527   16.736476    ( 0.0000,  0.0000,  0.0000)
  33 Ru     2.845276    6.541012   16.753610    ( 0.0000,  0.0000,  0.0000)
  34 Pd     5.662228    6.450069   16.794393    ( 0.0000,  0.0000,  0.0000)
  35 Ir     8.552515    6.378355   16.920371    ( 0.0000,  0.0000,  0.0000)
  36 Ir     0.061963   -0.029589   18.981657    ( 0.0000,  0.0000,  0.0000)
  37 Pt     2.802470   -0.097062   19.141410    ( 0.0000,  0.0000,  0.0000)
  38 Ag     5.661265    0.013033   19.406409    ( 0.0000,  0.0000,  0.0000)
  39 Pd     1.350042    2.376862   19.278970    ( 0.0000,  0.0000,  0.0000)
  40 Pd     4.315258    2.518491   19.256067    ( 0.0000,  0.0000,  0.0000)
  41 Ir     7.173708    2.513849   19.018418    ( 0.0000,  0.0000,  0.0000)
  42 Ag     2.809713    4.893314   19.379442    ( 0.0000,  0.0000,  0.0000)
  43 Ir     5.700233    4.913916   19.039342    ( 0.0000,  0.0000,  0.0000)
  44 Ir     8.278779    4.849064   19.000358    ( 0.0000,  0.0000,  0.0000)

Unit cell:
           periodic     x           y           z      points  spacing
  1. axis:    yes    8.465341    0.000000    0.000000    35     0.2095
  2. axis:    yes    4.232670    7.331200    0.000000    35     0.2095
  3. axis:    no     0.000000    0.000000   29.187217   135     0.2162

  Lengths:   8.465341   8.465341  29.187217
  Angles:   90.000000  90.000000  60.000000

Effective grid spacing dv^(1/3) = 0.2221

                     log10-error:    total        iterations:
           time      wfs    density  energy       fermi  poisson
iter:   1  18:19:20  -2.78   +inf  -231.958570    3             
iter:   2  18:20:18  -1.87  -2.13  -278.128812    37            
iter:   3  18:21:17  -2.23  -1.39  -231.463524    37            
iter:   4  18:22:16  -3.29  -2.27  -230.878390    3             
iter:   5  18:23:15  -4.22  -2.80  -230.845710    3             
iter:   6  18:24:15  -4.60  -2.93  -230.822032    2             
iter:   7  18:25:14  -5.16  -3.32  -230.820179    2             
iter:   8  18:26:13  -5.51  -3.41  -230.822614    2             
iter:   9  18:27:11  -5.44  -3.20  -230.820305    2             
iter:  10  18:28:12  -5.35  -3.47  -230.818141    2             
iter:  11  18:29:24  -5.80  -3.57  -230.817921    2             
iter:  12  18:30:47  -6.21  -3.80  -230.817625    2             
iter:  13  18:32:00  -6.53  -3.89  -230.817549    2             
iter:  14  18:33:12  -5.94  -3.93  -230.817544    2             
iter:  15  18:34:24  -6.46  -3.95  -230.818827    2             
iter:  16  18:35:37  -6.45  -3.72  -230.817456    2             
iter:  17  18:36:50  -7.06  -4.14  -230.817643    2             
iter:  18  18:38:02  -7.17  -4.17  -230.817411    2             
iter:  19  18:39:16  -7.37  -4.41  -230.817430    2             
iter:  20  18:40:28  -7.62  -4.55  -230.817419    2             

Converged after 20 iterations.

Dipole moment: (24.056976, 16.181410, 0.020382) |e|*Ang

Energy contributions relative to reference atoms: (reference = -12875804.626151)

Kinetic:       -227.446801
Potential:     +102.678444
External:        +0.000000
XC:             -97.816627
Entropy (-ST):   -2.252282
Local:           -7.106294
--------------------------
Free energy:   -231.943560
Extrapolated:  -230.817419

Fermi level: 1.02126

Showing only first 2 kpts
 Kpt  Band  Eigenvalues  Occupancy
  0   356      1.00436    0.13554
  0   357      1.02161    0.12478
  0   358      1.04794    0.10842
  0   359      1.07087    0.09461

  1   356      0.92427    0.18128
  1   357      0.93447    0.17608
  1   358      0.96085    0.16165
  1   359      0.99669    0.14028



Forces in eV/Ang:
  0 Pd   -0.12433    0.32114   -0.35477
  1 Ir    0.95217    0.68683    0.60527
  2 Ru   -1.08050    0.28529    0.68259
  3 Ru    0.41966    0.29404    1.61026
  4 Ir   -0.56271   -0.79451    1.16413
  5 Pt    0.15380    0.15834    0.04943
  6 Pd   -0.49631   -0.41750   -0.24403
  7 Pd    0.38410   -0.26017   -0.57424
  8 Ru    0.34221   -0.15141    0.54597
  9 Ag   -0.24569   -0.09468    0.05053
 10 Ag   -0.02488   -0.10145    0.04900
 11 Ag    0.08351   -0.16738   -0.13663
 12 Pt    0.09760    0.75229   -0.54033
 13 Pt    0.11647    0.56034   -0.72267
 14 Pt   -0.10132    0.19677   -0.18098
 15 Ru   -0.38938   -0.72315   -0.97083
 16 Pt   -0.41686    0.18336   -0.13033
 17 Ir    0.90865   -0.09330   -1.04186
 18 Pt   -0.00058   -0.00144   -0.00664
 19 Ag   -0.00600   -0.04903    0.01900
 20 Pd   -0.01667   -0.04179    0.02448
 21 Ag   -0.01043   -0.01146   -0.01557
 22 Ru   -0.00432   -0.02018    0.00667
 23 Pd   -0.04390   -0.03748    0.05004
 24 Ir   -0.00131   -0.03085    0.00408
 25 Ir   -0.01108   -0.03001    0.04104
 26 Pt    0.00991   -0.02174    0.00647
 27 Ir    0.01408   -0.01266   -0.01514
 28 Pd    0.00931   -0.02433   -0.03580
 29 Ag   -0.03747    0.00142   -0.01338
 30 Pd   -0.00696   -0.02230   -0.02696
 31 Pd    0.02154   -0.03875    0.00959
 32 Pd    0.02475   -0.00055    0.02136
 33 Ru   -0.01232   -0.04301    0.00244
 34 Pd    0.01698    0.01548   -0.03588
 35 Ir   -0.00401   -0.04726    0.04843
 36 Ir    0.02695   -0.07310   -0.00362
 37 Pt    0.06019    0.00481   -0.02921
 38 Ag    0.02401   -0.00015   -0.00259
 39 Pd   -0.00210   -0.03922    0.00071
 40 Pd   -0.02997   -0.00458   -0.00751
 41 Ir   -0.01217   -0.02433    0.03765
 42 Ag   -0.02658   -0.03655   -0.00734
 43 Ir   -0.00796   -0.01515    0.02200
 44 Ir    0.00328   -0.03647    0.02157

Timing:                                      incl.     excl.
-------------------------------------------------------------------
Density initialized from wave functions:    14.856    14.856   0.1% |
 Symmetrize density:                         0.000     0.000   0.0% |
Forces:                                     94.631    94.631   0.7% |
Hamiltonian:                                14.003     0.048   0.0% |
 Atomic:                                     3.758     1.501   0.0% |
  XC Correction:                             2.257     2.257   0.0% |
 Calculate atomic Hamiltonians:              4.382     4.382   0.0% |
 Communicate:                                0.025     0.025   0.0% |
 Initialize Hamiltonian:                     0.000     0.000   0.0% |
 Poisson:                                    0.030     0.030   0.0% |
 XC 3D grid:                                 5.759     5.759   0.0% |
LCAO initialization:                        68.170     5.395   0.0% |
 LCAO eigensolver:                           8.997     0.004   0.0% |
  Calculate projections:                     0.092     0.092   0.0% |
  DenseAtomicCorrection:                     0.060     0.060   0.0% |
  Distribute overlap matrix:                 0.023     0.023   0.0% |
  Orbital Layouts:                           0.613     0.613   0.0% |
  Potential matrix:                          8.139     8.139   0.1% |
  Sum over cells:                            0.066     0.066   0.0% |
 LCAO to grid:                              50.642    50.642   0.4% |
 Set positions (LCAO WFS):                   3.137     1.223   0.0% |
  Basic WFS set positions:                   0.003     0.003   0.0% |
  Basis functions set positions:             0.001     0.001   0.0% |
  P tci:                                     0.849     0.849   0.0% |
  ST tci:                                    0.815     0.815   0.0% |
  mktci:                                     0.246     0.246   0.0% |
PWDescriptor:                                0.049     0.049   0.0% |
Redistribute:                                0.032     0.032   0.0% |
SCF-cycle:                               12391.368   147.313   1.2% |
 Davidson:                               11275.707  2567.338  20.3% |-------|
  Apply H:                                1820.293  1759.750  13.9% |-----|
   HMM T:                                   60.543    60.543   0.5% |
  Subspace diag:                          1612.061     0.061   0.0% |
   calc_h_matrix:                          944.941   345.542   2.7% ||
    Apply H:                               599.399   579.432   4.6% |-|
     HMM T:                                 19.967    19.967   0.2% |
   diagonalize:                             25.139    25.139   0.2% |
   rotate_psi:                             641.920   641.920   5.1% |-|
  calc. matrices:                         3524.702  2325.562  18.4% |------|
   Apply H:                               1199.141  1159.208   9.2% |---|
    HMM T:                                  39.932    39.932   0.3% |
  diagonalize:                             469.881   469.881   3.7% ||
  rotate_psi:                             1281.430  1281.430  10.1% |---|
 Density:                                  508.308     0.009   0.0% |
  Atomic density matrices:                   3.273     3.273   0.0% |
  Mix:                                     161.359   161.359   1.3% ||
  Multipole moments:                         0.229     0.229   0.0% |
  Pseudo density:                          343.437   343.429   2.7% ||
   Symmetrize density:                       0.009     0.009   0.0% |
 Hamiltonian:                              422.332     1.491   0.0% |
  Atomic:                                  118.586    51.302   0.4% |
   XC Correction:                           67.285    67.285   0.5% |
  Calculate atomic Hamiltonians:           135.005   135.005   1.1% |
  Communicate:                               1.718     1.718   0.0% |
  Poisson:                                   0.922     0.922   0.0% |
  XC 3D grid:                              164.611   164.611   1.3% ||
 Orthonormalize:                            37.707     0.002   0.0% |
  calc_s_matrix:                             5.792     5.792   0.0% |
  inverse-cholesky:                          0.443     0.443   0.0% |
  projections:                              20.567    20.567   0.2% |
  rotate_psi_s:                             10.903    10.903   0.1% |
Set symmetry:                                0.003     0.003   0.0% |
Other:                                      45.124    45.124   0.4% |
-------------------------------------------------------------------
Total:                                             12628.236 100.0%

Date: Wed Mar  2 18:40:45 2022
