
  ___ ___ ___ _ _ _  
 |   |   |_  | | | | 
 | | | | | . | | | | 
 |__ |  _|___|_____|  1.5.1
 |___|_|             

User:   clausen@node419.cluster
Date:   Fri Mar  4 00:48:25 2022
Arch:   x86_64
Pid:    33519
Python: 3.6.12
gpaw:   /software/kemi/gpaw/1.5.1/gpaw
_gpaw:  /software/kemi/gpaw/1.5.1/bin/gpaw-python
ase:    /software/kemi/ase/3.17.0/ase (version 3.17.0)
numpy:  /opt/rh/rh-python36/root/usr/lib64/python3.6/site-packages/numpy (version 1.13.1)
scipy:  /opt/rh/rh-python36/root/usr/lib64/python3.6/site-packages/scipy (version 0.19.1)
units:  Angstrom and eV
cores:  16

Input parameters:
  kpts: [4 4 1]
  mode: {ecut: 400.0,
         gammacentered: False,
         name: pw}
  xc: RPBE

System changes: positions, numbers, cell, pbc, initial_charges, initial_magmoms 

Initialize ...

Pd-setup:
  name: Palladium
  id: 6da19bfba079f22767af9506641940b9
  Z: 46
  valence: 16
  core: 30
  charge: 0.0
  file: /software/kemi/gpaw-setups/0.9.20000/Pd.RPBE.gz
  cutoffs: 1.19(comp), 2.38(filt), 2.28(core), lmax=2
  valence states:
                energy  radius
    5s(0.00)    -3.225   1.228
    4p(6.00)   -51.131   1.360
    5p(0.00)    -0.373   1.360
    4d(10.00)    -3.964   1.228
    *s          23.987   1.228
    *d          23.247   1.228

  Using partial waves for Pd as LCAO basis

Ag-setup:
  name: Silver
  id: c05e55bab2c3858b3f9398f6d75cb77c
  Z: 47
  valence: 17
  core: 30
  charge: 0.0
  file: /software/kemi/gpaw-setups/0.9.20000/Ag.RPBE.gz
  cutoffs: 1.25(comp), 2.35(filt), 2.19(core), lmax=2
  valence states:
                energy  radius
    5s(1.00)    -4.277   1.286
    4p(6.00)   -58.523   1.328
    5p(0.00)    -0.755   1.328
    4d(10.00)    -7.386   1.180
    *s          22.934   1.286
    *d          19.826   1.180

  Using partial waves for Ag as LCAO basis

Pt-setup:
  name: Platinum
  id: f04f522592575c47ad794f6b4a415b4b
  Z: 78
  valence: 16
  core: 62
  charge: 0.0
  file: /software/kemi/gpaw-setups/0.9.20000/Pt.RPBE.gz
  cutoffs: 1.29(comp), 2.26(filt), 2.26(core), lmax=2
  valence states:
                energy  radius
    6s(1.00)    -5.516   1.307
    5p(6.00)   -55.971   1.371
    6p(0.00)    -0.856   1.371
    5d(9.00)    -6.087   1.307
    *s          21.695   1.307
    *d          21.125   1.307

  Using partial waves for Pt as LCAO basis

Ru-setup:
  name: Ruthenium
  id: 76477906e28f51dc1b29884d53556fe9
  Z: 44
  valence: 16
  core: 28
  charge: 0.0
  file: /software/kemi/gpaw-setups/0.9.20000/Ru.RPBE.gz
  cutoffs: 1.23(comp), 2.16(filt), 1.30(core), lmax=2
  valence states:
                energy  radius
    4s(2.00)   -76.255   1.281
    5s(1.00)    -4.126   1.281
    4p(6.00)   -46.371   1.286
    5p(0.00)    -0.913   1.286
    4d(7.00)    -5.146   1.254
    *d          22.066   1.254

  Using partial waves for Ru as LCAO basis

O-setup:
  name: Oxygen
  id: 08071ca1eed670e7821b24b7eb4d558c
  Z: 8
  valence: 6
  core: 2
  charge: 0.0
  file: /software/kemi/gpaw-setups/0.9.20000/O.RPBE.gz
  cutoffs: 0.67(comp), 1.17(filt), 0.83(core), lmax=2
  valence states:
                energy  radius
    2s(2.00)   -24.041   0.688
    2p(4.00)    -8.984   0.598
    *s           3.170   0.688
    *p          18.228   0.598
    *d           0.000   0.619

  Using partial waves for O as LCAO basis

H-setup:
  name: Hydrogen
  id: ea3f9156a1dc40d47a60fdce8f8bd75d
  Z: 1
  valence: 1
  core: 0
  charge: 0.0
  file: /software/kemi/gpaw-setups/0.9.20000/H.RPBE.gz
  cutoffs: 0.48(comp), 0.85(filt), 0.53(core), lmax=2
  valence states:
                energy  radius
    1s(1.00)    -6.572   0.476
    *s          20.639   0.476
    *p           0.000   0.476

  Using partial waves for H as LCAO basis

Reference energy: -9073466.092496

Spin-paired calculation

Occupation numbers:
  Fermi-Dirac: width=0.1000 eV

Convergence criteria:
  Maximum total energy change: 0.0005 eV / electron
  Maximum integral of absolute density change: 0.0001 electrons
  Maximum integral of absolute eigenstate change: 4e-08 eV^2
  Maximum number of iterations: 333

Symmetries present (total): 1

  ( 1  0  0)
  ( 0  1  0)
  ( 0  0  1)

16 k-points: 4 x 4 x 1 Monkhorst-Pack grid
8 k-points in the irreducible part of the Brillouin zone
       k-points in crystal coordinates                weights
   0:     0.12500000   -0.37500000    0.00000000          2/16
   1:     0.12500000   -0.12500000    0.00000000          2/16
   2:     0.12500000    0.12500000    0.00000000          2/16
   3:     0.12500000    0.37500000    0.00000000          2/16
   4:     0.37500000   -0.37500000    0.00000000          2/16
   5:     0.37500000   -0.12500000    0.00000000          2/16
   6:     0.37500000    0.12500000    0.00000000          2/16
   7:     0.37500000    0.37500000    0.00000000          2/16

Wave functions: Plane wave expansion
  Cutoff energy: 400.000 eV
  Number of coefficients (min, max): 32266, 32339
  Pulay-stress correction: 0.000000 eV/Ang^3 (de/decut=0.000000)
  Using FFTW library
  ScaLapack parameters: grid=1x1, blocksize=None
  Wavefunction extrapolation:
    Improved wavefunction reuse through dual PAW basis 

Eigensolver
   Davidson(niter=2, smin=None, normalize=True) 

Densities:
  Coarse grid: 35*35*135 grid
  Fine grid: 70*70*270 grid
  Total Charge: 0.000000 

Density mixing:
  Method: separate
  Backend: pulay
  Linear mixing parameter: 0.05
  Mixing with 5 old densities
  Damping of long wave oscillations: 50 

Hamiltonian:
  XC and Coulomb potentials evaluated on a 70*70*270 grid
  Using the RPBE Exchange-Correlation functional
 

XC parameters: RPBE with 2 nearest neighbor stencil

Memory estimate:
  Process memory now: 151.29 MiB
  Calculator: 552.99 MiB
    Density: 51.61 MiB
      Arrays: 16.41 MiB
      Localized functions: 28.84 MiB
      Mixer: 6.36 MiB
    Hamiltonian: 11.64 MiB
      Arrays: 10.73 MiB
      XC: 0.00 MiB
      Poisson: 0.00 MiB
      vbar: 0.91 MiB
    Wavefunctions: 489.75 MiB
      Arrays psit_nG: 221.07 MiB
      Eigensolver: 254.17 MiB
      Projections: 2.83 MiB
      Projectors: 5.06 MiB
      PW-descriptor: 6.62 MiB

Total number of cores used: 16
Parallelization over k-points: 8
Domain decomposition: 1 x 1 x 2

Number of atoms: 47
Number of atomic orbitals: 552
Number of bands in calculation: 448
Bands to converge: occupied states only
Number of valence electrons: 739

... initialized

Initializing position-dependent things.

Density initialized from atomic densities
Creating initial wave functions:
  448 bands from LCAO basis set

                                             
                                             
                                             
                                             
                                             
                 O H                         
                                             
                                             
                 Pt      Pd    Ru            
                                             
            Pt    APd    PPd    Ru           
        Pd           Pd                      
              Ru           Pt                
        Pt     Pd    PPd    Pd     Ag        
                                             
                Ag     Ag     Ag             
                                             
           Ag    PAg    APt    Pd            
                                             
            Pd     Ru     Ag     Pd          
       Ag    PRu    PRu    Pt                
                                             
        Pd     Ag     Pt                     
                                             
                                             
                                             
                                             
                                             

Positions:
   0 Pd     0.000000    1.633958   10.000000    ( 0.0000,  0.0000,  0.0000)
   1 Ag     2.830098    1.633958   10.000000    ( 0.0000,  0.0000,  0.0000)
   2 Pt     5.660196    1.633958   10.000000    ( 0.0000,  0.0000,  0.0000)
   3 Pd     1.415049    4.084895   10.000000    ( 0.0000,  0.0000,  0.0000)
   4 Pd     4.245147    4.084895   10.000000    ( 0.0000,  0.0000,  0.0000)
   5 Pt     7.075245    4.084895   10.000000    ( 0.0000,  0.0000,  0.0000)
   6 Pd     2.830098    6.535832   10.000000    ( 0.0000,  0.0000,  0.0000)
   7 Ag     5.660196    6.535832   10.000000    ( 0.0000,  0.0000,  0.0000)
   8 Pd     8.490294    6.535832   10.000000    ( 0.0000,  0.0000,  0.0000)
   9 Ag     0.000000    0.000000   12.310765    ( 0.0000,  0.0000,  0.0000)
  10 Ru     2.830098    0.000000   12.310765    ( 0.0000,  0.0000,  0.0000)
  11 Ru     5.660196    0.000000   12.310765    ( 0.0000,  0.0000,  0.0000)
  12 Pd     1.415049    2.450937   12.310765    ( 0.0000,  0.0000,  0.0000)
  13 Ru     4.245147    2.450937   12.310765    ( 0.0000,  0.0000,  0.0000)
  14 Ag     7.075245    2.450937   12.310765    ( 0.0000,  0.0000,  0.0000)
  15 Pd     2.830098    4.901874   12.310765    ( 0.0000,  0.0000,  0.0000)
  16 Ag     5.660196    4.901874   12.310765    ( 0.0000,  0.0000,  0.0000)
  17 Pd     8.490294    4.901874   12.310765    ( 0.0000,  0.0000,  0.0000)
  18 Ag     1.422839    0.836358   14.687202    ( 0.0000,  0.0000,  0.0000)
  19 Ag     4.228290    0.834029   14.668537    ( 0.0000,  0.0000,  0.0000)
  20 Pt     7.000876    0.833422   14.677349    ( 0.0000,  0.0000,  0.0000)
  21 Ag     2.849410    3.275055   14.697646    ( 0.0000,  0.0000,  0.0000)
  22 Ag     5.607020    3.276035   14.715763    ( 0.0000,  0.0000,  0.0000)
  23 Ag     8.407636    3.278571   14.701685    ( 0.0000,  0.0000,  0.0000)
  24 Pd     4.226650    5.664441   14.783889    ( 0.0000,  0.0000,  0.0000)
  25 Pd     7.021524    5.717496   14.695770    ( 0.0000,  0.0000,  0.0000)
  26 Ag     9.810161    5.688371   14.690489    ( 0.0000,  0.0000,  0.0000)
  27 Pt     0.030364    1.654579   17.054310    ( 0.0000,  0.0000,  0.0000)
  28 Pd     2.863636    1.668211   17.080253    ( 0.0000,  0.0000,  0.0000)
  29 Pd     5.584811    1.668389   17.077768    ( 0.0000,  0.0000,  0.0000)
  30 Pd     1.451673    4.084780   17.054426    ( 0.0000,  0.0000,  0.0000)
  31 Ru     4.287216    4.070209   17.299465    ( 0.0000,  0.0000,  0.0000)
  32 Pt     6.976254    4.091014   17.095978    ( 0.0000,  0.0000,  0.0000)
  33 Ag     2.791829    6.501265   17.070936    ( 0.0000,  0.0000,  0.0000)
  34 Pt     5.617052    6.449501   17.092744    ( 0.0000,  0.0000,  0.0000)
  35 Ru     8.289070    6.444709   17.186717    ( 0.0000,  0.0000,  0.0000)
  36 Pd     0.109969    0.038419   19.432145    ( 0.0000,  0.0000,  0.0000)
  37 Ru     2.913932   -0.060119   19.211827    ( 0.0000,  0.0000,  0.0000)
  38 Pd     5.607656    0.003198   19.432032    ( 0.0000,  0.0000,  0.0000)
  39 Pt     1.441354    2.458850   19.369405    ( 0.0000,  0.0000,  0.0000)
  40 Pd     4.211433    2.427374   19.463642    ( 0.0000,  0.0000,  0.0000)
  41 Pd     7.082631    2.483306   19.414916    ( 0.0000,  0.0000,  0.0000)
  42 Pt     2.814800    4.836018   19.384744    ( 0.0000,  0.0000,  0.0000)
  43 Pd     5.686541    4.887569   19.522731    ( 0.0000,  0.0000,  0.0000)
  44 Ru     8.428363    4.985817   19.203811    ( 0.0000,  0.0000,  0.0000)
  45 O      2.814800    4.836018   21.522731    ( 0.0000,  0.0000,  0.0000)
  46 H      3.464800    5.486018   21.922731    ( 0.0000,  0.0000,  0.0000)

Unit cell:
           periodic     x           y           z      points  spacing
  1. axis:    yes    8.379498    0.000000    0.000000    35     0.2073
  2. axis:    yes    4.189749    7.256858    0.000000    35     0.2073
  3. axis:    no     0.000000    0.000000   29.243062   135     0.2166

  Lengths:   8.379498   8.379498  29.243062
  Angles:   90.000000  90.000000  60.000000

Effective grid spacing dv^(1/3) = 0.2207

                     log10-error:    total        iterations:
           time      wfs    density  energy       fermi  poisson
iter:   1  00:50:53  +0.50   +inf  -242.191163    3             
iter:   2  00:52:07  -1.07  -1.20  -212.898504    3             
iter:   3  00:53:21  -1.45  -1.32  -212.879587    36            
iter:   4  00:54:34  -1.35  -1.34  -274.624895    35            
iter:   5  00:55:48  -1.57  -1.20  -196.273578    37            
iter:   6  00:57:02  -1.77  -1.50  -189.429750    36            
iter:   7  00:58:16  -2.02  -1.66  -188.929408    37            
iter:   8  00:59:29  -3.08  -1.73  -187.697805    3             
iter:   9  01:00:39  -2.23  -1.77  -195.085546    4             
iter:  10  01:01:51  -2.37  -1.65  -187.228911    4             
iter:  11  01:03:03  -2.70  -1.92  -186.583144    3             
iter:  12  01:04:16  -3.05  -2.02  -185.997046    3             
iter:  13  01:05:28  -3.55  -2.17  -185.930868    3             
iter:  14  01:06:41  -3.54  -2.23  -185.833688    3             
iter:  15  01:07:53  -3.19  -2.31  -185.784357    3             
iter:  16  01:09:05  -3.31  -2.40  -185.694963    3             
iter:  17  01:10:18  -3.77  -2.46  -185.524551    3             
iter:  18  01:11:31  -4.07  -2.72  -185.505907    3             
iter:  19  01:12:43  -4.37  -2.81  -185.489980    2             
iter:  20  01:13:56  -4.40  -2.92  -185.492031    2             
iter:  21  01:15:08  -4.86  -2.91  -185.486045    2             
iter:  22  01:16:21  -5.25  -3.04  -185.484717    2             
iter:  23  01:17:35  -4.93  -3.06  -185.482708    3             
iter:  24  01:18:48  -4.84  -3.16  -185.480859    2             
iter:  25  01:20:02  -5.36  -3.33  -185.482572    2             
iter:  26  01:21:15  -5.55  -3.38  -185.481942    2             
iter:  27  01:22:28  -5.89  -3.28  -185.479942    2             
iter:  28  01:23:40  -6.09  -3.49  -185.480487    2             
iter:  29  01:24:52  -6.18  -3.52  -185.479901    2             
iter:  30  01:26:05  -5.92  -3.49  -185.479942    2             
iter:  31  01:27:17  -6.33  -3.63  -185.480527    2             
iter:  32  01:28:30  -6.39  -3.68  -185.480158    2             
iter:  33  01:29:43  -6.66  -3.58  -185.479620    2             
iter:  34  01:30:55  -6.61  -3.76  -185.480389    2             
iter:  35  01:32:08  -6.84  -3.81  -185.479803    2             
iter:  36  01:33:21  -6.79  -3.86  -185.479835    2             
iter:  37  01:34:34  -6.62  -3.96  -185.480273    2             
iter:  38  01:35:48  -7.19  -3.93  -185.479922    2             
iter:  39  01:37:01  -6.94  -4.06  -185.479535    2             
iter:  40  01:38:14  -7.12  -4.16  -185.479993    2             
iter:  41  01:39:27  -7.51  -4.07  -185.479765    2             

Converged after 41 iterations.

Dipole moment: (20.891844, 21.769375, -0.242928) |e|*Ang

Energy contributions relative to reference atoms: (reference = -9073466.092496)

Kinetic:       -177.379658
Potential:      +31.029707
External:        +0.000000
XC:             -33.689748
Entropy (-ST):   -2.035126
Local:           -4.422503
--------------------------
Free energy:   -186.497328
Extrapolated:  -185.479765

Fermi level: 0.82491

Showing only first 2 kpts
 Kpt  Band  Eigenvalues  Occupancy
  0   367      0.80262    0.13887
  0   368      0.82295    0.12622
  0   369      0.84296    0.11375
  0   370      0.86536    0.10005

  1   367      0.69988    0.19434
  1   368      0.73945    0.17538
  1   369      0.75969    0.16438
  1   370      0.78301    0.15081



Forces in eV/Ang:
  0 Pd    0.09159    0.51242   -0.41790
  1 Ag    0.11563    0.48612   -0.51242
  2 Pt   -0.23431    0.51301    0.84234
  3 Pd    0.08935    0.03417   -0.07709
  4 Pd    0.11939   -0.38003    0.19867
  5 Pt   -0.13370   -0.29727   -0.08671
  6 Pd   -0.17726   -0.38361   -0.05493
  7 Ag   -0.12034   -0.45864   -0.71498
  8 Pd   -0.25490   -0.30338    0.27526
  9 Ag    0.51750    0.21083    0.43120
 10 Ru    2.20301    1.28514    0.39584
 11 Ru   -1.85126    0.86707   -0.35387
 12 Pd    1.12971   -0.24323    0.00090
 13 Ru   -0.53315   -1.48882   -0.88184
 14 Ag   -0.45307    0.12928    0.27561
 15 Pd    0.18609   -0.57613    0.08172
 16 Ag   -0.18435   -0.38169    0.33335
 17 Pd   -0.36716    0.54813   -0.02243
 18 Ag   -0.02117   -0.00358    0.00435
 19 Ag   -0.01856   -0.00938    0.01368
 20 Pt    0.01061   -0.01039   -0.00912
 21 Ag    0.01168    0.00620    0.02605
 22 Ag    0.02575   -0.02170    0.00969
 23 Ag   -0.03120   -0.00791    0.01708
 24 Pd    0.01113    0.01500    0.05392
 25 Pd    0.04737    0.01847    0.05720
 26 Ag   -0.00006    0.00113    0.01823
 27 Pt    0.02835    0.02395    0.01208
 28 Pd   -0.01123    0.00819    0.03656
 29 Pd    0.02830   -0.03928    0.01790
 30 Pd    0.13255    0.05597    0.24617
 31 Ru   -0.09214    0.01208   -0.26449
 32 Pt    0.06936   -0.00132    0.05823
 33 Ag    0.00484   -0.01282   -0.00964
 34 Pt   -0.00727    0.00188   -0.02887
 35 Ru    0.00059    0.03686    0.04450
 36 Pd    0.10958    0.14372   -0.02055
 37 Ru   -0.04600    0.01953    0.02233
 38 Pd   -0.05317    0.11271    0.01427
 39 Pt   -0.16107   -0.24438   -0.05690
 40 Pd   -0.00812   -0.13334   -0.03231
 41 Pd    0.01216    0.00328    0.01915
 42 Pt    0.03955    0.11559    1.20063
 43 Pd    0.10362    0.00386   -0.09341
 44 Ru   -0.21347   -0.07879    0.01169
 45 O     0.16736    0.14924   -0.67125
 46 H    -0.38086   -0.26479   -0.53293

System changes: positions 

Initializing position-dependent things.

Density initialized from wave functions
                                             
                                             
                                             
                                             
                   H                         
                 O                           
                                             
                                             
                 Pt      Pd    Ru            
            Pt    APd    PPd    Ru           
                                             
        Pd    Ru     Pd    Pt                
                                             
        Pt     Pd    PPd    Pd     Ag        
                Ag     Ag     Ag             
                                             
           Ag    PAg    APt    Pd            
                                             
            Pd     Ru     Ag     Pd          
       Ag     Ru     Ru                      
             Pd     Pd     Pt                
        Pd     Ag     Pt                     
                                             
                                             
                                             
                                             
                                             

Positions:
   0 Pd     0.000000    1.633958   10.000000    ( 0.0000,  0.0000,  0.0000)
   1 Ag     2.830098    1.633958   10.000000    ( 0.0000,  0.0000,  0.0000)
   2 Pt     5.660196    1.633958   10.000000    ( 0.0000,  0.0000,  0.0000)
   3 Pd     1.415049    4.084895   10.000000    ( 0.0000,  0.0000,  0.0000)
   4 Pd     4.245147    4.084895   10.000000    ( 0.0000,  0.0000,  0.0000)
   5 Pt     7.075245    4.084895   10.000000    ( 0.0000,  0.0000,  0.0000)
   6 Pd     2.830098    6.535832   10.000000    ( 0.0000,  0.0000,  0.0000)
   7 Ag     5.660196    6.535832   10.000000    ( 0.0000,  0.0000,  0.0000)
   8 Pd     8.490294    6.535832   10.000000    ( 0.0000,  0.0000,  0.0000)
   9 Ag     0.000000    0.000000   12.310765    ( 0.0000,  0.0000,  0.0000)
  10 Ru     2.830098    0.000000   12.310765    ( 0.0000,  0.0000,  0.0000)
  11 Ru     5.660196    0.000000   12.310765    ( 0.0000,  0.0000,  0.0000)
  12 Pd     1.415049    2.450937   12.310765    ( 0.0000,  0.0000,  0.0000)
  13 Ru     4.245147    2.450937   12.310765    ( 0.0000,  0.0000,  0.0000)
  14 Ag     7.075245    2.450937   12.310765    ( 0.0000,  0.0000,  0.0000)
  15 Pd     2.830098    4.901874   12.310765    ( 0.0000,  0.0000,  0.0000)
  16 Ag     5.660196    4.901874   12.310765    ( 0.0000,  0.0000,  0.0000)
  17 Pd     8.490294    4.901874   12.310765    ( 0.0000,  0.0000,  0.0000)
  18 Ag     1.420721    0.836000   14.687637    ( 0.0000,  0.0000,  0.0000)
  19 Ag     4.226434    0.833091   14.669905    ( 0.0000,  0.0000,  0.0000)
  20 Pt     7.001936    0.832383   14.676437    ( 0.0000,  0.0000,  0.0000)
  21 Ag     2.850578    3.275675   14.700252    ( 0.0000,  0.0000,  0.0000)
  22 Ag     5.609595    3.273865   14.716732    ( 0.0000,  0.0000,  0.0000)
  23 Ag     8.404516    3.277780   14.703393    ( 0.0000,  0.0000,  0.0000)
  24 Pd     4.227762    5.665940   14.789281    ( 0.0000,  0.0000,  0.0000)
  25 Pd     7.026262    5.719343   14.701490    ( 0.0000,  0.0000,  0.0000)
  26 Ag     9.810156    5.688484   14.692312    ( 0.0000,  0.0000,  0.0000)
  27 Pt     0.033198    1.656973   17.055518    ( 0.0000,  0.0000,  0.0000)
  28 Pd     2.862513    1.669030   17.083909    ( 0.0000,  0.0000,  0.0000)
  29 Pd     5.587641    1.664461   17.079559    ( 0.0000,  0.0000,  0.0000)
  30 Pd     1.464928    4.090377   17.079043    ( 0.0000,  0.0000,  0.0000)
  31 Ru     4.278002    4.071417   17.273015    ( 0.0000,  0.0000,  0.0000)
  32 Pt     6.983190    4.090882   17.101801    ( 0.0000,  0.0000,  0.0000)
  33 Ag     2.792314    6.499983   17.069971    ( 0.0000,  0.0000,  0.0000)
  34 Pt     5.616325    6.449689   17.089857    ( 0.0000,  0.0000,  0.0000)
  35 Ru     8.289129    6.448395   17.191167    ( 0.0000,  0.0000,  0.0000)
  36 Pd     0.120927    0.052791   19.430090    ( 0.0000,  0.0000,  0.0000)
  37 Ru     2.909332   -0.058166   19.214059    ( 0.0000,  0.0000,  0.0000)
  38 Pd     5.602339    0.014469   19.433459    ( 0.0000,  0.0000,  0.0000)
  39 Pt     1.425247    2.434412   19.363715    ( 0.0000,  0.0000,  0.0000)
  40 Pd     4.210621    2.414040   19.460410    ( 0.0000,  0.0000,  0.0000)
  41 Pd     7.083847    2.483634   19.416830    ( 0.0000,  0.0000,  0.0000)
  42 Pt     2.818754    4.847577   19.504807    ( 0.0000,  0.0000,  0.0000)
  43 Pd     5.696902    4.887955   19.513390    ( 0.0000,  0.0000,  0.0000)
  44 Ru     8.407016    4.977938   19.204980    ( 0.0000,  0.0000,  0.0000)
  45 O      2.831536    4.850942   21.455606    ( 0.0000,  0.0000,  0.0000)
  46 H      3.426713    5.459539   21.869438    ( 0.0000,  0.0000,  0.0000)

Unit cell:
           periodic     x           y           z      points  spacing
  1. axis:    yes    8.379498    0.000000    0.000000    35     0.2073
  2. axis:    yes    4.189749    7.256858    0.000000    35     0.2073
  3. axis:    no     0.000000    0.000000   29.243062   135     0.2166

  Lengths:   8.379498   8.379498  29.243062
  Angles:   90.000000  90.000000  60.000000

Effective grid spacing dv^(1/3) = 0.2207

                     log10-error:    total        iterations:
           time      wfs    density  energy       fermi  poisson
iter:   1  01:41:13  -2.17   +inf  -188.456562    4             
iter:   2  01:42:26  -1.77  -2.02  -224.605167    37            
iter:   3  01:43:38  -1.64  -1.50  -213.096663    2             
iter:   4  01:44:51  -2.61  -1.56  -187.793654    36            
iter:   5  01:46:05  -3.01  -2.17  -186.009251    4             
iter:   6  01:47:18  -3.51  -2.49  -185.662953    2             
iter:   7  01:48:32  -3.97  -2.66  -185.595409    3             
iter:   8  01:49:45  -4.37  -2.75  -185.551341    3             
iter:   9  01:50:59  -4.11  -2.92  -185.620148    3             
iter:  10  01:52:12  -4.59  -2.62  -185.536977    2             
iter:  11  01:53:25  -4.26  -2.98  -185.511600    2             
iter:  12  01:54:39  -4.48  -3.15  -185.525317    2             
iter:  13  01:55:53  -4.94  -2.93  -185.505605    2             
iter:  14  01:57:07  -5.17  -3.33  -185.500014    3             
iter:  15  01:58:21  -5.74  -3.45  -185.501358    2             
iter:  16  01:59:34  -5.32  -3.51  -185.499130    3             
iter:  17  02:00:47  -5.59  -3.68  -185.504592    2             
iter:  18  02:02:00  -6.19  -3.38  -185.500030    2             
iter:  19  02:03:12  -6.02  -3.77  -185.499976    2             
iter:  20  02:04:25  -6.09  -3.79  -185.499361    2             
iter:  21  02:05:37  -6.19  -3.80  -185.501778    2             
iter:  22  02:06:50  -6.55  -3.74  -185.499866    2             
iter:  23  02:08:02  -6.88  -3.99  -185.499925    2             
iter:  24  02:09:14  -6.71  -4.11  -185.500275    2             
iter:  25  02:10:26  -7.05  -4.23  -185.499737    2             
iter:  26  02:11:39  -6.68  -4.15  -185.499864    2             
iter:  27  02:12:52  -7.34  -4.35  -185.500128    2             
iter:  28  02:14:05  -7.64  -4.31  -185.499848    2             

Converged after 28 iterations.

Dipole moment: (19.914600, 20.685105, -0.127132) |e|*Ang

Energy contributions relative to reference atoms: (reference = -9073466.092496)

Kinetic:       -171.223316
Potential:      +26.049605
External:        +0.000000
XC:             -34.890411
Entropy (-ST):   -2.042924
Local:           -4.414263
--------------------------
Free energy:   -186.521309
Extrapolated:  -185.499848

Fermi level: 0.87917

Showing only first 2 kpts
 Kpt  Band  Eigenvalues  Occupancy
  0   367      0.85683    0.13891
  0   368      0.87724    0.12621
  0   369      0.90020    0.11190
  0   370      0.91526    0.10268

  1   367      0.75267    0.19497
  1   368      0.79600    0.17418
  1   369      0.81558    0.16345
  1   370      0.83566    0.15177



Forces in eV/Ang:
  0 Pd    0.09958    0.51023   -0.41157
  1 Ag    0.10453    0.49056   -0.51091
  2 Pt   -0.23701    0.50980    0.84662
  3 Pd    0.09597    0.03421   -0.07102
  4 Pd    0.10627   -0.37219    0.20974
  5 Pt   -0.12801   -0.29452   -0.07482
  6 Pd   -0.17357   -0.39313   -0.04769
  7 Ag   -0.12617   -0.45396   -0.70423
  8 Pd   -0.25086   -0.30809    0.27535
  9 Ag    0.52139    0.20813    0.42971
 10 Ru    2.19435    1.27831    0.41241
 11 Ru   -1.85533    0.85545   -0.34963
 12 Pd    1.12283   -0.23731    0.01604
 13 Ru   -0.53911   -1.47543   -0.87018
 14 Ag   -0.44075    0.13832    0.27737
 15 Pd    0.19287   -0.58202    0.09141
 16 Ag   -0.18151   -0.37722    0.36383
 17 Pd   -0.36602    0.54247   -0.00621
 18 Ag    0.00292    0.01368   -0.01134
 19 Ag   -0.00103    0.01309    0.02293
 20 Pt   -0.00830   -0.00851   -0.01421
 21 Ag   -0.01779    0.01112    0.03266
 22 Ag    0.00433    0.00009    0.00296
 23 Ag    0.02982    0.02278    0.02552
 24 Pd    0.01167   -0.01715    0.01468
 25 Pd    0.01249   -0.00593    0.01577
 26 Ag    0.00964   -0.03223    0.03605
 27 Pt   -0.02402    0.00762   -0.05580
 28 Pd    0.03343    0.02030   -0.03430
 29 Pd    0.01753   -0.01264   -0.00157
 30 Pd    0.19236    0.08029    0.26857
 31 Ru   -0.13076    0.03927    0.02717
 32 Pt    0.00793   -0.02345   -0.02298
 33 Ag    0.01329   -0.07856    0.17069
 34 Pt   -0.01482   -0.02854   -0.04199
 35 Ru    0.03759    0.00236    0.03294
 36 Pd   -0.00958   -0.02415    0.02873
 37 Ru   -0.01851    0.02545    0.00024
 38 Pd   -0.00715    0.02176   -0.01759
 39 Pt    0.04974   -0.00783   -0.00485
 40 Pd   -0.04819    0.01191   -0.09800
 41 Pd   -0.05388   -0.01666    0.01270
 42 Pt   -0.04142    0.03836   -1.14295
 43 Pd   -0.05150   -0.01862   -0.09507
 44 Ru   -0.04465    0.01141    0.03087
 45 O    -1.39878   -1.61269    0.26889
 46 H     1.31554    1.48598    0.61403

System changes: positions 

Initializing position-dependent things.

Density initialized from wave functions
                                             
                                             
                                             
                                             
                                             
                 O H                         
                                             
                                             
                 Pt      Pd    Ru            
                                             
            Pt    APd    PPd    Ru           
        Pd           Pd    Pt                
              Ru                             
        Pt     Pd    PPd    Pd     Ag        
                                             
                Ag     Ag     Ag             
                                             
           Ag    PAg    APt    Pd            
                                             
            Pd     Ru     Ag     Pd          
       Ag    PRu    PRu    Pt                
                                             
        Pd     Ag     Pt                     
                                             
                                             
                                             
                                             
                                             

Positions:
   0 Pd     0.000000    1.633958   10.000000    ( 0.0000,  0.0000,  0.0000)
   1 Ag     2.830098    1.633958   10.000000    ( 0.0000,  0.0000,  0.0000)
   2 Pt     5.660196    1.633958   10.000000    ( 0.0000,  0.0000,  0.0000)
   3 Pd     1.415049    4.084895   10.000000    ( 0.0000,  0.0000,  0.0000)
   4 Pd     4.245147    4.084895   10.000000    ( 0.0000,  0.0000,  0.0000)
   5 Pt     7.075245    4.084895   10.000000    ( 0.0000,  0.0000,  0.0000)
   6 Pd     2.830098    6.535832   10.000000    ( 0.0000,  0.0000,  0.0000)
   7 Ag     5.660196    6.535832   10.000000    ( 0.0000,  0.0000,  0.0000)
   8 Pd     8.490294    6.535832   10.000000    ( 0.0000,  0.0000,  0.0000)
   9 Ag     0.000000    0.000000   12.310765    ( 0.0000,  0.0000,  0.0000)
  10 Ru     2.830098    0.000000   12.310765    ( 0.0000,  0.0000,  0.0000)
  11 Ru     5.660196    0.000000   12.310765    ( 0.0000,  0.0000,  0.0000)
  12 Pd     1.415049    2.450937   12.310765    ( 0.0000,  0.0000,  0.0000)
  13 Ru     4.245147    2.450937   12.310765    ( 0.0000,  0.0000,  0.0000)
  14 Ag     7.075245    2.450937   12.310765    ( 0.0000,  0.0000,  0.0000)
  15 Pd     2.830098    4.901874   12.310765    ( 0.0000,  0.0000,  0.0000)
  16 Ag     5.660196    4.901874   12.310765    ( 0.0000,  0.0000,  0.0000)
  17 Pd     8.490294    4.901874   12.310765    ( 0.0000,  0.0000,  0.0000)
  18 Ag     1.421825    0.836187   14.687410    ( 0.0000,  0.0000,  0.0000)
  19 Ag     4.227401    0.833580   14.669192    ( 0.0000,  0.0000,  0.0000)
  20 Pt     7.001384    0.832924   14.676912    ( 0.0000,  0.0000,  0.0000)
  21 Ag     2.849969    3.275352   14.698894    ( 0.0000,  0.0000,  0.0000)
  22 Ag     5.608253    3.274996   14.716227    ( 0.0000,  0.0000,  0.0000)
  23 Ag     8.406142    3.278192   14.702503    ( 0.0000,  0.0000,  0.0000)
  24 Pd     4.227183    5.665159   14.786471    ( 0.0000,  0.0000,  0.0000)
  25 Pd     7.023793    5.718380   14.698509    ( 0.0000,  0.0000,  0.0000)
  26 Ag     9.810159    5.688425   14.691362    ( 0.0000,  0.0000,  0.0000)
  27 Pt     0.031721    1.655725   17.054888    ( 0.0000,  0.0000,  0.0000)
  28 Pd     2.863098    1.668603   17.082003    ( 0.0000,  0.0000,  0.0000)
  29 Pd     5.586166    1.666508   17.078626    ( 0.0000,  0.0000,  0.0000)
  30 Pd     1.458020    4.087460   17.066213    ( 0.0000,  0.0000,  0.0000)
  31 Ru     4.282804    4.070787   17.286800    ( 0.0000,  0.0000,  0.0000)
  32 Pt     6.979575    4.090951   17.098767    ( 0.0000,  0.0000,  0.0000)
  33 Ag     2.792061    6.500651   17.070474    ( 0.0000,  0.0000,  0.0000)
  34 Pt     5.616704    6.449591   17.091361    ( 0.0000,  0.0000,  0.0000)
  35 Ru     8.289099    6.446474   17.188848    ( 0.0000,  0.0000,  0.0000)
  36 Pd     0.115216    0.045301   19.431161    ( 0.0000,  0.0000,  0.0000)
  37 Ru     2.911729   -0.059184   19.212896    ( 0.0000,  0.0000,  0.0000)
  38 Pd     5.605110    0.008595   19.432715    ( 0.0000,  0.0000,  0.0000)
  39 Pt     1.433642    2.447148   19.366680    ( 0.0000,  0.0000,  0.0000)
  40 Pd     4.211044    2.420989   19.462094    ( 0.0000,  0.0000,  0.0000)
  41 Pd     7.083213    2.483463   19.415832    ( 0.0000,  0.0000,  0.0000)
  42 Pt     2.816693    4.841553   19.442235    ( 0.0000,  0.0000,  0.0000)
  43 Pd     5.691502    4.887754   19.518258    ( 0.0000,  0.0000,  0.0000)
  44 Ru     8.418141    4.982044   19.204371    ( 0.0000,  0.0000,  0.0000)
  45 O      2.822814    4.843164   21.490589    ( 0.0000,  0.0000,  0.0000)
  46 H      3.446563    5.473339   21.897212    ( 0.0000,  0.0000,  0.0000)

Unit cell:
           periodic     x           y           z      points  spacing
  1. axis:    yes    8.379498    0.000000    0.000000    35     0.2073
  2. axis:    yes    4.189749    7.256858    0.000000    35     0.2073
  3. axis:    no     0.000000    0.000000   29.243062   135     0.2166

  Lengths:   8.379498   8.379498  29.243062
  Angles:   90.000000  90.000000  60.000000

Effective grid spacing dv^(1/3) = 0.2207

                     log10-error:    total        iterations:
           time      wfs    density  energy       fermi  poisson
iter:   1  02:15:50  -2.61   +inf  -186.150172    3             
iter:   2  02:17:02  -2.88  -2.45  -187.098685    4             
iter:   3  02:18:15  -2.90  -2.13  -189.777841    3             
iter:   4  02:19:26  -3.24  -1.88  -185.753041    3             
iter:   5  02:20:38  -3.72  -2.70  -185.833160    3             
iter:   6  02:21:51  -4.23  -2.46  -185.577739    2             
iter:   7  02:23:03  -4.93  -3.10  -185.575414    2             
iter:   8  02:24:16  -5.44  -3.26  -185.572317    2             
iter:   9  02:25:29  -4.66  -3.33  -185.564553    2             
iter:  10  02:26:41  -4.99  -3.57  -185.567863    2             
iter:  11  02:27:53  -5.60  -3.34  -185.565428    2             
iter:  12  02:29:05  -5.89  -3.39  -185.562148    2             
iter:  13  02:30:17  -5.89  -3.67  -185.563882    2             
iter:  14  02:31:30  -6.39  -3.67  -185.562299    2             
iter:  15  02:32:42  -6.89  -3.86  -185.562404    2             
iter:  16  02:33:54  -7.03  -3.95  -185.562462    2             
iter:  17  02:35:06  -6.47  -4.03  -185.562773    2             
iter:  18  02:36:18  -6.46  -4.10  -185.561938    2             
iter:  19  02:37:30  -6.54  -3.95  -185.563295    2             
iter:  20  02:38:42  -6.85  -3.84  -185.562287    2             
iter:  21  02:39:54  -7.58  -4.23  -185.562367    2             

Converged after 21 iterations.

Dipole moment: (20.420626, 21.247745, -0.189681) |e|*Ang

Energy contributions relative to reference atoms: (reference = -9073466.092496)

Kinetic:       -176.031838
Potential:      +30.023338
External:        +0.000000
XC:             -34.102576
Entropy (-ST):   -2.038852
Local:           -4.431865
--------------------------
Free energy:   -186.581793
Extrapolated:  -185.562367

Fermi level: 0.84725

Showing only first 2 kpts
 Kpt  Band  Eigenvalues  Occupancy
  0   367      0.82658    0.13787
  0   368      0.84413    0.12695
  0   369      0.86643    0.11305
  0   370      0.88580    0.10120

  1   367      0.72148    0.19466
  1   368      0.76290    0.17480
  1   369      0.78282    0.16393
  1   370      0.80475    0.15117



Forces in eV/Ang:
  0 Pd    0.10198    0.50754   -0.43031
  1 Ag    0.10349    0.49010   -0.52758
  2 Pt   -0.23693    0.50819    0.82357
  3 Pd    0.09810    0.03411   -0.09167
  4 Pd    0.10499   -0.37030    0.19418
  5 Pt   -0.12889   -0.29171   -0.09787
  6 Pd   -0.17107   -0.39361   -0.06484
  7 Ag   -0.12742   -0.45329   -0.71875
  8 Pd   -0.25146   -0.30790    0.25717
  9 Ag    0.52070    0.20874    0.43096
 10 Ru    2.19635    1.28102    0.41169
 11 Ru   -1.85296    0.85822   -0.34989
 12 Pd    1.12314   -0.23710    0.01496
 13 Ru   -0.53952   -1.47630   -0.86920
 14 Ag   -0.44095    0.13691    0.28132
 15 Pd    0.19051   -0.58204    0.08628
 16 Ag   -0.18495   -0.37887    0.35342
 17 Pd   -0.36481    0.54110   -0.00801
 18 Ag   -0.00897    0.00928   -0.00883
 19 Ag   -0.01127    0.00088    0.02073
 20 Pt    0.00187   -0.00477   -0.01638
 21 Ag   -0.00576    0.00963    0.02857
 22 Ag    0.01696   -0.00990    0.00088
 23 Ag   -0.00031    0.00872    0.01257
 24 Pd    0.01120   -0.00521    0.03109
 25 Pd    0.03543    0.00405    0.02984
 26 Ag    0.00162   -0.01967    0.02816
 27 Pt    0.00188    0.01439   -0.03013
 28 Pd    0.01707    0.03354   -0.00300
 29 Pd    0.01909   -0.02812    0.01237
 30 Pd    0.18514    0.08036    0.26934
 31 Ru   -0.14358    0.03714   -0.08692
 32 Pt    0.03700   -0.01507    0.00914
 33 Ag    0.00491   -0.06300    0.09370
 34 Pt   -0.02687   -0.02042   -0.03751
 35 Ru    0.03650    0.01521    0.03703
 36 Pd    0.06250    0.08686   -0.01807
 37 Ru   -0.02241    0.02548    0.04099
 38 Pd   -0.04569    0.08805   -0.00311
 39 Pt   -0.05468   -0.12373   -0.01241
 40 Pd   -0.01793   -0.07104   -0.05955
 41 Pd   -0.03224   -0.00693    0.04080
 42 Pt    0.00301    0.05211    0.32479
 43 Pd    0.04550   -0.02136   -0.10223
 44 Ru   -0.12752   -0.03156    0.03489
 45 O    -0.47829   -0.56601   -0.57179
 46 H     0.38237    0.51287   -0.06327

System changes: positions 

Initializing position-dependent things.

Density initialized from wave functions
                                             
                                             
                                             
                                             
                   H                         
                 O                           
                                             
                                             
                 Pt      Pd    Ru            
            Pt    APd    PPd    Ru           
                                             
        Pd    Ru    RPd    Pt                
                                             
        Pt     Pd    PPd    Pd     Ag        
                Ag     Ag     Ag             
                                             
           Ag    PAg    APt    Pd            
                                             
            Pd     Ru     Ag     Pd          
       Ag     Ru     Ru                      
             Pd     Pd     Pt                
        Pd     Ag     Pt                     
                                             
                                             
                                             
                                             
                                             

Positions:
   0 Pd     0.000000    1.633958   10.000000    ( 0.0000,  0.0000,  0.0000)
   1 Ag     2.830098    1.633958   10.000000    ( 0.0000,  0.0000,  0.0000)
   2 Pt     5.660196    1.633958   10.000000    ( 0.0000,  0.0000,  0.0000)
   3 Pd     1.415049    4.084895   10.000000    ( 0.0000,  0.0000,  0.0000)
   4 Pd     4.245147    4.084895   10.000000    ( 0.0000,  0.0000,  0.0000)
   5 Pt     7.075245    4.084895   10.000000    ( 0.0000,  0.0000,  0.0000)
   6 Pd     2.830098    6.535832   10.000000    ( 0.0000,  0.0000,  0.0000)
   7 Ag     5.660196    6.535832   10.000000    ( 0.0000,  0.0000,  0.0000)
   8 Pd     8.490294    6.535832   10.000000    ( 0.0000,  0.0000,  0.0000)
   9 Ag     0.000000    0.000000   12.310765    ( 0.0000,  0.0000,  0.0000)
  10 Ru     2.830098    0.000000   12.310765    ( 0.0000,  0.0000,  0.0000)
  11 Ru     5.660196    0.000000   12.310765    ( 0.0000,  0.0000,  0.0000)
  12 Pd     1.415049    2.450937   12.310765    ( 0.0000,  0.0000,  0.0000)
  13 Ru     4.245147    2.450937   12.310765    ( 0.0000,  0.0000,  0.0000)
  14 Ag     7.075245    2.450937   12.310765    ( 0.0000,  0.0000,  0.0000)
  15 Pd     2.830098    4.901874   12.310765    ( 0.0000,  0.0000,  0.0000)
  16 Ag     5.660196    4.901874   12.310765    ( 0.0000,  0.0000,  0.0000)
  17 Pd     8.490294    4.901874   12.310765    ( 0.0000,  0.0000,  0.0000)
  18 Ag     1.419139    0.837124   14.686586    ( 0.0000,  0.0000,  0.0000)
  19 Ag     4.224609    0.833016   14.672853    ( 0.0000,  0.0000,  0.0000)
  20 Pt     7.002391    0.831559   14.674142    ( 0.0000,  0.0000,  0.0000)
  21 Ag     2.850070    3.277042   14.704458    ( 0.0000,  0.0000,  0.0000)
  22 Ag     5.612299    3.272153   14.717040    ( 0.0000,  0.0000,  0.0000)
  23 Ag     8.403850    3.278745   14.705358    ( 0.0000,  0.0000,  0.0000)
  24 Pd     4.229429    5.665569   14.794373    ( 0.0000,  0.0000,  0.0000)
  25 Pd     7.031782    5.720236   14.706486    ( 0.0000,  0.0000,  0.0000)
  26 Ag     9.810363    5.685970   14.696310    ( 0.0000,  0.0000,  0.0000)
  27 Pt     0.034010    1.659309   17.051876    ( 0.0000,  0.0000,  0.0000)
  28 Pd     2.864489    1.673519   17.084256    ( 0.0000,  0.0000,  0.0000)
  29 Pd     5.590671    1.660046   17.081513    ( 0.0000,  0.0000,  0.0000)
  30 Pd     1.491461    4.101863   17.118714    ( 0.0000,  0.0000,  0.0000)
  31 Ru     4.257639    4.076448   17.256497    ( 0.0000,  0.0000,  0.0000)
  32 Pt     6.989353    4.088912   17.104149    ( 0.0000,  0.0000,  0.0000)
  33 Ag     2.793044    6.491602   17.081859    ( 0.0000,  0.0000,  0.0000)
  34 Pt     5.612714    6.447093   17.084440    ( 0.0000,  0.0000,  0.0000)
  35 Ru     8.293848    6.451097   17.196835    ( 0.0000,  0.0000,  0.0000)
  36 Pd     0.131185    0.066876   19.427348    ( 0.0000,  0.0000,  0.0000)
  37 Ru     2.905520   -0.054488   19.219793    ( 0.0000,  0.0000,  0.0000)
  38 Pd     5.595380    0.028085   19.433344    ( 0.0000,  0.0000,  0.0000)
  39 Pt     1.414963    2.413551   19.360971    ( 0.0000,  0.0000,  0.0000)
  40 Pd     4.208146    2.402203   19.452083    ( 0.0000,  0.0000,  0.0000)
  41 Pd     7.079935    2.482806   19.422476    ( 0.0000,  0.0000,  0.0000)
  42 Pt     2.819936    4.856616   19.570793    ( 0.0000,  0.0000,  0.0000)
  43 Pd     5.704849    4.885278   19.498334    ( 0.0000,  0.0000,  0.0000)
  44 Ru     8.386288    4.972287   19.209714    ( 0.0000,  0.0000,  0.0000)
  45 O      2.773226    4.780957   21.368401    ( 0.0000,  0.0000,  0.0000)
  46 H      3.468369    5.520352   21.850580    ( 0.0000,  0.0000,  0.0000)

Unit cell:
           periodic     x           y           z      points  spacing
  1. axis:    yes    8.379498    0.000000    0.000000    35     0.2073
  2. axis:    yes    4.189749    7.256858    0.000000    35     0.2073
  3. axis:    no     0.000000    0.000000   29.243062   135     0.2166

  Lengths:   8.379498   8.379498  29.243062
  Angles:   90.000000  90.000000  60.000000

Effective grid spacing dv^(1/3) = 0.2207

                     log10-error:    total        iterations:
           time      wfs    density  energy       fermi  poisson
iter:   1  02:41:39  -1.80   +inf  -186.067548    3             
iter:   2  02:42:51  -2.07  -2.16  -215.057754    37            
iter:   3  02:44:04  -2.38  -1.55  -185.353584    35            
iter:   4  02:45:16  -3.36  -2.42  -185.098056    3             
iter:   5  02:46:28  -3.70  -2.65  -185.023627    2             
iter:   6  02:47:39  -3.55  -2.70  -185.120452    3             
iter:   7  02:48:51  -3.51  -2.47  -185.213330    3             
iter:   8  02:50:04  -3.66  -2.43  -184.902433    3             
iter:   9  02:51:17  -4.40  -2.84  -184.873517    3             
iter:  10  02:52:28  -4.89  -3.05  -184.868107    2             
iter:  11  02:53:40  -4.62  -3.15  -184.865045    3             
iter:  12  02:54:53  -4.87  -3.23  -184.860913    3             
iter:  13  02:56:05  -4.98  -3.45  -184.862391    3             
iter:  14  02:57:17  -5.54  -3.42  -184.861620    2             
iter:  15  02:58:30  -5.66  -3.31  -184.861294    2             
iter:  16  02:59:42  -5.80  -3.53  -184.860784    2             
iter:  17  03:00:55  -6.05  -3.45  -184.859770    2             
iter:  18  03:02:06  -6.23  -3.70  -184.860034    2             
iter:  19  03:03:19  -6.09  -3.77  -184.859485    2             
iter:  20  03:04:32  -5.99  -3.88  -184.859522    2             
iter:  21  03:05:44  -6.21  -3.82  -184.861342    2             
iter:  22  03:06:55  -6.52  -3.65  -184.859563    2             
iter:  23  03:08:07  -6.57  -4.22  -184.859530    2             
iter:  24  03:09:19  -6.97  -4.15  -184.859923    2             
iter:  25  03:10:32  -6.91  -4.07  -184.859416    2             
iter:  26  03:11:45  -7.20  -4.36  -184.859582    2             
iter:  27  03:12:57  -7.56  -4.40  -184.859567    2             

Converged after 27 iterations.

Dipole moment: (20.620462, 19.353267, -0.011647) |e|*Ang

Energy contributions relative to reference atoms: (reference = -9073466.092496)

Kinetic:       -168.427251
Potential:      +22.988943
External:        +0.000000
XC:             -33.932414
Entropy (-ST):   -2.048185
Local:           -4.464753
--------------------------
Free energy:   -185.883660
Extrapolated:  -184.859567

Fermi level: 0.93685

Showing only first 2 kpts
 Kpt  Band  Eigenvalues  Occupancy
  0   367      0.91102    0.14105
  0   368      0.93730    0.12472
  0   369      0.95848    0.11153
  0   370      0.96781    0.10580

  1   367      0.80890    0.19559
  1   368      0.85766    0.17206
  1   369      0.87334    0.16341
  1   370      0.89045    0.15349



Forces in eV/Ang:
  0 Pd    0.09739    0.50743   -0.42359
  1 Ag    0.10349    0.49135   -0.52206
  2 Pt   -0.23736    0.50978    0.83615
  3 Pd    0.09631    0.03513   -0.08161
  4 Pd    0.10694   -0.36966    0.20018
  5 Pt   -0.13030   -0.29414   -0.08996
  6 Pd   -0.17206   -0.39377   -0.05606
  7 Ag   -0.12794   -0.45450   -0.71403
  8 Pd   -0.25092   -0.30981    0.26224
  9 Ag    0.52216    0.20169    0.42992
 10 Ru    2.20081    1.27523    0.42432
 11 Ru   -1.86280    0.84505   -0.33304
 12 Pd    1.12412   -0.23224    0.02850
 13 Ru   -0.54302   -1.47568   -0.85947
 14 Ag   -0.43790    0.14252    0.28110
 15 Pd    0.19342   -0.58113    0.10349
 16 Ag   -0.17866   -0.37347    0.38245
 17 Pd   -0.36154    0.54658    0.00950
 18 Ag    0.01712    0.00757   -0.00841
 19 Ag    0.02094    0.01969    0.01380
 20 Pt   -0.01785   -0.02359    0.01457
 21 Ag   -0.03348    0.00739    0.03097
 22 Ag   -0.01191    0.01284    0.01980
 23 Ag    0.07129    0.03663    0.06180
 24 Pd   -0.00114   -0.01580   -0.01045
 25 Pd   -0.02629   -0.01510   -0.00167
 26 Ag    0.02803   -0.02477    0.06394
 27 Pt   -0.05225    0.01105   -0.07673
 28 Pd    0.01724   -0.03382   -0.06344
 29 Pd    0.03014    0.02280   -0.02987
 30 Pd    0.02791   -0.00722    0.09138
 31 Ru    0.03763    0.01347    0.13068
 32 Pt   -0.02674   -0.02334   -0.07006
 33 Ag    0.04706    0.04439    0.17602
 34 Pt    0.06102   -0.03198   -0.01004
 35 Ru   -0.00896   -0.02768    0.03581
 36 Pd   -0.12351   -0.19289    0.11299
 37 Ru   -0.00780   -0.01131   -0.01396
 38 Pd    0.03134   -0.07664    0.01544
 39 Pt    0.15756    0.15232    0.10285
 40 Pd   -0.06280    0.12536   -0.06455
 41 Pd   -0.06116   -0.03025    0.03064
 42 Pt   -0.10426    0.09189   -4.86226
 43 Pd   -0.17237   -0.00558   -0.05151
 44 Ru    0.01908    0.08170    0.08995
 45 O     2.27742    2.14088    6.53083
 46 H    -2.30967   -2.33668   -1.62756

System changes: positions 

Initializing position-dependent things.

Density initialized from wave functions
                                             
                                             
                                             
                                             
                                             
                 O H                         
                                             
                                             
                 Pt      Pd    Ru            
                                             
            Pt    APd    PPd    Ru           
        Pd           Pd    Pt                
              Ru                             
        Pt     Pd    PPd    Pd     Ag        
                                             
                Ag     Ag     Ag             
                                             
           Ag    PAg    APt    Pd            
                                             
            Pd     Ru     Ag     Pd          
       Ag    PRu    PRu    Pt                
                                             
        Pd     Ag     Pt                     
                                             
                                             
                                             
                                             
                                             

Positions:
   0 Pd     0.000000    1.633958   10.000000    ( 0.0000,  0.0000,  0.0000)
   1 Ag     2.830098    1.633958   10.000000    ( 0.0000,  0.0000,  0.0000)
   2 Pt     5.660196    1.633958   10.000000    ( 0.0000,  0.0000,  0.0000)
   3 Pd     1.415049    4.084895   10.000000    ( 0.0000,  0.0000,  0.0000)
   4 Pd     4.245147    4.084895   10.000000    ( 0.0000,  0.0000,  0.0000)
   5 Pt     7.075245    4.084895   10.000000    ( 0.0000,  0.0000,  0.0000)
   6 Pd     2.830098    6.535832   10.000000    ( 0.0000,  0.0000,  0.0000)
   7 Ag     5.660196    6.535832   10.000000    ( 0.0000,  0.0000,  0.0000)
   8 Pd     8.490294    6.535832   10.000000    ( 0.0000,  0.0000,  0.0000)
   9 Ag     0.000000    0.000000   12.310765    ( 0.0000,  0.0000,  0.0000)
  10 Ru     2.830098    0.000000   12.310765    ( 0.0000,  0.0000,  0.0000)
  11 Ru     5.660196    0.000000   12.310765    ( 0.0000,  0.0000,  0.0000)
  12 Pd     1.415049    2.450937   12.310765    ( 0.0000,  0.0000,  0.0000)
  13 Ru     4.245147    2.450937   12.310765    ( 0.0000,  0.0000,  0.0000)
  14 Ag     7.075245    2.450937   12.310765    ( 0.0000,  0.0000,  0.0000)
  15 Pd     2.830098    4.901874   12.310765    ( 0.0000,  0.0000,  0.0000)
  16 Ag     5.660196    4.901874   12.310765    ( 0.0000,  0.0000,  0.0000)
  17 Pd     8.490294    4.901874   12.310765    ( 0.0000,  0.0000,  0.0000)
  18 Ag     1.421441    0.836321   14.687293    ( 0.0000,  0.0000,  0.0000)
  19 Ag     4.227003    0.833499   14.669715    ( 0.0000,  0.0000,  0.0000)
  20 Pt     7.001528    0.832729   14.676517    ( 0.0000,  0.0000,  0.0000)
  21 Ag     2.849983    3.275593   14.699688    ( 0.0000,  0.0000,  0.0000)
  22 Ag     5.608830    3.274590   14.716343    ( 0.0000,  0.0000,  0.0000)
  23 Ag     8.405815    3.278271   14.702911    ( 0.0000,  0.0000,  0.0000)
  24 Pd     4.227503    5.665217   14.787599    ( 0.0000,  0.0000,  0.0000)
  25 Pd     7.024933    5.718645   14.699648    ( 0.0000,  0.0000,  0.0000)
  26 Ag     9.810188    5.688075   14.692068    ( 0.0000,  0.0000,  0.0000)
  27 Pt     0.032048    1.656237   17.054458    ( 0.0000,  0.0000,  0.0000)
  28 Pd     2.863297    1.669305   17.082325    ( 0.0000,  0.0000,  0.0000)
  29 Pd     5.586809    1.665586   17.079038    ( 0.0000,  0.0000,  0.0000)
  30 Pd     1.462794    4.089516   17.073708    ( 0.0000,  0.0000,  0.0000)
  31 Ru     4.279211    4.071595   17.282474    ( 0.0000,  0.0000,  0.0000)
  32 Pt     6.980971    4.090660   17.099535    ( 0.0000,  0.0000,  0.0000)
  33 Ag     2.792202    6.499359   17.072099    ( 0.0000,  0.0000,  0.0000)
  34 Pt     5.616135    6.449234   17.090373    ( 0.0000,  0.0000,  0.0000)
  35 Ru     8.289777    6.447134   17.189988    ( 0.0000,  0.0000,  0.0000)
  36 Pd     0.117495    0.048381   19.430617    ( 0.0000,  0.0000,  0.0000)
  37 Ru     2.910843   -0.058513   19.213880    ( 0.0000,  0.0000,  0.0000)
  38 Pd     5.603721    0.011377   19.432805    ( 0.0000,  0.0000,  0.0000)
  39 Pt     1.430975    2.442352   19.365865    ( 0.0000,  0.0000,  0.0000)
  40 Pd     4.210630    2.418307   19.460665    ( 0.0000,  0.0000,  0.0000)
  41 Pd     7.082745    2.483369   19.416781    ( 0.0000,  0.0000,  0.0000)
  42 Pt     2.817156    4.843703   19.460587    ( 0.0000,  0.0000,  0.0000)
  43 Pd     5.693407    4.887400   19.515414    ( 0.0000,  0.0000,  0.0000)
  44 Ru     8.413594    4.980651   19.205134    ( 0.0000,  0.0000,  0.0000)
  45 O      2.815735    4.834284   21.473147    ( 0.0000,  0.0000,  0.0000)
  46 H      3.449675    5.480050   21.890556    ( 0.0000,  0.0000,  0.0000)

Unit cell:
           periodic     x           y           z      points  spacing
  1. axis:    yes    8.379498    0.000000    0.000000    35     0.2073
  2. axis:    yes    4.189749    7.256858    0.000000    35     0.2073
  3. axis:    no     0.000000    0.000000   29.243062   135     0.2166

  Lengths:   8.379498   8.379498  29.243062
  Angles:   90.000000  90.000000  60.000000

Effective grid spacing dv^(1/3) = 0.2207

                     log10-error:    total        iterations:
           time      wfs    density  energy       fermi  poisson
iter:   1  03:14:42  -1.92   +inf  -186.548328    3             
iter:   2  03:15:54  -2.22  -2.24  -208.059173    32            
iter:   3  03:17:08  -2.46  -1.61  -185.963730    36            
iter:   4  03:18:21  -3.72  -2.48  -185.797142    3             
iter:   5  03:19:33  -3.57  -2.66  -185.824247    3             
iter:   6  03:20:46  -3.99  -2.50  -185.659412    3             
iter:   7  03:21:58  -3.96  -2.90  -185.699165    2             
iter:   8  03:23:11  -3.71  -2.62  -185.943836    3             
iter:   9  03:24:23  -4.47  -2.41  -185.750292    3             
iter:  10  03:25:36  -4.40  -2.59  -185.584053    2             
iter:  11  03:26:49  -4.96  -3.25  -185.579889    2             
iter:  12  03:28:01  -5.55  -3.35  -185.583035    2             
iter:  13  03:29:14  -5.39  -3.34  -185.580736    2             
iter:  14  03:30:26  -5.50  -3.44  -185.578727    2             
iter:  15  03:31:39  -5.31  -3.57  -185.596086    2             
iter:  16  03:32:52  -5.74  -3.12  -185.580836    2             
iter:  17  03:34:04  -5.90  -3.82  -185.579790    2             
iter:  18  03:35:17  -6.41  -3.86  -185.580053    2             
iter:  19  03:36:29  -6.56  -3.86  -185.580432    2             
iter:  20  03:37:42  -6.47  -3.89  -185.579123    2             
iter:  21  03:38:55  -6.64  -3.90  -185.579541    2             
iter:  22  03:40:07  -6.85  -3.96  -185.579935    2             
iter:  23  03:41:19  -6.88  -4.12  -185.579358    2             
iter:  24  03:42:32  -7.07  -4.12  -185.579220    2             
iter:  25  03:43:44  -7.11  -4.24  -185.579517    2             
iter:  26  03:44:56  -7.41  -4.42  -185.579338    2             

Converged after 26 iterations.

Dipole moment: (20.442000, 20.974611, -0.164157) |e|*Ang

Energy contributions relative to reference atoms: (reference = -9073466.092496)

Kinetic:       -175.558821
Potential:      +29.431656
External:        +0.000000
XC:             -34.022135
Entropy (-ST):   -2.040435
Local:           -4.409820
--------------------------
Free energy:   -186.599555
Extrapolated:  -185.579338

Fermi level: 0.86133

Showing only first 2 kpts
 Kpt  Band  Eigenvalues  Occupancy
  0   367      0.84041    0.13802
  0   368      0.85828    0.12691
  0   369      0.88090    0.11281
  0   370      0.89906    0.10170

  1   367      0.73520    0.19481
  1   368      0.77769    0.17443
  1   369      0.79748    0.16360
  1   370      0.81860    0.15130



Forces in eV/Ang:
  0 Pd    0.10185    0.50886   -0.41583
  1 Ag    0.10463    0.48946   -0.51537
  2 Pt   -0.23785    0.50875    0.84199
  3 Pd    0.09696    0.03320   -0.07749
  4 Pd    0.10624   -0.37174    0.20617
  5 Pt   -0.12866   -0.29210   -0.08063
  6 Pd   -0.17156   -0.39245   -0.05105
  7 Ag   -0.12591   -0.45322   -0.70783
  8 Pd   -0.25242   -0.30688    0.27088
  9 Ag    0.52013    0.20772    0.42822
 10 Ru    2.19442    1.28034    0.41061
 11 Ru   -1.85253    0.85684   -0.34835
 12 Pd    1.12417   -0.23658    0.01382
 13 Ru   -0.53917   -1.47441   -0.86786
 14 Ag   -0.44185    0.13639    0.27702
 15 Pd    0.19140   -0.58192    0.08884
 16 Ag   -0.18494   -0.37817    0.35603
 17 Pd   -0.36389    0.54244   -0.00926
 18 Ag   -0.00169    0.00837   -0.00748
 19 Ag   -0.00833    0.00309    0.01998
 20 Pt   -0.00309   -0.01110   -0.00945
 21 Ag   -0.00956    0.00631    0.02370
 22 Ag    0.00846   -0.00632    0.00527
 23 Ag    0.01428    0.01460    0.02128
 24 Pd    0.01025   -0.00545    0.01800
 25 Pd    0.02522    0.00470    0.02831
 26 Ag    0.00472   -0.01887    0.03042
 27 Pt   -0.00389    0.01523   -0.04212
 28 Pd    0.01667    0.01555   -0.01447
 29 Pd    0.01791   -0.01079   -0.00232
 30 Pd    0.15175    0.06458    0.24449
 31 Ru   -0.11001    0.02726   -0.03566
 32 Pt    0.02068   -0.01377   -0.00423
 33 Ag    0.00757   -0.04507    0.10405
 34 Pt   -0.00001   -0.01957   -0.03858
 35 Ru    0.01992    0.00871    0.03367
 36 Pd    0.02836    0.01937    0.02260
 37 Ru   -0.02381    0.01764    0.01237
 38 Pd   -0.02306    0.05806   -0.00805
 39 Pt   -0.02755   -0.08593   -0.05288
 40 Pd   -0.01627   -0.03707   -0.09347
 41 Pd   -0.03591   -0.01119    0.03132
 42 Pt    0.00301    0.05583   -0.20931
 43 Pd   -0.01244   -0.00733   -0.09082
 44 Ru   -0.09712   -0.01442    0.00014
 45 O     0.01411   -0.04349    0.33994
 46 H    -0.21910   -0.09340   -0.43188

System changes: positions 

Initializing position-dependent things.

Density initialized from wave functions
                                             
                                             
                                             
                                             
                   H                         
                 O                           
                                             
                                             
                 Pt      Pd    Ru            
            Pt    APd    PPd    Ru           
                                             
        Pd    Ru    RPd    Pt                
                                             
        Pt     Pd    PPd    Pd     Ag        
                Ag     Ag     Ag             
                                             
           Ag    PAg    APt    Pd            
                                             
            Pd     Ru     Ag     Pd          
       Ag     Ru     Ru                      
             Pd     Pd     Pt                
        Pd     Ag     Pt                     
                                             
                                             
                                             
                                             
                                             

Positions:
   0 Pd     0.000000    1.633958   10.000000    ( 0.0000,  0.0000,  0.0000)
   1 Ag     2.830098    1.633958   10.000000    ( 0.0000,  0.0000,  0.0000)
   2 Pt     5.660196    1.633958   10.000000    ( 0.0000,  0.0000,  0.0000)
   3 Pd     1.415049    4.084895   10.000000    ( 0.0000,  0.0000,  0.0000)
   4 Pd     4.245147    4.084895   10.000000    ( 0.0000,  0.0000,  0.0000)
   5 Pt     7.075245    4.084895   10.000000    ( 0.0000,  0.0000,  0.0000)
   6 Pd     2.830098    6.535832   10.000000    ( 0.0000,  0.0000,  0.0000)
   7 Ag     5.660196    6.535832   10.000000    ( 0.0000,  0.0000,  0.0000)
   8 Pd     8.490294    6.535832   10.000000    ( 0.0000,  0.0000,  0.0000)
   9 Ag     0.000000    0.000000   12.310765    ( 0.0000,  0.0000,  0.0000)
  10 Ru     2.830098    0.000000   12.310765    ( 0.0000,  0.0000,  0.0000)
  11 Ru     5.660196    0.000000   12.310765    ( 0.0000,  0.0000,  0.0000)
  12 Pd     1.415049    2.450937   12.310765    ( 0.0000,  0.0000,  0.0000)
  13 Ru     4.245147    2.450937   12.310765    ( 0.0000,  0.0000,  0.0000)
  14 Ag     7.075245    2.450937   12.310765    ( 0.0000,  0.0000,  0.0000)
  15 Pd     2.830098    4.901874   12.310765    ( 0.0000,  0.0000,  0.0000)
  16 Ag     5.660196    4.901874   12.310765    ( 0.0000,  0.0000,  0.0000)
  17 Pd     8.490294    4.901874   12.310765    ( 0.0000,  0.0000,  0.0000)
  18 Ag     1.420745    0.837384   14.686338    ( 0.0000,  0.0000,  0.0000)
  19 Ag     4.225631    0.833717   14.672452    ( 0.0000,  0.0000,  0.0000)
  20 Pt     7.001416    0.831403   14.674973    ( 0.0000,  0.0000,  0.0000)
  21 Ag     2.849015    3.276581   14.703177    ( 0.0000,  0.0000,  0.0000)
  22 Ag     5.610485    3.273419   14.716979    ( 0.0000,  0.0000,  0.0000)
  23 Ag     8.406809    3.279857   14.705536    ( 0.0000,  0.0000,  0.0000)
  24 Pd     4.228972    5.664694   14.790943    ( 0.0000,  0.0000,  0.0000)
  25 Pd     7.029033    5.719431   14.703962    ( 0.0000,  0.0000,  0.0000)
  26 Ag     9.810688    5.685643   14.696093    ( 0.0000,  0.0000,  0.0000)
  27 Pt     0.032058    1.658426   17.049598    ( 0.0000,  0.0000,  0.0000)
  28 Pd     2.865321    1.671989   17.081261    ( 0.0000,  0.0000,  0.0000)
  29 Pd     5.589458    1.663187   17.079431    ( 0.0000,  0.0000,  0.0000)
  30 Pd     1.484827    4.098941   17.108602    ( 0.0000,  0.0000,  0.0000)
  31 Ru     4.262969    4.075552   17.273246    ( 0.0000,  0.0000,  0.0000)
  32 Pt     6.984938    4.088838   17.100089    ( 0.0000,  0.0000,  0.0000)
  33 Ag     2.793137    6.492843   17.084975    ( 0.0000,  0.0000,  0.0000)
  34 Pt     5.615154    6.446720   17.085144    ( 0.0000,  0.0000,  0.0000)
  35 Ru     8.292889    6.448877   17.194909    ( 0.0000,  0.0000,  0.0000)
  36 Pd     0.123490    0.054718   19.431923    ( 0.0000,  0.0000,  0.0000)
  37 Ru     2.907327   -0.055773   19.216670    ( 0.0000,  0.0000,  0.0000)
  38 Pd     5.599418    0.021073   19.432098    ( 0.0000,  0.0000,  0.0000)
  39 Pt     1.424746    2.427358   19.359809    ( 0.0000,  0.0000,  0.0000)
  40 Pd     4.208400    2.410938   19.449464    ( 0.0000,  0.0000,  0.0000)
  41 Pd     7.078403    2.482115   19.421323    ( 0.0000,  0.0000,  0.0000)
  42 Pt     2.817982    4.852019   19.464995    ( 0.0000,  0.0000,  0.0000)
  43 Pd     5.694904    4.886035   19.502358    ( 0.0000,  0.0000,  0.0000)
  44 Ru     8.397759    4.977354   19.206443    ( 0.0000,  0.0000,  0.0000)
  45 O      2.802946    4.812908   21.478745    ( 0.0000,  0.0000,  0.0000)
  46 H      3.437471    5.485402   21.841614    ( 0.0000,  0.0000,  0.0000)

Unit cell:
           periodic     x           y           z      points  spacing
  1. axis:    yes    8.379498    0.000000    0.000000    35     0.2073
  2. axis:    yes    4.189749    7.256858    0.000000    35     0.2073
  3. axis:    no     0.000000    0.000000   29.243062   135     0.2166

  Lengths:   8.379498   8.379498  29.243062
  Angles:   90.000000  90.000000  60.000000

Effective grid spacing dv^(1/3) = 0.2207

                     log10-error:    total        iterations:
           time      wfs    density  energy       fermi  poisson
iter:   1  03:46:42  -2.70   +inf  -187.638133    3             
iter:   2  03:47:54  -1.70  -2.04  -258.028583    37            
iter:   3  03:49:07  -2.04  -1.37  -187.151368    36            
iter:   4  03:50:19  -3.07  -2.17  -186.043082    3             
iter:   5  03:51:31  -3.66  -2.40  -185.634479    2             
iter:   6  03:52:44  -4.39  -3.09  -185.625965    3             
iter:   7  03:53:56  -5.11  -3.10  -185.621706    2             
iter:   8  03:55:09  -5.23  -3.19  -185.614335    2             
iter:   9  03:56:22  -5.26  -3.29  -185.621318    2             
iter:  10  03:57:35  -5.04  -3.18  -185.611395    2             
iter:  11  03:58:47  -5.53  -3.66  -185.610847    2             
iter:  12  04:00:00  -6.01  -3.70  -185.611516    2             
iter:  13  04:01:13  -5.89  -3.66  -185.610319    2             
iter:  14  04:02:26  -6.03  -3.79  -185.610679    2             
iter:  15  04:03:39  -6.36  -3.59  -185.610601    2             
iter:  16  04:04:52  -6.66  -3.92  -185.610200    2             
iter:  17  04:06:05  -6.96  -3.93  -185.610137    2             
iter:  18  04:07:17  -7.03  -3.99  -185.610207    2             
iter:  19  04:08:30  -7.20  -4.17  -185.610308    2             
iter:  20  04:09:42  -7.12  -4.23  -185.610114    2             
iter:  21  04:10:55  -6.90  -4.02  -185.610336    2             
iter:  22  04:12:07  -7.59  -4.43  -185.610275    2             

Converged after 22 iterations.

Dipole moment: (20.145432, 20.088680, -0.188590) |e|*Ang

Energy contributions relative to reference atoms: (reference = -9073466.092496)

Kinetic:       -174.759190
Potential:      +28.689244
External:        +0.000000
XC:             -34.116378
Entropy (-ST):   -2.040907
Local:           -4.403498
--------------------------
Free energy:   -186.630729
Extrapolated:  -185.610275

Fermi level: 0.85103

Showing only first 2 kpts
 Kpt  Band  Eigenvalues  Occupancy
  0   367      0.83124    0.13733
  0   368      0.84786    0.12698
  0   369      0.87123    0.11242
  0   370      0.88895    0.10158

  1   367      0.72433    0.19506
  1   368      0.76760    0.17432
  1   369      0.78743    0.16346
  1   370      0.80894    0.15093



Forces in eV/Ang:
  0 Pd    0.10049    0.50887   -0.41964
  1 Ag    0.10467    0.49040   -0.51940
  2 Pt   -0.23905    0.50871    0.84182
  3 Pd    0.09693    0.03404   -0.08094
  4 Pd    0.10654   -0.37264    0.20447
  5 Pt   -0.12946   -0.29305   -0.08495
  6 Pd   -0.17291   -0.39226   -0.05275
  7 Ag   -0.12633   -0.45372   -0.71037
  8 Pd   -0.25297   -0.30806    0.26418
  9 Ag    0.52182    0.20416    0.42762
 10 Ru    2.19901    1.27834    0.41844
 11 Ru   -1.85778    0.85169   -0.33938
 12 Pd    1.12437   -0.23388    0.01821
 13 Ru   -0.53948   -1.47526   -0.85918
 14 Ag   -0.43993    0.13931    0.27968
 15 Pd    0.19252   -0.58107    0.09801
 16 Ag   -0.18166   -0.37606    0.36945
 17 Pd   -0.36324    0.54586   -0.00019
 18 Ag    0.00227    0.00301   -0.01087
 19 Ag    0.01077    0.00717    0.00395
 20 Pt   -0.00811   -0.02403    0.01310
 21 Ag   -0.01639    0.01014    0.02370
 22 Ag    0.00004   -0.00014    0.00337
 23 Ag    0.03855    0.02199    0.04808
 24 Pd   -0.00579   -0.00344    0.00616
 25 Pd    0.00411   -0.00398    0.00886
 26 Ag    0.02219   -0.01152    0.05311
 27 Pt   -0.00373    0.00922   -0.02598
 28 Pd   -0.00343   -0.03977   -0.05165
 29 Pd    0.02596    0.00005   -0.02321
 30 Pd   -0.01370   -0.02380    0.05562
 31 Ru    0.05730    0.00125   -0.01887
 32 Pt    0.00562   -0.02107   -0.02639
 33 Ag    0.04126    0.11093    0.02283
 34 Pt    0.03675    0.00754   -0.01021
 35 Ru   -0.01836    0.00304    0.01819
 36 Pd   -0.02185   -0.04000    0.01892
 37 Ru   -0.03294    0.00584   -0.01326
 38 Pd   -0.01991   -0.02124    0.02521
 39 Pt    0.03629    0.01021    0.04454
 40 Pd   -0.04932    0.04616   -0.03939
 41 Pd   -0.02042   -0.01192    0.00894
 42 Pt   -0.07570   -0.10514   -0.04532
 43 Pd   -0.06643   -0.01142   -0.06928
 44 Ru   -0.02231    0.03175    0.07961
 45 O    -0.02990   -0.09147    0.11790
 46 H    -0.16226   -0.05655   -0.18109

System changes: positions 

Initializing position-dependent things.

Density initialized from wave functions
                                             
                                             
                                             
                                             
                   H                         
                 O                           
                                             
                                             
                 Pt      Pd    Ru            
            Pt    APd    PPd    Ru           
                                             
        Pd    Ru    RPd    Pt                
                                             
        Pt     Pd    PPd    Pd     Ag        
                Ag     Ag     Ag             
                                             
           Ag    PAg    APt    Pd            
                                             
            Pd     Ru     Ag    Pd           
       Ag     Ru     Ru                      
             Pd     Pd     Pt                
        Pd     Ag     Pt                     
                                             
                                             
                                             
                                             
                                             

Positions:
   0 Pd     0.000000    1.633958   10.000000    ( 0.0000,  0.0000,  0.0000)
   1 Ag     2.830098    1.633958   10.000000    ( 0.0000,  0.0000,  0.0000)
   2 Pt     5.660196    1.633958   10.000000    ( 0.0000,  0.0000,  0.0000)
   3 Pd     1.415049    4.084895   10.000000    ( 0.0000,  0.0000,  0.0000)
   4 Pd     4.245147    4.084895   10.000000    ( 0.0000,  0.0000,  0.0000)
   5 Pt     7.075245    4.084895   10.000000    ( 0.0000,  0.0000,  0.0000)
   6 Pd     2.830098    6.535832   10.000000    ( 0.0000,  0.0000,  0.0000)
   7 Ag     5.660196    6.535832   10.000000    ( 0.0000,  0.0000,  0.0000)
   8 Pd     8.490294    6.535832   10.000000    ( 0.0000,  0.0000,  0.0000)
   9 Ag     0.000000    0.000000   12.310765    ( 0.0000,  0.0000,  0.0000)
  10 Ru     2.830098    0.000000   12.310765    ( 0.0000,  0.0000,  0.0000)
  11 Ru     5.660196    0.000000   12.310765    ( 0.0000,  0.0000,  0.0000)
  12 Pd     1.415049    2.450937   12.310765    ( 0.0000,  0.0000,  0.0000)
  13 Ru     4.245147    2.450937   12.310765    ( 0.0000,  0.0000,  0.0000)
  14 Ag     7.075245    2.450937   12.310765    ( 0.0000,  0.0000,  0.0000)
  15 Pd     2.830098    4.901874   12.310765    ( 0.0000,  0.0000,  0.0000)
  16 Ag     5.660196    4.901874   12.310765    ( 0.0000,  0.0000,  0.0000)
  17 Pd     8.490294    4.901874   12.310765    ( 0.0000,  0.0000,  0.0000)
  18 Ag     1.420534    0.838353   14.684336    ( 0.0000,  0.0000,  0.0000)
  19 Ag     4.226308    0.834760   14.674472    ( 0.0000,  0.0000,  0.0000)
  20 Pt     7.000339    0.827455   14.675855    ( 0.0000,  0.0000,  0.0000)
  21 Ag     2.846338    3.278559   14.708405    ( 0.0000,  0.0000,  0.0000)
  22 Ag     5.611545    3.272677   14.717743    ( 0.0000,  0.0000,  0.0000)
  23 Ag     8.412351    3.283609   14.713464    ( 0.0000,  0.0000,  0.0000)
  24 Pd     4.228983    5.663996   14.793872    ( 0.0000,  0.0000,  0.0000)
  25 Pd     7.032013    5.719336   14.707619    ( 0.0000,  0.0000,  0.0000)
  26 Ag     9.813967    5.682781   14.705534    ( 0.0000,  0.0000,  0.0000)
  27 Pt     0.031714    1.660896   17.043687    ( 0.0000,  0.0000,  0.0000)
  28 Pd     2.865873    1.668172   17.073851    ( 0.0000,  0.0000,  0.0000)
  29 Pd     5.594516    1.661592   17.076690    ( 0.0000,  0.0000,  0.0000)
  30 Pd     1.495247    4.100942   17.135494    ( 0.0000,  0.0000,  0.0000)
  31 Ru     4.261690    4.077954   17.264354    ( 0.0000,  0.0000,  0.0000)
  32 Pt     6.988206    4.084963   17.097093    ( 0.0000,  0.0000,  0.0000)
  33 Ag     2.799291    6.504471   17.094650    ( 0.0000,  0.0000,  0.0000)
  34 Pt     5.619323    6.446446   17.080945    ( 0.0000,  0.0000,  0.0000)
  35 Ru     8.292204    6.450402   17.200157    ( 0.0000,  0.0000,  0.0000)
  36 Pd     0.124389    0.053852   19.434594    ( 0.0000,  0.0000,  0.0000)
  37 Ru     2.900838   -0.053378   19.216752    ( 0.0000,  0.0000,  0.0000)
  38 Pd     5.593965    0.023932   19.435318    ( 0.0000,  0.0000,  0.0000)
  39 Pt     1.425660    2.419723   19.363189    ( 0.0000,  0.0000,  0.0000)
  40 Pd     4.200391    2.412610   19.438576    ( 0.0000,  0.0000,  0.0000)
  41 Pd     7.073415    2.479887   19.425105    ( 0.0000,  0.0000,  0.0000)
  42 Pt     2.808088    4.842135   19.471942    ( 0.0000,  0.0000,  0.0000)
  43 Pd     5.687624    4.883570   19.485578    ( 0.0000,  0.0000,  0.0000)
  44 Ru     8.385393    4.979548   19.218617    ( 0.0000,  0.0000,  0.0000)
  45 O      2.785913    4.782449   21.483408    ( 0.0000,  0.0000,  0.0000)
  46 H      3.415864    5.487916   21.794656    ( 0.0000,  0.0000,  0.0000)

Unit cell:
           periodic     x           y           z      points  spacing
  1. axis:    yes    8.379498    0.000000    0.000000    35     0.2073
  2. axis:    yes    4.189749    7.256858    0.000000    35     0.2073
  3. axis:    no     0.000000    0.000000   29.243062   135     0.2166

  Lengths:   8.379498   8.379498  29.243062
  Angles:   90.000000  90.000000  60.000000

Effective grid spacing dv^(1/3) = 0.2207

                     log10-error:    total        iterations:
           time      wfs    density  energy       fermi  poisson
iter:   1  04:13:53  -2.82   +inf  -186.180452    3             
iter:   2  04:15:06  -2.29  -2.32  -210.447295    4             
iter:   3  04:16:20  -2.56  -1.57  -185.812323    4             
iter:   4  04:17:33  -3.80  -2.68  -185.669863    3             
iter:   5  04:18:45  -4.36  -2.89  -185.629033    3             
iter:   6  04:19:58  -5.17  -3.27  -185.627149    2             
iter:   7  04:21:11  -5.43  -3.37  -185.628419    2             
iter:   8  04:22:24  -5.40  -3.38  -185.625273    2             
iter:   9  04:23:36  -5.66  -3.52  -185.624691    2             
iter:  10  04:24:49  -5.75  -3.64  -185.623471    2             
iter:  11  04:26:01  -5.78  -3.65  -185.627372    2             
iter:  12  04:27:14  -6.14  -3.47  -185.623227    2             
iter:  13  04:28:26  -6.63  -3.78  -185.623537    2             
iter:  14  04:29:38  -6.90  -3.98  -185.623256    2             
iter:  15  04:30:50  -6.53  -3.99  -185.623381    2             
iter:  16  04:32:03  -6.83  -4.04  -185.623224    2             
iter:  17  04:33:15  -7.05  -3.99  -185.623667    2             
iter:  18  04:34:28  -7.08  -4.18  -185.623475    2             
iter:  19  04:35:41  -7.16  -4.25  -185.623379    2             
iter:  20  04:36:54  -7.44  -4.41  -185.623461    2             

Converged after 20 iterations.

Dipole moment: (20.002556, 20.043325, -0.206067) |e|*Ang

Energy contributions relative to reference atoms: (reference = -9073466.092496)

Kinetic:       -174.493890
Potential:      +28.408043
External:        +0.000000
XC:             -34.120256
Entropy (-ST):   -2.038809
Local:           -4.397954
--------------------------
Free energy:   -186.642865
Extrapolated:  -185.623461

Fermi level: 0.84375

Showing only first 2 kpts
 Kpt  Band  Eigenvalues  Occupancy
  0   367      0.82503    0.13666
  0   368      0.84196    0.12612
  0   369      0.86471    0.11195
  0   370      0.88076    0.10213

  1   367      0.71737    0.19492
  1   368      0.76028    0.17433
  1   369      0.78075    0.16312
  1   370      0.80207    0.15068



Forces in eV/Ang:
  0 Pd    0.10186    0.50752   -0.42074
  1 Ag    0.10339    0.48935   -0.51931
  2 Pt   -0.24082    0.50748    0.84400
  3 Pd    0.09664    0.03384   -0.08011
  4 Pd    0.10589   -0.37140    0.20311
  5 Pt   -0.12873   -0.29123   -0.08679
  6 Pd   -0.17147   -0.39318   -0.05404
  7 Ag   -0.12626   -0.45288   -0.71232
  8 Pd   -0.25395   -0.30812    0.26539
  9 Ag    0.52126    0.20193    0.42753
 10 Ru    2.20194    1.27925    0.41927
 11 Ru   -1.86109    0.83633   -0.32619
 12 Pd    1.12593   -0.22944    0.02348
 13 Ru   -0.54851   -1.47304   -0.85181
 14 Ag   -0.43016    0.14005    0.30226
 15 Pd    0.18727   -0.58005    0.10814
 16 Ag   -0.17997   -0.37173    0.37894
 17 Pd   -0.35365    0.55119    0.01841
 18 Ag    0.00071   -0.01567   -0.01949
 19 Ag    0.00722   -0.00512   -0.01297
 20 Pt    0.01893    0.02044   -0.00490
 21 Ag    0.01679   -0.00458    0.01736
 22 Ag    0.00136    0.00268   -0.00704
 23 Ag    0.00440   -0.00889    0.00903
 24 Pd    0.00607    0.00283    0.00521
 25 Pd   -0.01630    0.00525   -0.01672
 26 Ag    0.00827    0.01796    0.05117
 27 Pt    0.03899    0.01688    0.04523
 28 Pd   -0.00459   -0.02578   -0.03177
 29 Pd   -0.02620    0.02662   -0.00583
 30 Pd   -0.08328   -0.00889   -0.09307
 31 Ru    0.04607   -0.00096   -0.00430
 32 Pt    0.01652    0.01215    0.01376
 33 Ag    0.01572    0.01990    0.00982
 34 Pt    0.01699    0.01275   -0.01261
 35 Ru    0.01990   -0.03023    0.01784
 36 Pd   -0.05639   -0.04929    0.00323
 37 Ru   -0.03140    0.00974    0.00421
 38 Pd   -0.01733   -0.05206    0.01844
 39 Pt   -0.00333   -0.02298    0.04974
 40 Pd   -0.00892    0.03393   -0.02022
 41 Pd    0.01600   -0.00359   -0.02202
 42 Pt   -0.11014   -0.11525   -0.11976
 43 Pd   -0.07026   -0.01809   -0.02138
 44 Ru   -0.00001    0.04251    0.02269
 45 O     0.18384    0.12571    0.03923
 46 H    -0.24287   -0.15407   -0.05724

System changes: positions 

Initializing position-dependent things.

Density initialized from wave functions
                                             
                                             
                                             
                                             
                   H                         
                 O                           
                                             
                                             
                 Pt     Pd     Ru            
            Pt    APd    PPd    Ru           
                                             
        Pd    Ru    RPd    Pt                
                                             
        Pt     Pd    PPd    Pd     Ag        
                Ag     Ag     Ag             
                                             
           Ag    PAg    APt    Pd            
                                             
            Pd     Ru     Ag    Pd           
       Ag     Ru     Ru                      
             Pd     Pd     Pt                
        Pd     Ag     Pt                     
                                             
                                             
                                             
                                             
                                             

Positions:
   0 Pd     0.000000    1.633958   10.000000    ( 0.0000,  0.0000,  0.0000)
   1 Ag     2.830098    1.633958   10.000000    ( 0.0000,  0.0000,  0.0000)
   2 Pt     5.660196    1.633958   10.000000    ( 0.0000,  0.0000,  0.0000)
   3 Pd     1.415049    4.084895   10.000000    ( 0.0000,  0.0000,  0.0000)
   4 Pd     4.245147    4.084895   10.000000    ( 0.0000,  0.0000,  0.0000)
   5 Pt     7.075245    4.084895   10.000000    ( 0.0000,  0.0000,  0.0000)
   6 Pd     2.830098    6.535832   10.000000    ( 0.0000,  0.0000,  0.0000)
   7 Ag     5.660196    6.535832   10.000000    ( 0.0000,  0.0000,  0.0000)
   8 Pd     8.490294    6.535832   10.000000    ( 0.0000,  0.0000,  0.0000)
   9 Ag     0.000000    0.000000   12.310765    ( 0.0000,  0.0000,  0.0000)
  10 Ru     2.830098    0.000000   12.310765    ( 0.0000,  0.0000,  0.0000)
  11 Ru     5.660196    0.000000   12.310765    ( 0.0000,  0.0000,  0.0000)
  12 Pd     1.415049    2.450937   12.310765    ( 0.0000,  0.0000,  0.0000)
  13 Ru     4.245147    2.450937   12.310765    ( 0.0000,  0.0000,  0.0000)
  14 Ag     7.075245    2.450937   12.310765    ( 0.0000,  0.0000,  0.0000)
  15 Pd     2.830098    4.901874   12.310765    ( 0.0000,  0.0000,  0.0000)
  16 Ag     5.660196    4.901874   12.310765    ( 0.0000,  0.0000,  0.0000)
  17 Pd     8.490294    4.901874   12.310765    ( 0.0000,  0.0000,  0.0000)
  18 Ag     1.420454    0.837186   14.681453    ( 0.0000,  0.0000,  0.0000)
  19 Ag     4.227165    0.834595   14.674022    ( 0.0000,  0.0000,  0.0000)
  20 Pt     7.002022    0.828425   14.675312    ( 0.0000,  0.0000,  0.0000)
  21 Ag     2.847147    3.278845   14.712262    ( 0.0000,  0.0000,  0.0000)
  22 Ag     5.612233    3.272656   14.717159    ( 0.0000,  0.0000,  0.0000)
  23 Ag     8.414605    3.283989   14.716935    ( 0.0000,  0.0000,  0.0000)
  24 Pd     4.229778    5.663898   14.795668    ( 0.0000,  0.0000,  0.0000)
  25 Pd     7.031641    5.719825   14.707191    ( 0.0000,  0.0000,  0.0000)
  26 Ag     9.815864    5.683433   14.714269    ( 0.0000,  0.0000,  0.0000)
  27 Pt     0.035654    1.663566   17.046126    ( 0.0000,  0.0000,  0.0000)
  28 Pd     2.865938    1.664948   17.068001    ( 0.0000,  0.0000,  0.0000)
  29 Pd     5.593483    1.663524   17.075447    ( 0.0000,  0.0000,  0.0000)
  30 Pd     1.492458    4.101867   17.137555    ( 0.0000,  0.0000,  0.0000)
  31 Ru     4.263868    4.079270   17.260779    ( 0.0000,  0.0000,  0.0000)
  32 Pt     6.991347    4.084780   17.097545    ( 0.0000,  0.0000,  0.0000)
  33 Ag     2.802900    6.508964   17.100381    ( 0.0000,  0.0000,  0.0000)
  34 Pt     5.621778    6.447324   17.077802    ( 0.0000,  0.0000,  0.0000)
  35 Ru     8.294886    6.447768   17.204107    ( 0.0000,  0.0000,  0.0000)
  36 Pd     0.119410    0.049555   19.435272    ( 0.0000,  0.0000,  0.0000)
  37 Ru     2.895376   -0.051200   19.218040    ( 0.0000,  0.0000,  0.0000)
[...]
  29 Pd     5.565203    1.655547   17.082771    ( 0.0000,  0.0000,  0.0000)
  30 Pd     1.430071    4.068366   17.148623    ( 0.0000,  0.0000,  0.0000)
  31 Ru     4.214542    4.062272   17.275634    ( 0.0000,  0.0000,  0.0000)
  32 Pt     6.945186    4.073989   17.100818    ( 0.0000,  0.0000,  0.0000)
  33 Ag     2.747711    6.483701   17.078892    ( 0.0000,  0.0000,  0.0000)
  34 Pt     5.573117    6.432676   17.083168    ( 0.0000,  0.0000,  0.0000)
  35 Ru     8.244379    6.428678   17.199880    ( 0.0000,  0.0000,  0.0000)
  36 Pd     0.002792   -0.030994   19.427340    ( 0.0000,  0.0000,  0.0000)
  37 Ru     2.821877   -0.069810   19.214878    ( 0.0000,  0.0000,  0.0000)
  38 Pd     5.529799   -0.020968   19.430283    ( 0.0000,  0.0000,  0.0000)
  39 Pt     1.392284    2.295163   19.369854    ( 0.0000,  0.0000,  0.0000)
  40 Pd     4.159239    2.385617   19.438171    ( 0.0000,  0.0000,  0.0000)
  41 Pd     7.048246    2.455092   19.425362    ( 0.0000,  0.0000,  0.0000)
  42 Pt     2.677852    4.756718   19.465410    ( 0.0000,  0.0000,  0.0000)
  43 Pd     5.607265    4.834490   19.488978    ( 0.0000,  0.0000,  0.0000)
  44 Ru     8.300143    4.974218   19.238868    ( 0.0000,  0.0000,  0.0000)
  45 O      2.772182    4.752179   21.475806    ( 0.0000,  0.0000,  0.0000)
  46 H      3.067113    5.667932   21.740737    ( 0.0000,  0.0000,  0.0000)

Unit cell:
           periodic     x           y           z      points  spacing
  1. axis:    yes    8.379498    0.000000    0.000000    35     0.2073
  2. axis:    yes    4.189749    7.256858    0.000000    35     0.2073
  3. axis:    no     0.000000    0.000000   29.243062   135     0.2166

  Lengths:   8.379498   8.379498  29.243062
  Angles:   90.000000  90.000000  60.000000

Effective grid spacing dv^(1/3) = 0.2207

                     log10-error:    total        iterations:
           time      wfs    density  energy       fermi  poisson
iter:   1  09:07:02  -2.23   +inf  -185.925982    3             
iter:   2  09:08:14  -2.64  -2.48  -196.242438    4             
iter:   3  09:09:26  -2.93  -1.71  -185.755882    3             
iter:   4  09:10:39  -4.08  -2.82  -185.698406    3             
iter:   5  09:11:51  -4.52  -3.06  -185.697638    2             
iter:   6  09:13:04  -4.67  -2.98  -185.686641    2             
iter:   7  09:14:17  -4.44  -3.19  -185.696182    2             
iter:   8  09:15:29  -4.69  -3.05  -185.677110    2             
iter:   9  09:16:42  -5.21  -3.42  -185.685210    2             
iter:  10  09:17:55  -5.46  -3.24  -185.678705    2             
iter:  11  09:19:08  -5.70  -3.25  -185.676032    2             
iter:  12  09:20:21  -5.88  -3.59  -185.675653    2             
iter:  13  09:21:34  -5.94  -3.58  -185.675980    2             
iter:  14  09:22:46  -6.07  -3.78  -185.675150    2             
iter:  15  09:23:59  -6.06  -3.80  -185.676517    2             
iter:  16  09:25:11  -6.50  -3.72  -185.675398    2             
iter:  17  09:26:24  -6.42  -3.73  -185.675372    2             
iter:  18  09:27:37  -6.79  -4.15  -185.675126    2             
iter:  19  09:28:49  -6.74  -4.20  -185.675780    2             
iter:  20  09:30:02  -7.12  -4.03  -185.675148    2             
iter:  21  09:31:15  -7.11  -4.30  -185.675479    2             
iter:  22  09:32:27  -7.03  -4.12  -185.675300    2             
iter:  23  09:33:40  -7.23  -4.12  -185.675364    2             
iter:  24  09:34:53  -7.58  -4.41  -185.675172    2             

Converged after 24 iterations.

Dipole moment: (31.055369, 25.414466, -0.214675) |e|*Ang

Energy contributions relative to reference atoms: (reference = -9073466.092496)

Kinetic:       -174.252566
Potential:      +28.176923
External:        +0.000000
XC:             -34.181639
Entropy (-ST):   -2.025432
Local:           -4.405174
--------------------------
Free energy:   -186.687888
Extrapolated:  -185.675172

Fermi level: 0.84058

Showing only first 2 kpts
 Kpt  Band  Eigenvalues  Occupancy
  0   367      0.82040    0.13757
  0   368      0.84389    0.12293
  0   369      0.86348    0.11075
  0   370      0.87857    0.10154

  1   367      0.71914    0.19277
  1   368      0.75320    0.17638
  1   369      0.77558    0.16425
  1   370      0.79719    0.15170



Forces in eV/Ang:
  0 Pd    0.10389    0.50736   -0.41589
  1 Ag    0.10217    0.48829   -0.52035
  2 Pt   -0.24477    0.50702    0.85290
  3 Pd    0.09524    0.03209   -0.08037
  4 Pd    0.10718   -0.37335    0.20686
  5 Pt   -0.12905   -0.29012   -0.08026
  6 Pd   -0.16926   -0.39283   -0.05164
  7 Ag   -0.12635   -0.45254   -0.70977
  8 Pd   -0.25995   -0.30893    0.26349
  9 Ag    0.52677    0.20297    0.40081
 10 Ru    2.21019    1.27711    0.41673
 11 Ru   -1.85570    0.83268   -0.33583
 12 Pd    1.12047   -0.21805    0.02737
 13 Ru   -0.54850   -1.45766   -0.85438
 14 Ag   -0.42541    0.15244    0.29208
 15 Pd    0.18083   -0.57718    0.11516
 16 Ag   -0.17177   -0.37292    0.37300
 17 Pd   -0.35774    0.54295    0.03783
 18 Ag   -0.01073   -0.01605   -0.00130
 19 Ag   -0.02826   -0.00389   -0.01499
 20 Pt   -0.04215   -0.00032    0.01388
 21 Ag    0.01033   -0.02884    0.00295
 22 Ag   -0.04042    0.00481   -0.00113
 23 Ag   -0.00403   -0.00337   -0.00713
 24 Pd   -0.04055   -0.03479   -0.00532
 25 Pd   -0.03387   -0.02680   -0.02532
 26 Ag   -0.01113    0.00242    0.00501
 27 Pt    0.03710   -0.00278    0.03106
 28 Pd   -0.02134   -0.01278    0.03040
 29 Pd   -0.02438   -0.02519   -0.02329
 30 Pd   -0.02271    0.01216   -0.04949
 31 Ru   -0.01824    0.00253   -0.02899
 32 Pt    0.02067    0.00350    0.01957
 33 Ag   -0.00421   -0.01760    0.03077
 34 Pt    0.03683   -0.01254   -0.02083
 35 Ru    0.03786    0.01273    0.08577
 36 Pd    0.05759    0.06486    0.02127
 37 Ru    0.04410   -0.03670   -0.03590
 38 Pd   -0.00193    0.03957   -0.02626
 39 Pt   -0.00965    0.02131    0.01828
 40 Pd   -0.01766   -0.02461   -0.02408
 41 Pd   -0.02891   -0.00289   -0.01308
 42 Pt    0.01549   -0.00616   -0.01444
 43 Pd    0.00775    0.01570    0.03386
 44 Ru    0.01366    0.01890   -0.05506
 45 O     0.10651    0.38652   -0.04498
 46 H    -0.17951   -0.30532   -0.03382

System changes: positions 

Initializing position-dependent things.

Density initialized from wave functions
                                             
                                             
                                             
                                             
                   H                         
                 O                           
                                             
                                             
                 Pt     Pd     Ru            
            Pt    APd    PPd    Ru           
                                             
       Pd    PRu    RPd    Pt                
                                             
        Pt     Pd    PPd    Pd     Ag        
                Ag     Ag     Ag             
                                             
           Ag     Ag    APt    Pd            
                                             
            Pd     Ru     Ag     Pd          
       Ag     Ru     Ru                      
             Pd     Pd     Pt                
        Pd     Ag     Pt                     
                                             
                                             
                                             
                                             
                                             

Positions:
   0 Pd     0.000000    1.633958   10.000000    ( 0.0000,  0.0000,  0.0000)
   1 Ag     2.830098    1.633958   10.000000    ( 0.0000,  0.0000,  0.0000)
   2 Pt     5.660196    1.633958   10.000000    ( 0.0000,  0.0000,  0.0000)
   3 Pd     1.415049    4.084895   10.000000    ( 0.0000,  0.0000,  0.0000)
   4 Pd     4.245147    4.084895   10.000000    ( 0.0000,  0.0000,  0.0000)
   5 Pt     7.075245    4.084895   10.000000    ( 0.0000,  0.0000,  0.0000)
   6 Pd     2.830098    6.535832   10.000000    ( 0.0000,  0.0000,  0.0000)
   7 Ag     5.660196    6.535832   10.000000    ( 0.0000,  0.0000,  0.0000)
   8 Pd     8.490294    6.535832   10.000000    ( 0.0000,  0.0000,  0.0000)
   9 Ag     0.000000    0.000000   12.310765    ( 0.0000,  0.0000,  0.0000)
  10 Ru     2.830098    0.000000   12.310765    ( 0.0000,  0.0000,  0.0000)
  11 Ru     5.660196    0.000000   12.310765    ( 0.0000,  0.0000,  0.0000)
  12 Pd     1.415049    2.450937   12.310765    ( 0.0000,  0.0000,  0.0000)
  13 Ru     4.245147    2.450937   12.310765    ( 0.0000,  0.0000,  0.0000)
  14 Ag     7.075245    2.450937   12.310765    ( 0.0000,  0.0000,  0.0000)
  15 Pd     2.830098    4.901874   12.310765    ( 0.0000,  0.0000,  0.0000)
  16 Ag     5.660196    4.901874   12.310765    ( 0.0000,  0.0000,  0.0000)
  17 Pd     8.490294    4.901874   12.310765    ( 0.0000,  0.0000,  0.0000)
  18 Ag     1.418084    0.838804   14.677055    ( 0.0000,  0.0000,  0.0000)
  19 Ag     4.227465    0.832660   14.669859    ( 0.0000,  0.0000,  0.0000)
  20 Pt     7.000520    0.828733   14.668628    ( 0.0000,  0.0000,  0.0000)
  21 Ag     2.842120    3.282134   14.715200    ( 0.0000,  0.0000,  0.0000)
  22 Ag     5.606355    3.273378   14.716191    ( 0.0000,  0.0000,  0.0000)
  23 Ag     8.404704    3.282952   14.718498    ( 0.0000,  0.0000,  0.0000)
  24 Pd     4.223662    5.668946   14.785243    ( 0.0000,  0.0000,  0.0000)
  25 Pd     7.026131    5.721888   14.708603    ( 0.0000,  0.0000,  0.0000)
  26 Ag     9.805362    5.682341   14.710860    ( 0.0000,  0.0000,  0.0000)
  27 Pt    -0.002110    1.635936   17.044009    ( 0.0000,  0.0000,  0.0000)
  28 Pd     2.837042    1.646628   17.055425    ( 0.0000,  0.0000,  0.0000)
  29 Pd     5.560977    1.655607   17.080433    ( 0.0000,  0.0000,  0.0000)
  30 Pd     1.424959    4.065735   17.142902    ( 0.0000,  0.0000,  0.0000)
  31 Ru     4.214289    4.061698   17.279068    ( 0.0000,  0.0000,  0.0000)
  32 Pt     6.944000    4.070457   17.103386    ( 0.0000,  0.0000,  0.0000)
  33 Ag     2.748699    6.482879   17.081663    ( 0.0000,  0.0000,  0.0000)
  34 Pt     5.573249    6.430141   17.080948    ( 0.0000,  0.0000,  0.0000)
  35 Ru     8.244515    6.427063   17.200536    ( 0.0000,  0.0000,  0.0000)
  36 Pd     0.005060   -0.028059   19.428625    ( 0.0000,  0.0000,  0.0000)
  37 Ru     2.822816   -0.073451   19.211732    ( 0.0000,  0.0000,  0.0000)
  38 Pd     5.530715   -0.019974   19.428970    ( 0.0000,  0.0000,  0.0000)
  39 Pt     1.390284    2.298356   19.373180    ( 0.0000,  0.0000,  0.0000)
  40 Pd     4.155990    2.382685   19.435147    ( 0.0000,  0.0000,  0.0000)
  41 Pd     7.044191    2.453135   19.421643    ( 0.0000,  0.0000,  0.0000)
  42 Pt     2.676116    4.755716   19.460653    ( 0.0000,  0.0000,  0.0000)
  43 Pd     5.604633    4.836277   19.492075    ( 0.0000,  0.0000,  0.0000)
  44 Ru     8.301189    4.974703   19.238926    ( 0.0000,  0.0000,  0.0000)
  45 O      2.776180    4.762426   21.468581    ( 0.0000,  0.0000,  0.0000)
  46 H      3.058121    5.669193   21.750403    ( 0.0000,  0.0000,  0.0000)

Unit cell:
           periodic     x           y           z      points  spacing
  1. axis:    yes    8.379498    0.000000    0.000000    35     0.2073
  2. axis:    yes    4.189749    7.256858    0.000000    35     0.2073
  3. axis:    no     0.000000    0.000000   29.243062   135     0.2166

  Lengths:   8.379498   8.379498  29.243062
  Angles:   90.000000  90.000000  60.000000

Effective grid spacing dv^(1/3) = 0.2207

                     log10-error:    total        iterations:
           time      wfs    density  energy       fermi  poisson
iter:   1  09:36:39  -3.53   +inf  -185.932224    3             
iter:   2  09:37:51  -2.65  -2.49  -198.065972    4             
iter:   3  09:39:03  -2.88  -1.68  -185.772553    3             
iter:   4  09:40:17  -4.09  -2.86  -185.691362    3             
iter:   5  09:41:30  -4.81  -3.38  -185.686289    2             
iter:   6  09:42:43  -5.58  -3.34  -185.687337    2             
iter:   7  09:43:55  -5.74  -3.34  -185.684484    2             
iter:   8  09:45:09  -6.06  -3.62  -185.681602    2             
iter:   9  09:46:22  -6.60  -3.69  -185.681994    2             
iter:  10  09:47:35  -6.50  -3.92  -185.681414    2             
iter:  11  09:48:48  -6.24  -3.69  -185.681217    2             
iter:  12  09:50:01  -6.64  -3.75  -185.681047    2             
iter:  13  09:51:14  -6.89  -4.00  -185.681437    2             
iter:  14  09:52:27  -7.53  -4.32  -185.681152    2             

Converged after 14 iterations.

Dipole moment: (31.188833, 25.263734, -0.204474) |e|*Ang

Energy contributions relative to reference atoms: (reference = -9073466.092496)

Kinetic:       -173.431780
Potential:      +27.506752
External:        +0.000000
XC:             -34.352880
Entropy (-ST):   -2.025574
Local:           -4.390457
--------------------------
Free energy:   -186.693939
Extrapolated:  -185.681152

Fermi level: 0.84465

Showing only first 2 kpts
 Kpt  Band  Eigenvalues  Occupancy
  0   367      0.82494    0.13728
  0   368      0.84817    0.12280
  0   369      0.86669    0.11128
  0   370      0.88212    0.10185

  1   367      0.72359    0.19260
  1   368      0.75718    0.17643
  1   369      0.77967    0.16424
  1   370      0.80116    0.15176



Forces in eV/Ang:
  0 Pd    0.10293    0.50961   -0.41721
  1 Ag    0.10510    0.48838   -0.51845
  2 Pt   -0.24621    0.50532    0.85276
  3 Pd    0.09587    0.03168   -0.08053
  4 Pd    0.10615   -0.37701    0.20601
  5 Pt   -0.12778   -0.29195   -0.08405
  6 Pd   -0.17231   -0.39123   -0.05137
  7 Ag   -0.12461   -0.45146   -0.71150
  8 Pd   -0.25725   -0.30621    0.26575
  9 Ag    0.51904    0.20462    0.39646
 10 Ru    2.20899    1.27650    0.40099
 11 Ru   -1.85457    0.82762   -0.33702
 12 Pd    1.12166   -0.21099    0.02885
 13 Ru   -0.55185   -1.45760   -0.85695
 14 Ag   -0.42638    0.15155    0.29145
 15 Pd    0.16864   -0.58132    0.12417
 16 Ag   -0.17355   -0.37703    0.36930
 17 Pd   -0.35011    0.54262    0.03557
 18 Ag   -0.01579   -0.00704    0.00568
 19 Ag   -0.01736    0.01175   -0.00110
 20 Pt   -0.03823   -0.00298    0.02481
 21 Ag   -0.00622   -0.00775   -0.00265
 22 Ag   -0.02998    0.00834    0.00553
 23 Ag   -0.00920   -0.01099   -0.01498
 24 Pd   -0.02733   -0.03638    0.00683
 25 Pd   -0.03030   -0.03306   -0.00271
 26 Ag    0.00595   -0.01465   -0.00930
 27 Pt    0.00727   -0.03495   -0.00428
 28 Pd   -0.00015    0.02107    0.00323
 29 Pd   -0.01362   -0.04249   -0.03843
 30 Pd    0.02944    0.03029   -0.01538
 31 Ru   -0.03515    0.00020   -0.06170
 32 Pt    0.00252    0.03101   -0.00887
 33 Ag   -0.01114   -0.01938    0.00357
 34 Pt    0.01044   -0.02227   -0.01694
 35 Ru    0.03116    0.00371    0.02784
 36 Pd    0.05788    0.06003   -0.01489
 37 Ru   -0.00217   -0.00996    0.03826
 38 Pd   -0.01561    0.03658   -0.01030
 39 Pt   -0.00125   -0.01493    0.03613
 40 Pd   -0.01697   -0.02542    0.00757
 41 Pd   -0.03442    0.00461    0.02737
 42 Pt    0.00133    0.01549   -0.00052
 43 Pd    0.04237   -0.00511    0.01527
 44 Ru   -0.01120   -0.00442   -0.02046
 45 O     0.02703    0.01332   -0.05011
 46 H    -0.08262   -0.02954    0.00776

Timing:                                      incl.     excl.
-------------------------------------------------------------------
Density initialized from wave functions:    73.383    73.382   0.2% |
 Symmetrize density:                         0.001     0.001   0.0% |
Forces:                                    368.143   368.143   1.1% |
Hamiltonian:                                61.174     0.161   0.0% |
 Atomic:                                    13.209     5.766   0.0% |
  XC Correction:                             7.442     7.442   0.0% |
 Calculate atomic Hamiltonians:             23.198    23.198   0.1% |
 Communicate:                                1.819     1.819   0.0% |
 Initialize Hamiltonian:                     0.001     0.001   0.0% |
 Poisson:                                    0.129     0.129   0.0% |
 XC 3D grid:                                22.659    22.659   0.1% |
LCAO initialization:                        54.701     3.413   0.0% |
 LCAO eigensolver:                           6.541     0.002   0.0% |
  Calculate projections:                     0.056     0.056   0.0% |
  DenseAtomicCorrection:                     0.052     0.052   0.0% |
  Distribute overlap matrix:                 0.458     0.458   0.0% |
  Orbital Layouts:                           0.418     0.418   0.0% |
  Potential matrix:                          5.513     5.513   0.0% |
  Sum over cells:                            0.042     0.042   0.0% |
 LCAO to grid:                              42.263    42.263   0.1% |
 Set positions (LCAO WFS):                   2.485     1.033   0.0% |
  Basic WFS set positions:                   0.003     0.003   0.0% |
  Basis functions set positions:             0.000     0.000   0.0% |
  P tci:                                     0.541     0.541   0.0% |
  ST tci:                                    0.673     0.673   0.0% |
  mktci:                                     0.234     0.234   0.0% |
PWDescriptor:                                0.045     0.045   0.0% |
Redistribute:                                0.102     0.102   0.0% |
SCF-cycle:                               31935.146  2419.935   7.4% |--|
 Davidson:                               26835.105  6234.649  19.1% |-------|
  Apply H:                                4111.070  3996.193  12.2% |----|
   HMM T:                                  114.877   114.877   0.4% |
  Subspace diag:                          3838.233     0.125   0.0% |
   calc_h_matrix:                         2199.035   823.647   2.5% ||
    Apply H:                              1375.388  1337.061   4.1% |-|
     HMM T:                                 38.327    38.327   0.1% |
   diagonalize:                             74.043    74.043   0.2% |
   rotate_psi:                            1565.031  1565.031   4.8% |-|
  calc. matrices:                         8358.601  5634.691  17.3% |------|
   Apply H:                               2723.910  2647.697   8.1% |--|
    HMM T:                                  76.213    76.213   0.2% |
  diagonalize:                            1185.722  1185.722   3.6% ||
  rotate_psi:                             3106.830  3106.830   9.5% |---|
 Density:                                 1340.002     0.020   0.0% |
  Atomic density matrices:                   7.487     7.487   0.0% |
  Mix:                                     503.427   503.427   1.5% ||
  Multipole moments:                         0.646     0.646   0.0% |
  Pseudo density:                          828.421   828.399   2.5% ||
   Symmetrize density:                       0.022     0.022   0.0% |
 Hamiltonian:                             1209.220     3.133   0.0% |
  Atomic:                                  273.807   124.326   0.4% |
   XC Correction:                          149.481   149.481   0.5% |
  Calculate atomic Hamiltonians:           420.008   420.008   1.3% ||
  Communicate:                              61.611    61.611   0.2% |
  Poisson:                                   2.408     2.408   0.0% |
  XC 3D grid:                              448.253   448.253   1.4% ||
 Orthonormalize:                           130.885     0.008   0.0% |
  calc_s_matrix:                            19.885    19.885   0.1% |
  inverse-cholesky:                          1.802     1.802   0.0% |
  projections:                              71.395    71.395   0.2% |
  rotate_psi_s:                             37.795    37.795   0.1% |
Set symmetry:                                0.002     0.002   0.0% |
Other:                                     166.433   166.433   0.5% |
-------------------------------------------------------------------
Total:                                             32659.130 100.0%

Date: Fri Mar  4 09:52:45 2022
