
  ___ ___ ___ _ _ _  
 |   |   |_  | | | | 
 | | | | | . | | | | 
 |__ |  _|___|_____|  1.5.1
 |___|_|             

User:   clausen@node245.cluster
Date:   Thu Mar  3 14:32:49 2022
Arch:   x86_64
Pid:    150850
Python: 3.6.12
gpaw:   /software/kemi/gpaw/1.5.1/gpaw
_gpaw:  /software/kemi/gpaw/1.5.1/bin/gpaw-python
ase:    /software/kemi/ase/3.17.0/ase (version 3.17.0)
numpy:  /opt/rh/rh-python36/root/usr/lib64/python3.6/site-packages/numpy (version 1.13.1)
scipy:  /opt/rh/rh-python36/root/usr/lib64/python3.6/site-packages/scipy (version 0.19.1)
units:  Angstrom and eV
cores:  16

Input parameters:
  kpts: [4 4 1]
  mode: {ecut: 400.0,
         gammacentered: False,
         name: pw}
  xc: RPBE

System changes: positions, numbers, cell, pbc, initial_charges, initial_magmoms 

Initialize ...

Pd-setup:
  name: Palladium
  id: 6da19bfba079f22767af9506641940b9
  Z: 46
  valence: 16
  core: 30
  charge: 0.0
  file: /software/kemi/gpaw-setups/0.9.20000/Pd.RPBE.gz
  cutoffs: 1.19(comp), 2.38(filt), 2.28(core), lmax=2
  valence states:
                energy  radius
    5s(0.00)    -3.225   1.228
    4p(6.00)   -51.131   1.360
    5p(0.00)    -0.373   1.360
    4d(10.00)    -3.964   1.228
    *s          23.987   1.228
    *d          23.247   1.228

  Using partial waves for Pd as LCAO basis

Ir-setup:
  name: Iridium
  id: 73b603359d1d5397a85ae3c2440f9033
  Z: 77
  valence: 15
  core: 62
  charge: 0.0
  file: /software/kemi/gpaw-setups/0.9.20000/Ir.RPBE.gz
  cutoffs: 1.26(comp), 2.40(filt), 2.36(core), lmax=2
  valence states:
                energy  radius
    6s(2.00)    -6.219   1.296
    5p(6.00)   -54.684   1.328
    6p(0.00)    -1.215   1.328
    5d(7.00)    -7.118   1.286
    *s          20.992   1.296
    *d          20.093   1.286

  Using partial waves for Ir as LCAO basis

Ru-setup:
  name: Ruthenium
  id: 76477906e28f51dc1b29884d53556fe9
  Z: 44
  valence: 16
  core: 28
  charge: 0.0
  file: /software/kemi/gpaw-setups/0.9.20000/Ru.RPBE.gz
  cutoffs: 1.23(comp), 2.16(filt), 1.30(core), lmax=2
  valence states:
                energy  radius
    4s(2.00)   -76.255   1.281
    5s(1.00)    -4.126   1.281
    4p(6.00)   -46.371   1.286
    5p(0.00)    -0.913   1.286
    4d(7.00)    -5.146   1.254
    *d          22.066   1.254

  Using partial waves for Ru as LCAO basis

Pt-setup:
  name: Platinum
  id: f04f522592575c47ad794f6b4a415b4b
  Z: 78
  valence: 16
  core: 62
  charge: 0.0
  file: /software/kemi/gpaw-setups/0.9.20000/Pt.RPBE.gz
  cutoffs: 1.29(comp), 2.26(filt), 2.26(core), lmax=2
  valence states:
                energy  radius
    6s(1.00)    -5.516   1.307
    5p(6.00)   -55.971   1.371
    6p(0.00)    -0.856   1.371
    5d(9.00)    -6.087   1.307
    *s          21.695   1.307
    *d          21.125   1.307

  Using partial waves for Pt as LCAO basis

Ag-setup:
  name: Silver
  id: c05e55bab2c3858b3f9398f6d75cb77c
  Z: 47
  valence: 17
  core: 30
  charge: 0.0
  file: /software/kemi/gpaw-setups/0.9.20000/Ag.RPBE.gz
  cutoffs: 1.25(comp), 2.35(filt), 2.19(core), lmax=2
  valence states:
                energy  radius
    5s(1.00)    -4.277   1.286
    4p(6.00)   -58.523   1.328
    5p(0.00)    -0.755   1.328
    4d(10.00)    -7.386   1.180
    *s          22.934   1.286
    *d          19.826   1.180

  Using partial waves for Ag as LCAO basis

O-setup:
  name: Oxygen
  id: 08071ca1eed670e7821b24b7eb4d558c
  Z: 8
  valence: 6
  core: 2
  charge: 0.0
  file: /software/kemi/gpaw-setups/0.9.20000/O.RPBE.gz
  cutoffs: 0.67(comp), 1.17(filt), 0.83(core), lmax=2
  valence states:
                energy  radius
    2s(2.00)   -24.041   0.688
    2p(4.00)    -8.984   0.598
    *s           3.170   0.688
    *p          18.228   0.598
    *d           0.000   0.619

  Using partial waves for O as LCAO basis

Reference energy: -12877847.605335

Spin-paired calculation

Occupation numbers:
  Fermi-Dirac: width=0.1000 eV

Convergence criteria:
  Maximum total energy change: 0.0005 eV / electron
  Maximum integral of absolute density change: 0.0001 electrons
  Maximum integral of absolute eigenstate change: 4e-08 eV^2
  Maximum number of iterations: 333

Symmetries present (total): 1

  ( 1  0  0)
  ( 0  1  0)
  ( 0  0  1)

16 k-points: 4 x 4 x 1 Monkhorst-Pack grid
8 k-points in the irreducible part of the Brillouin zone
       k-points in crystal coordinates                weights
   0:     0.12500000   -0.37500000    0.00000000          2/16
   1:     0.12500000   -0.12500000    0.00000000          2/16
   2:     0.12500000    0.12500000    0.00000000          2/16
   3:     0.12500000    0.37500000    0.00000000          2/16
   4:     0.37500000   -0.37500000    0.00000000          2/16
   5:     0.37500000   -0.12500000    0.00000000          2/16
   6:     0.37500000    0.12500000    0.00000000          2/16
   7:     0.37500000    0.37500000    0.00000000          2/16

Wave functions: Plane wave expansion
  Cutoff energy: 400.000 eV
  Number of coefficients (min, max): 32894, 32940
  Pulay-stress correction: 0.000000 eV/Ang^3 (de/decut=0.000000)
  Using FFTW library
  ScaLapack parameters: grid=1x1, blocksize=None
  Wavefunction extrapolation:
    Improved wavefunction reuse through dual PAW basis 

Eigensolver
   Davidson(niter=2, smin=None, normalize=True) 

Densities:
  Coarse grid: 35*35*135 grid
  Fine grid: 70*70*270 grid
  Total Charge: 0.000000 

Density mixing:
  Method: separate
  Backend: pulay
  Linear mixing parameter: 0.05
  Mixing with 5 old densities
  Damping of long wave oscillations: 50 

Hamiltonian:
  XC and Coulomb potentials evaluated on a 70*70*270 grid
  Using the RPBE Exchange-Correlation functional
 

XC parameters: RPBE with 2 nearest neighbor stencil

Memory estimate:
  Process memory now: 165.54 MiB
  Calculator: 549.89 MiB
    Density: 51.27 MiB
      Arrays: 16.41 MiB
      Localized functions: 28.50 MiB
      Mixer: 6.36 MiB
    Hamiltonian: 11.63 MiB
      Arrays: 10.73 MiB
      XC: 0.00 MiB
      Poisson: 0.00 MiB
      vbar: 0.90 MiB
    Wavefunctions: 487.00 MiB
      Arrays psit_nG: 220.15 MiB
      Eigensolver: 251.95 MiB
      Projections: 2.75 MiB
      Projectors: 5.53 MiB
      PW-descriptor: 6.62 MiB

Total number of cores used: 16
Parallelization over k-points: 8
Domain decomposition: 1 x 1 x 2

Number of atoms: 46
Number of atomic orbitals: 550
Number of bands in calculation: 438
Bands to converge: occupied states only
Number of valence electrons: 723

... initialized

Initializing position-dependent things.

Density initialized from atomic densities
Creating initial wave functions:
  438 bands from LCAO basis set

                                             
                                             
                                             
                                             
                                             
                                             
                O Ag                         
                         Ir    Ir            
            Pd      Pd     Ir                
                   Ru     Pd     Ir          
        Ir    Pt    PAg    Pd                
                                             
        Ir     Pd    IAg    Ir     Pt        
                Ag     Ru     Pd             
                                             
           Pt     Ag    PPd    Ir            
                                             
            Pt     Pt    PPt    Ru           
       Ag     Ag     Ag                      
              Ru    Ir     Pt                
         Pd    Ir     Ru                     
                                             
                                             
                                             
                                             
                                             

Positions:
   0 Pd     0.000000    1.624086   10.000000    ( 0.0000,  0.0000,  0.0000)
   1 Ir     2.812999    1.624086   10.000000    ( 0.0000,  0.0000,  0.0000)
   2 Ru     5.625998    1.624086   10.000000    ( 0.0000,  0.0000,  0.0000)
   3 Ru     1.406500    4.060215   10.000000    ( 0.0000,  0.0000,  0.0000)
   4 Ir     4.219499    4.060215   10.000000    ( 0.0000,  0.0000,  0.0000)
   5 Pt     7.032498    4.060215   10.000000    ( 0.0000,  0.0000,  0.0000)
   6 Pd     2.812999    6.496343   10.000000    ( 0.0000,  0.0000,  0.0000)
   7 Pd     5.625998    6.496343   10.000000    ( 0.0000,  0.0000,  0.0000)
   8 Ru     8.438997    6.496343   10.000000    ( 0.0000,  0.0000,  0.0000)
   9 Ag     0.000000    0.000000   12.296804    ( 0.0000,  0.0000,  0.0000)
  10 Ag     2.812999    0.000000   12.296804    ( 0.0000,  0.0000,  0.0000)
  11 Ag     5.625998    0.000000   12.296804    ( 0.0000,  0.0000,  0.0000)
  12 Pt     1.406500    2.436129   12.296804    ( 0.0000,  0.0000,  0.0000)
  13 Pt     4.219499    2.436129   12.296804    ( 0.0000,  0.0000,  0.0000)
  14 Pt     7.032498    2.436129   12.296804    ( 0.0000,  0.0000,  0.0000)
  15 Ru     2.812999    4.872257   12.296804    ( 0.0000,  0.0000,  0.0000)
  16 Pt     5.625998    4.872257   12.296804    ( 0.0000,  0.0000,  0.0000)
  17 Ir     8.438997    4.872257   12.296804    ( 0.0000,  0.0000,  0.0000)
  18 Pt     1.331112    0.739375   14.657283    ( 0.0000,  0.0000,  0.0000)
  19 Ag     4.181622    0.793852   14.645499    ( 0.0000,  0.0000,  0.0000)
  20 Pd     7.001587    0.862206   14.620346    ( 0.0000,  0.0000,  0.0000)
  21 Ag     2.800841    3.198617   14.645984    ( 0.0000,  0.0000,  0.0000)
  22 Ru     5.661352    3.374873   14.464570    ( 0.0000,  0.0000,  0.0000)
  23 Pd     8.454364    3.209063   14.568969    ( 0.0000,  0.0000,  0.0000)
  24 Ir     4.203312    5.613553   14.568997    ( 0.0000,  0.0000,  0.0000)
  25 Ir     7.031881    5.578044   14.561300    ( 0.0000,  0.0000,  0.0000)
  26 Pt     9.857688    5.665883   14.596939    ( 0.0000,  0.0000,  0.0000)
  27 Ir    -0.077764    1.506761   16.938800    ( 0.0000,  0.0000,  0.0000)
  28 Pd     2.746751    1.593087   16.991368    ( 0.0000,  0.0000,  0.0000)
  29 Ag     5.532334    1.594992   16.918159    ( 0.0000,  0.0000,  0.0000)
  30 Pd     1.401555    4.031321   16.973309    ( 0.0000,  0.0000,  0.0000)
  31 Pd     4.186062    4.107308   16.892321    ( 0.0000,  0.0000,  0.0000)
  32 Pd     7.007491    3.969527   16.736476    ( 0.0000,  0.0000,  0.0000)
  33 Ru     2.845276    6.541012   16.753610    ( 0.0000,  0.0000,  0.0000)
  34 Pd     5.662228    6.450069   16.794393    ( 0.0000,  0.0000,  0.0000)
  35 Ir     8.552515    6.378355   16.920371    ( 0.0000,  0.0000,  0.0000)
  36 Ir     0.061963   -0.029589   18.981657    ( 0.0000,  0.0000,  0.0000)
  37 Pt     2.802470   -0.097062   19.141410    ( 0.0000,  0.0000,  0.0000)
  38 Ag     5.661265    0.013033   19.406409    ( 0.0000,  0.0000,  0.0000)
  39 Pd     1.350042    2.376862   19.278970    ( 0.0000,  0.0000,  0.0000)
  40 Pd     4.315258    2.518491   19.256067    ( 0.0000,  0.0000,  0.0000)
  41 Ir     7.173708    2.513849   19.018418    ( 0.0000,  0.0000,  0.0000)
  42 Ag     2.809713    4.893314   19.379442    ( 0.0000,  0.0000,  0.0000)
  43 Ir     5.700233    4.913916   19.039342    ( 0.0000,  0.0000,  0.0000)
  44 Ir     8.278779    4.849064   19.000358    ( 0.0000,  0.0000,  0.0000)
  45 O      2.825004    3.262889   20.706409    ( 0.0000,  0.0000,  0.0000)

Unit cell:
           periodic     x           y           z      points  spacing
  1. axis:    yes    8.465341    0.000000    0.000000    35     0.2095
  2. axis:    yes    4.232670    7.331200    0.000000    35     0.2095
  3. axis:    no     0.000000    0.000000   29.187217   135     0.2162

  Lengths:   8.465341   8.465341  29.187217
  Angles:   90.000000  90.000000  60.000000

Effective grid spacing dv^(1/3) = 0.2221

                     log10-error:    total        iterations:
           time      wfs    density  energy       fermi  poisson
iter:   1  14:35:16  +0.32   +inf  -322.786048    2             
iter:   2  14:36:19  -0.55  -1.16  -409.341968    36            
iter:   3  14:37:21  -0.65  -1.07  -339.844262    35            
iter:   4  14:38:25  -1.29  -1.16  -267.854722    36            
iter:   5  14:39:28  -1.76  -1.35  -244.938849    36            
iter:   6  14:40:31  -1.94  -1.46  -241.340745    34            
iter:   7  14:41:33  -2.26  -1.51  -239.849476    3             
iter:   8  14:42:36  -2.33  -1.55  -236.871488    4             
iter:   9  14:43:39  -1.89  -1.68  -241.160385    3             
iter:  10  14:44:42  -2.27  -1.65  -236.503166    3             
iter:  11  14:45:44  -2.67  -1.86  -234.704260    4             
iter:  12  14:46:47  -3.14  -2.07  -234.592543    3             
iter:  13  14:47:50  -3.50  -2.17  -234.749892    3             
iter:  14  14:48:52  -3.53  -2.15  -234.676422    3             
iter:  15  14:49:56  -3.79  -2.23  -234.612621    3             
iter:  16  14:50:58  -3.13  -2.26  -235.247308    3             
iter:  17  14:52:01  -3.51  -2.11  -234.481483    3             
iter:  18  14:53:04  -3.65  -2.38  -234.519877    3             
iter:  19  14:54:07  -3.86  -2.37  -234.363792    3             
iter:  20  14:55:10  -4.04  -2.53  -234.352388    2             
iter:  21  14:56:12  -4.25  -2.54  -234.295841    3             
iter:  22  14:57:15  -4.34  -2.67  -234.308932    3             
iter:  23  14:58:18  -3.56  -2.64  -234.466427    3             
iter:  24  14:59:21  -4.33  -2.42  -234.254987    3             
iter:  25  15:00:24  -4.79  -2.88  -234.256950    3             
iter:  26  15:01:26  -5.04  -2.89  -234.250226    2             
iter:  27  15:02:29  -5.27  -2.98  -234.252800    2             
iter:  28  15:03:25  -5.12  -3.00  -234.247525    2             
iter:  29  15:04:21  -5.23  -3.16  -234.243752    3             
iter:  30  15:05:17  -4.82  -3.32  -234.246685    3             
iter:  31  15:06:13  -5.64  -3.36  -234.243865    2             
iter:  32  15:07:09  -6.05  -3.42  -234.241946    2             
iter:  33  15:08:04  -6.13  -3.75  -234.242145    2             
iter:  34  15:09:00  -6.82  -3.87  -234.241909    2             
iter:  35  15:09:56  -6.44  -3.93  -234.241949    2             
iter:  36  15:10:52  -6.54  -4.00  -234.241840    2             
iter:  37  15:11:56  -6.58  -4.14  -234.241608    2             
iter:  38  15:13:03  -6.72  -4.15  -234.242406    2             
iter:  39  15:14:09  -6.88  -3.77  -234.241621    2             
iter:  40  15:15:15  -7.59  -4.44  -234.241563    1             

Converged after 40 iterations.

Dipole moment: (23.280400, 16.210403, -0.327207) |e|*Ang

Energy contributions relative to reference atoms: (reference = -12877847.605335)

Kinetic:       -229.571509
Potential:     +104.679444
External:        +0.000000
XC:            -101.383808
Entropy (-ST):   -2.280580
Local:           -6.825400
--------------------------
Free energy:   -235.381853
Extrapolated:  -234.241563

Fermi level: 0.89653

Showing only first 2 kpts
 Kpt  Band  Eigenvalues  Occupancy
  0   359      0.89578    0.12547
  0   360      0.90372    0.12051
  0   361      0.92459    0.10757
  0   362      0.94412    0.09580

  1   359      0.80516    0.17843
  1   360      0.80979    0.17605
  1   361      0.84675    0.15548
  1   362      0.89104    0.12843



Forces in eV/Ang:
  0 Pd   -0.12517    0.32862   -0.34628
  1 Ir    0.94927    0.69050    0.60303
  2 Ru   -1.08005    0.28968    0.68365
  3 Ru    0.42203    0.28943    1.60875
  4 Ir   -0.56094   -0.80208    1.16664
  5 Pt    0.15332    0.16614    0.05686
  6 Pd   -0.49740   -0.42190   -0.24020
  7 Pd    0.38953   -0.26573   -0.57857
  8 Ru    0.33876   -0.15304    0.54491
  9 Ag   -0.24510   -0.10037    0.06602
 10 Ag   -0.02112   -0.10259    0.05199
 11 Ag    0.07288   -0.17628   -0.14243
 12 Pt    0.10532    0.77271   -0.54527
 13 Pt    0.10841    0.57807   -0.73429
 14 Pt   -0.10120    0.21621   -0.19527
 15 Ru   -0.38750   -0.72865   -0.97121
 16 Pt   -0.42193    0.17697   -0.13402
 17 Ir    0.89570   -0.10269   -1.06049
 18 Pt   -0.01594   -0.01117    0.01404
 19 Ag   -0.00459   -0.04550    0.02392
 20 Pd   -0.04822   -0.03331   -0.02186
 21 Ag   -0.01434   -0.01879   -0.00734
 22 Ru    0.00089   -0.02306    0.02047
 23 Pd   -0.05883   -0.03589    0.06307
 24 Ir   -0.03868    0.00418    0.01481
 25 Ir    0.00402   -0.04493    0.03961
 26 Pt    0.00560   -0.02069   -0.01077
 27 Ir    0.14517    0.05948    0.09917
 28 Pd    0.00645   -0.06891   -0.21028
 29 Ag    0.00795    0.02995    0.08488
 30 Pd   -0.05089   -0.03616   -0.15452
 31 Pd    0.06608   -0.03945   -0.13681
 32 Pd    0.02732    0.00722    0.02612
 33 Ru    0.04831   -0.09374    0.30264
 34 Pd    0.02923    0.01809   -0.02119
 35 Ir    0.00683   -0.02860    0.03303
 36 Ir   -0.10893   -0.11420   -0.19685
 37 Pt    0.00138   -0.17700   -0.06864
 38 Ag    0.05058   -0.01248   -0.02383
 39 Pd    0.30794    0.08898    0.93051
 40 Pd   -0.19872    0.17248    0.87753
 41 Ir   -0.17014   -0.10484   -0.08999
 42 Ag    0.04792    0.83279   -0.10138
 43 Ir    0.32556    0.12033   -0.05193
 44 Ir   -0.21558    0.01178   -0.03223
 45 O    -0.15724   -1.04619   -1.06259

System changes: positions 

Initializing position-dependent things.

Density initialized from wave functions
                                             
                                             
                                             
                                             
                                             
                                             
                O Ag                         
                         Ir    Ir            
            Pd     RPd     Ir    Ir          
                          Pd                 
        Ir   PPt    PAg    Pd                
                                             
        Ir     Pd    IAg    Ir     Pt        
                Ag     Ru     Pd             
                                             
           Pt     Ag    PPd    Ir            
                                             
            Pt     Pt    PPt    Ru           
       Ag     Ag    IAg    Pt                
                                             
        Pd     Ir     Ru                     
                                             
                                             
                                             
                                             
                                             

Positions:
   0 Pd     0.000000    1.624086   10.000000    ( 0.0000,  0.0000,  0.0000)
   1 Ir     2.812999    1.624086   10.000000    ( 0.0000,  0.0000,  0.0000)
   2 Ru     5.625998    1.624086   10.000000    ( 0.0000,  0.0000,  0.0000)
   3 Ru     1.406500    4.060215   10.000000    ( 0.0000,  0.0000,  0.0000)
   4 Ir     4.219499    4.060215   10.000000    ( 0.0000,  0.0000,  0.0000)
   5 Pt     7.032498    4.060215   10.000000    ( 0.0000,  0.0000,  0.0000)
   6 Pd     2.812999    6.496343   10.000000    ( 0.0000,  0.0000,  0.0000)
   7 Pd     5.625998    6.496343   10.000000    ( 0.0000,  0.0000,  0.0000)
   8 Ru     8.438997    6.496343   10.000000    ( 0.0000,  0.0000,  0.0000)
   9 Ag     0.000000    0.000000   12.296804    ( 0.0000,  0.0000,  0.0000)
  10 Ag     2.812999    0.000000   12.296804    ( 0.0000,  0.0000,  0.0000)
  11 Ag     5.625998    0.000000   12.296804    ( 0.0000,  0.0000,  0.0000)
  12 Pt     1.406500    2.436129   12.296804    ( 0.0000,  0.0000,  0.0000)
  13 Pt     4.219499    2.436129   12.296804    ( 0.0000,  0.0000,  0.0000)
  14 Pt     7.032498    2.436129   12.296804    ( 0.0000,  0.0000,  0.0000)
  15 Ru     2.812999    4.872257   12.296804    ( 0.0000,  0.0000,  0.0000)
  16 Pt     5.625998    4.872257   12.296804    ( 0.0000,  0.0000,  0.0000)
  17 Ir     8.438997    4.872257   12.296804    ( 0.0000,  0.0000,  0.0000)
  18 Pt     1.329518    0.738258   14.658687    ( 0.0000,  0.0000,  0.0000)
  19 Ag     4.181163    0.789301   14.647891    ( 0.0000,  0.0000,  0.0000)
  20 Pd     6.996765    0.858875   14.618160    ( 0.0000,  0.0000,  0.0000)
  21 Ag     2.799407    3.196738   14.645250    ( 0.0000,  0.0000,  0.0000)
  22 Ru     5.661441    3.372567   14.466617    ( 0.0000,  0.0000,  0.0000)
  23 Pd     8.448481    3.205474   14.575275    ( 0.0000,  0.0000,  0.0000)
  24 Ir     4.199444    5.613971   14.570478    ( 0.0000,  0.0000,  0.0000)
  25 Ir     7.032283    5.573551   14.565261    ( 0.0000,  0.0000,  0.0000)
  26 Pt     9.858248    5.663814   14.595862    ( 0.0000,  0.0000,  0.0000)
  27 Ir    -0.063246    1.512709   16.948717    ( 0.0000,  0.0000,  0.0000)
  28 Pd     2.747396    1.586196   16.970340    ( 0.0000,  0.0000,  0.0000)
  29 Ag     5.533129    1.597987   16.926648    ( 0.0000,  0.0000,  0.0000)
  30 Pd     1.396466    4.027704   16.957858    ( 0.0000,  0.0000,  0.0000)
  31 Pd     4.192671    4.103364   16.878640    ( 0.0000,  0.0000,  0.0000)
  32 Pd     7.010223    3.970249   16.739088    ( 0.0000,  0.0000,  0.0000)
  33 Ru     2.850107    6.531638   16.783875    ( 0.0000,  0.0000,  0.0000)
  34 Pd     5.665151    6.451878   16.792274    ( 0.0000,  0.0000,  0.0000)
  35 Ir     8.553198    6.375495   16.923674    ( 0.0000,  0.0000,  0.0000)
  36 Ir     0.051070   -0.041009   18.961973    ( 0.0000,  0.0000,  0.0000)
  37 Pt     2.802608   -0.114761   19.134547    ( 0.0000,  0.0000,  0.0000)
  38 Ag     5.666324    0.011785   19.404027    ( 0.0000,  0.0000,  0.0000)
  39 Pd     1.380836    2.385760   19.372021    ( 0.0000,  0.0000,  0.0000)
  40 Pd     4.295386    2.535739   19.343820    ( 0.0000,  0.0000,  0.0000)
  41 Ir     7.156694    2.503365   19.009419    ( 0.0000,  0.0000,  0.0000)
  42 Ag     2.814504    4.976594   19.369304    ( 0.0000,  0.0000,  0.0000)
  43 Ir     5.732789    4.925949   19.034149    ( 0.0000,  0.0000,  0.0000)
  44 Ir     8.257221    4.850241   18.997135    ( 0.0000,  0.0000,  0.0000)
  45 O      2.809281    3.158270   20.600151    ( 0.0000,  0.0000,  0.0000)

Unit cell:
           periodic     x           y           z      points  spacing
  1. axis:    yes    8.465341    0.000000    0.000000    35     0.2095
  2. axis:    yes    4.232670    7.331200    0.000000    35     0.2095
  3. axis:    no     0.000000    0.000000   29.187217   135     0.2162

  Lengths:   8.465341   8.465341  29.187217
  Angles:   90.000000  90.000000  60.000000

Effective grid spacing dv^(1/3) = 0.2221

                     log10-error:    total        iterations:
           time      wfs    density  energy       fermi  poisson
iter:   1  15:16:51  -1.90   +inf  -235.963685    3             
iter:   2  15:17:53  -2.07  -2.17  -247.910150    36            
iter:   3  15:18:55  -2.07  -1.65  -249.014269    3             
iter:   4  15:19:57  -2.71  -1.62  -234.777168    4             
iter:   5  15:21:00  -3.67  -2.56  -234.687945    2             
iter:   6  15:22:03  -4.00  -2.64  -234.638360    3             
iter:   7  15:23:06  -4.03  -2.76  -234.650139    3             
iter:   8  15:24:09  -4.14  -2.72  -234.594632    3             
iter:   9  15:25:12  -4.11  -2.95  -234.830030    2             
iter:  10  15:26:18  -4.02  -2.42  -234.616505    2             
iter:  11  15:27:23  -4.43  -2.81  -234.585850    2             
iter:  12  15:28:29  -4.84  -3.02  -234.576403    2             
iter:  13  15:29:34  -5.28  -3.14  -234.571574    2             
iter:  14  15:30:40  -5.45  -3.34  -234.568588    2             
iter:  15  15:31:46  -5.03  -3.34  -234.566461    3             
iter:  16  15:32:51  -5.99  -3.66  -234.567692    2             
iter:  17  15:33:57  -5.67  -3.58  -234.566860    2             
iter:  18  15:35:02  -5.95  -3.49  -234.567144    2             
iter:  19  15:36:08  -5.95  -3.66  -234.566885    2             
iter:  20  15:37:13  -6.11  -3.75  -234.565831    2             
iter:  21  15:38:24  -6.44  -3.75  -234.566233    2             
iter:  22  15:39:30  -6.76  -3.91  -234.566083    2             
iter:  23  15:40:31  -6.43  -3.99  -234.565703    2             
iter:  24  15:41:34  -6.63  -3.76  -234.566227    2             
iter:  25  15:42:37  -6.83  -3.93  -234.565855    2             
iter:  26  15:43:40  -6.84  -4.21  -234.565615    2             
iter:  27  15:44:42  -7.19  -4.18  -234.565942    2             
iter:  28  15:45:45  -7.10  -4.32  -234.565804    2             
iter:  29  15:46:48  -7.26  -4.47  -234.565674    2             
iter:  30  15:47:51  -7.82  -4.40  -234.565862    2             

Converged after 30 iterations.

Dipole moment: (25.046100, 17.189321, -0.230986) |e|*Ang

Energy contributions relative to reference atoms: (reference = -12877847.605335)

Kinetic:       -225.872261
Potential:     +101.541329
External:        +0.000000
XC:            -102.234258
Entropy (-ST):   -2.259029
Local:           -6.871157
--------------------------
Free energy:   -235.695377
Extrapolated:  -234.565862

Fermi level: 0.94716

Showing only first 2 kpts
 Kpt  Band  Eigenvalues  Occupancy
  0   359      0.94689    0.12517
  0   360      0.96093    0.11641
  0   361      0.96862    0.11164
  0   362      0.99709    0.09443

  1   359      0.84900    0.18186
  1   360      0.86632    0.17294
  1   361      0.90266    0.15236
  1   362      0.94031    0.12928



Forces in eV/Ang:
  0 Pd   -0.12668    0.31983   -0.35143
  1 Ir    0.94749    0.68654    0.60260
  2 Ru   -1.07774    0.28444    0.68483
  3 Ru    0.42429    0.29270    1.61342
  4 Ir   -0.56202   -0.79350    1.16687
  5 Pt    0.15793    0.16594    0.06675
  6 Pd   -0.49418   -0.41782   -0.24115
  7 Pd    0.38299   -0.26116   -0.57621
  8 Ru    0.34587   -0.15171    0.55098
  9 Ag   -0.24393   -0.09981    0.06957
 10 Ag   -0.02324   -0.10590    0.06079
 11 Ag    0.06916   -0.17661   -0.14443
 12 Pt    0.09321    0.77102   -0.53164
 13 Pt    0.11071    0.56005   -0.72197
 14 Pt   -0.10123    0.20707   -0.18451
 15 Ru   -0.38973   -0.71548   -0.95343
 16 Pt   -0.42441    0.17967   -0.10895
 17 Ir    0.88824   -0.10882   -1.05831
 18 Pt   -0.02729   -0.01225   -0.03263
 19 Ag    0.01642   -0.03245    0.00450
 20 Pd   -0.00103   -0.08025    0.08707
 21 Ag   -0.01070   -0.01849   -0.08514
 22 Ru   -0.00747   -0.01910    0.00173
 23 Pd   -0.02835   -0.03921   -0.00649
 24 Ir   -0.02495    0.01709   -0.00522
 25 Ir    0.00609   -0.01526   -0.01289
 26 Pt    0.00739   -0.00647    0.00675
 27 Ir    0.06135    0.11071   -0.00789
 28 Pd   -0.05470    0.01751    0.11037
 29 Ag   -0.07039    0.01991    0.10391
 30 Pd   -0.03210   -0.10972    0.09358
 31 Pd    0.05018   -0.08816    0.04067
 32 Pd    0.00928   -0.06474   -0.05273
 33 Ru   -0.03007    0.00266   -0.01513
 34 Pd    0.01216    0.00399   -0.10269
 35 Ir    0.06528    0.00865   -0.04219
 36 Ir    0.06946    0.11831    0.02950
 37 Pt    0.00506    0.14829   -0.02315
 38 Ag   -0.11414    0.17484    0.00173
 39 Pd   -0.36406   -0.26419    0.02050
 40 Pd    0.35471   -0.01490    0.09604
 41 Ir    0.09742   -0.02808    0.03038
 42 Ag    0.06195    0.07824   -0.01627
 43 Ir   -0.21202   -0.11838   -0.01569
 44 Ir    0.28641   -0.15312    0.01185
 45 O    -0.19616   -0.30106   -0.37791

System changes: positions 

Initializing position-dependent things.

Density initialized from wave functions
                                             
                                             
                                             
                                             
                                             
                                             
                O Ag                         
                         Ir    Ir            
            Pd     RPd    PIr    Ir          
                     Ag                      
        Ir   PPt    Pd     Pd                
               Pd     Ag                     
        Ir           Ir     Ir     Pt        
                Ag     Ru     Pd             
                                             
           Pt    RAg    PPd    Ir            
                                             
            Pt     Pt    PPt    Ru           
       Ag     Ag    IAg    Pt                
                                             
        Pd     Ir     Ru                     
                                             
                                             
                                             
                                             
                                             

Positions:
   0 Pd     0.000000    1.624086   10.000000    ( 0.0000,  0.0000,  0.0000)
   1 Ir     2.812999    1.624086   10.000000    ( 0.0000,  0.0000,  0.0000)
   2 Ru     5.625998    1.624086   10.000000    ( 0.0000,  0.0000,  0.0000)
   3 Ru     1.406500    4.060215   10.000000    ( 0.0000,  0.0000,  0.0000)
   4 Ir     4.219499    4.060215   10.000000    ( 0.0000,  0.0000,  0.0000)
   5 Pt     7.032498    4.060215   10.000000    ( 0.0000,  0.0000,  0.0000)
   6 Pd     2.812999    6.496343   10.000000    ( 0.0000,  0.0000,  0.0000)
   7 Pd     5.625998    6.496343   10.000000    ( 0.0000,  0.0000,  0.0000)
   8 Ru     8.438997    6.496343   10.000000    ( 0.0000,  0.0000,  0.0000)
   9 Ag     0.000000    0.000000   12.296804    ( 0.0000,  0.0000,  0.0000)
  10 Ag     2.812999    0.000000   12.296804    ( 0.0000,  0.0000,  0.0000)
  11 Ag     5.625998    0.000000   12.296804    ( 0.0000,  0.0000,  0.0000)
  12 Pt     1.406500    2.436129   12.296804    ( 0.0000,  0.0000,  0.0000)
  13 Pt     4.219499    2.436129   12.296804    ( 0.0000,  0.0000,  0.0000)
  14 Pt     7.032498    2.436129   12.296804    ( 0.0000,  0.0000,  0.0000)
  15 Ru     2.812999    4.872257   12.296804    ( 0.0000,  0.0000,  0.0000)
  16 Pt     5.625998    4.872257   12.296804    ( 0.0000,  0.0000,  0.0000)
  17 Ir     8.438997    4.872257   12.296804    ( 0.0000,  0.0000,  0.0000)
  18 Pt     1.326169    0.736667   14.655410    ( 0.0000,  0.0000,  0.0000)
  19 Ag     4.182866    0.784737   14.648911    ( 0.0000,  0.0000,  0.0000)
  20 Pd     6.995594    0.849325   14.627248    ( 0.0000,  0.0000,  0.0000)
  21 Ag     2.797916    3.194294   14.635733    ( 0.0000,  0.0000,  0.0000)
  22 Ru     5.660639    3.369961   14.467256    ( 0.0000,  0.0000,  0.0000)
  23 Pd     8.444074    3.200377   14.575946    ( 0.0000,  0.0000,  0.0000)
  24 Ir     4.195853    5.615941   14.570230    ( 0.0000,  0.0000,  0.0000)
  25 Ir     7.033041    5.570888   14.564714    ( 0.0000,  0.0000,  0.0000)
  26 Pt     9.859183    5.662648   14.596367    ( 0.0000,  0.0000,  0.0000)
  27 Ir    -0.053318    1.526181   16.950028    ( 0.0000,  0.0000,  0.0000)
  28 Pd     2.741527    1.586607   16.977851    ( 0.0000,  0.0000,  0.0000)
  29 Ag     5.525569    1.600833   16.939930    ( 0.0000,  0.0000,  0.0000)
  30 Pd     1.391821    4.014853   16.964748    ( 0.0000,  0.0000,  0.0000)
  31 Pd     4.199636    4.092809   16.880105    ( 0.0000,  0.0000,  0.0000)
  32 Pd     7.011842    3.963294   16.733868    ( 0.0000,  0.0000,  0.0000)
  33 Ru     2.847863    6.529873   16.788857    ( 0.0000,  0.0000,  0.0000)
  34 Pd     5.667129    6.452713   16.780524    ( 0.0000,  0.0000,  0.0000)
  35 Ir     8.560522    6.375818   16.919763    ( 0.0000,  0.0000,  0.0000)
  36 Ir     0.056311   -0.030516   18.960892    ( 0.0000,  0.0000,  0.0000)
  37 Pt     2.803194   -0.102352   19.130496    ( 0.0000,  0.0000,  0.0000)
  38 Ag     5.654891    0.030723   19.403694    ( 0.0000,  0.0000,  0.0000)
  39 Pd     1.347592    2.358683   19.394705    ( 0.0000,  0.0000,  0.0000)
  40 Pd     4.330001    2.537890   19.373641    ( 0.0000,  0.0000,  0.0000)
  41 Ir     7.163664    2.497977   19.010781    ( 0.0000,  0.0000,  0.0000)
  42 Ag     2.822364    5.003477   19.365291    ( 0.0000,  0.0000,  0.0000)
  43 Ir     5.716639    4.915583   19.031285    ( 0.0000,  0.0000,  0.0000)
  44 Ir     8.283961    4.833674   18.997730    ( 0.0000,  0.0000,  0.0000)
  45 O      2.784272    3.102216   20.535291    ( 0.0000,  0.0000,  0.0000)

Unit cell:
           periodic     x           y           z      points  spacing
  1. axis:    yes    8.465341    0.000000    0.000000    35     0.2095
  2. axis:    yes    4.232670    7.331200    0.000000    35     0.2095
  3. axis:    no     0.000000    0.000000   29.187217   135     0.2162

  Lengths:   8.465341   8.465341  29.187217
  Angles:   90.000000  90.000000  60.000000

Effective grid spacing dv^(1/3) = 0.2221

                     log10-error:    total        iterations:
           time      wfs    density  energy       fermi  poisson
iter:   1  15:49:26  -2.26   +inf  -237.069756    3             
iter:   2  15:50:32  -1.61  -2.01  -298.728989    38            
iter:   3  15:51:45  -1.88  -1.33  -237.785461    37            
iter:   4  15:52:52  -2.71  -1.96  -234.789940    4             
iter:   5  15:53:58  -3.91  -2.58  -234.688776    3             
iter:   6  15:55:02  -4.21  -2.81  -234.659895    3             
iter:   7  15:56:05  -4.69  -2.87  -234.647937    3             
iter:   8  15:57:09  -4.58  -3.04  -234.631864    2             
iter:   9  15:58:13  -4.68  -3.19  -234.635878    2             
iter:  10  15:59:17  -5.01  -3.11  -234.635625    3             
iter:  11  16:00:21  -4.85  -3.09  -234.634619    2             
iter:  12  16:01:25  -5.22  -3.14  -234.625512    3             
iter:  13  16:02:28  -5.29  -3.31  -234.628338    3             
iter:  14  16:03:31  -5.94  -3.35  -234.626172    2             
iter:  15  16:04:33  -6.07  -3.46  -234.625262    2             
iter:  16  16:05:32  -5.94  -3.56  -234.625021    2             
iter:  17  16:06:33  -6.15  -3.58  -234.624420    2             
iter:  18  16:07:36  -5.69  -3.67  -234.623510    2             
iter:  19  16:08:43  -6.02  -3.65  -234.625479    2             
iter:  20  16:09:49  -6.01  -3.65  -234.623346    2             
iter:  21  16:10:56  -6.64  -4.05  -234.623412    2             
iter:  22  16:12:01  -7.01  -4.11  -234.623558    2             
iter:  23  16:13:07  -7.40  -4.19  -234.623493    2             
iter:  24  16:14:13  -7.51  -4.30  -234.623535    2             

Converged after 24 iterations.

Dipole moment: (25.004283, 15.261416, -0.199865) |e|*Ang

Energy contributions relative to reference atoms: (reference = -12877847.605335)

Kinetic:       -225.350421
Potential:     +101.047251
External:        +0.000000
XC:            -102.332743
Entropy (-ST):   -2.254749
Local:           -6.860249
--------------------------
Free energy:   -235.750910
Extrapolated:  -234.623535

Fermi level: 0.96320

Showing only first 2 kpts
 Kpt  Band  Eigenvalues  Occupancy
  0   359      0.96130    0.12619
  0   360      0.97611    0.11695
  0   361      0.98330    0.11248
  0   362      1.01350    0.09421

  1   359      0.86694    0.18091
  1   360      0.88544    0.17129
  1   361      0.91553    0.15425
  1   362      0.95685    0.12897



Forces in eV/Ang:
  0 Pd   -0.12561    0.31976   -0.35218
  1 Ir    0.94730    0.68666    0.60584
  2 Ru   -1.07697    0.28410    0.68844
  3 Ru    0.42442    0.29068    1.60673
  4 Ir   -0.56113   -0.79266    1.16814
  5 Pt    0.16033    0.16783    0.06604
  6 Pd   -0.49319   -0.41683   -0.24272
  7 Pd    0.38223   -0.26084   -0.57718
  8 Ru    0.34386   -0.15190    0.55485
  9 Ag   -0.25583   -0.09767    0.06192
 10 Ag   -0.02104   -0.10956    0.06229
 11 Ag    0.07773   -0.17160   -0.13452
 12 Pt    0.07619    0.76542   -0.54873
 13 Pt    0.12271    0.54814   -0.72994
 14 Pt   -0.10801    0.18623   -0.16686
 15 Ru   -0.38964   -0.71033   -0.96493
 16 Pt   -0.42904    0.17234   -0.09849
 17 Ir    0.88889   -0.11261   -1.05513
 18 Pt    0.01348    0.02134   -0.03927
 19 Ag   -0.00947    0.00867    0.02825
 20 Pd   -0.00562   -0.01889    0.05685
 21 Ag   -0.00619   -0.01196    0.01560
 22 Ru   -0.01932   -0.01131   -0.01856
 23 Pd    0.00959   -0.01672   -0.03877
 24 Ir   -0.01007   -0.03828    0.00887
 25 Ir    0.01379   -0.01580   -0.02157
 26 Pt    0.00017   -0.04874    0.00537
 27 Ir   -0.03244   -0.02393   -0.05070
 28 Pd   -0.00700    0.05094    0.08994
 29 Ag   -0.01751   -0.02840    0.02202
 30 Pd    0.05550   -0.06946    0.04616
 31 Pd   -0.03327   -0.01893    0.01285
 32 Pd    0.00108    0.02985    0.07096
 33 Ru   -0.00843    0.03594   -0.05279
 34 Pd   -0.00509   -0.05431    0.05321
 35 Ir    0.01674   -0.07046    0.06196
 36 Ir    0.05679    0.03782    0.00477
 37 Pt   -0.00333   -0.17574   -0.05649
 38 Ag   -0.06354    0.06921    0.01577
 39 Pd   -0.43298   -0.32565   -0.34353
 40 Pd    0.38184   -0.03848   -0.12919
 41 Ir   -0.01019    0.05261    0.03354
 42 Ag   -0.00206   -0.16792    0.03506
 43 Ir    0.23771    0.07149   -0.06987
 44 Ir   -0.12466    0.04965   -0.01730
 45 O     0.05637    0.15458    0.39615

System changes: positions 

Initializing position-dependent things.

Density initialized from wave functions
                                             
                                             
                                             
                                             
                                             
                                             
                O Ag                         
                         Ir    Ir            
            Pd     RPd     Ir    Ir          
                     Ag  Pd                  
        Ir   PPt    Pd     Pd                
               Pd     Ag                     
        Ir           Ir     Ir     Pt        
                Ag     Ru     Pd             
                                             
           Pt    RAg    PPd    Ir            
                                             
            Pt     Pt    PPt    Ru           
       Ag     Ag    IAg    Pt                
                                             
        Pd     Ir     Ru                     
                                             
                                             
                                             
                                             
                                             

Positions:
   0 Pd     0.000000    1.624086   10.000000    ( 0.0000,  0.0000,  0.0000)
   1 Ir     2.812999    1.624086   10.000000    ( 0.0000,  0.0000,  0.0000)
   2 Ru     5.625998    1.624086   10.000000    ( 0.0000,  0.0000,  0.0000)
   3 Ru     1.406500    4.060215   10.000000    ( 0.0000,  0.0000,  0.0000)
   4 Ir     4.219499    4.060215   10.000000    ( 0.0000,  0.0000,  0.0000)
   5 Pt     7.032498    4.060215   10.000000    ( 0.0000,  0.0000,  0.0000)
   6 Pd     2.812999    6.496343   10.000000    ( 0.0000,  0.0000,  0.0000)
   7 Pd     5.625998    6.496343   10.000000    ( 0.0000,  0.0000,  0.0000)
   8 Ru     8.438997    6.496343   10.000000    ( 0.0000,  0.0000,  0.0000)
   9 Ag     0.000000    0.000000   12.296804    ( 0.0000,  0.0000,  0.0000)
  10 Ag     2.812999    0.000000   12.296804    ( 0.0000,  0.0000,  0.0000)
  11 Ag     5.625998    0.000000   12.296804    ( 0.0000,  0.0000,  0.0000)
  12 Pt     1.406500    2.436129   12.296804    ( 0.0000,  0.0000,  0.0000)
  13 Pt     4.219499    2.436129   12.296804    ( 0.0000,  0.0000,  0.0000)
  14 Pt     7.032498    2.436129   12.296804    ( 0.0000,  0.0000,  0.0000)
  15 Ru     2.812999    4.872257   12.296804    ( 0.0000,  0.0000,  0.0000)
  16 Pt     5.625998    4.872257   12.296804    ( 0.0000,  0.0000,  0.0000)
  17 Ir     8.438997    4.872257   12.296804    ( 0.0000,  0.0000,  0.0000)
  18 Pt     1.326110    0.737882   14.651039    ( 0.0000,  0.0000,  0.0000)
  19 Ag     4.182638    0.783770   14.651701    ( 0.0000,  0.0000,  0.0000)
  20 Pd     6.994576    0.844383   14.635052    ( 0.0000,  0.0000,  0.0000)
  21 Ag     2.796845    3.192400   14.633775    ( 0.0000,  0.0000,  0.0000)
  22 Ru     5.658747    3.368054   14.465979    ( 0.0000,  0.0000,  0.0000)
  23 Pd     8.443198    3.197127   14.573113    ( 0.0000,  0.0000,  0.0000)
  24 Ir     4.193666    5.613413   14.570934    ( 0.0000,  0.0000,  0.0000)
  25 Ir     7.034469    5.568518   14.562837    ( 0.0000,  0.0000,  0.0000)
  26 Pt     9.859533    5.658098   14.596958    ( 0.0000,  0.0000,  0.0000)
  27 Ir    -0.052214    1.528947   16.946521    ( 0.0000,  0.0000,  0.0000)
  28 Pd     2.738958    1.590813   16.987323    ( 0.0000,  0.0000,  0.0000)
  29 Ag     5.521546    1.599511   16.946564    ( 0.0000,  0.0000,  0.0000)
  30 Pd     1.394740    4.004533   16.970503    ( 0.0000,  0.0000,  0.0000)
  31 Pd     4.199419    4.087502   16.881268    ( 0.0000,  0.0000,  0.0000)
  32 Pd     7.012568    3.963449   16.738121    ( 0.0000,  0.0000,  0.0000)
  33 Ru     2.846537    6.532002   16.787042    ( 0.0000,  0.0000,  0.0000)
  34 Pd     5.667465    6.448495   16.780917    ( 0.0000,  0.0000,  0.0000)
  35 Ir     8.564445    6.369930   16.923729    ( 0.0000,  0.0000,  0.0000)
  36 Ir     0.062534   -0.024110   18.960328    ( 0.0000,  0.0000,  0.0000)
  37 Pt     2.803119   -0.113403   19.124166    ( 0.0000,  0.0000,  0.0000)
  38 Ag     5.645814    0.042952   19.404832    ( 0.0000,  0.0000,  0.0000)
  39 Pd     1.300854    2.322392   19.376431    ( 0.0000,  0.0000,  0.0000)
  40 Pd     4.373245    2.535916   19.375626    ( 0.0000,  0.0000,  0.0000)
  41 Ir     7.164670    2.500237   19.013788    ( 0.0000,  0.0000,  0.0000)
  42 Ag     2.825016    5.001075   19.366557    ( 0.0000,  0.0000,  0.0000)
  43 Ir     5.732063    4.918411   19.024287    ( 0.0000,  0.0000,  0.0000)
  44 Ir     8.281966    4.832227   18.996383    ( 0.0000,  0.0000,  0.0000)
  45 O      2.779998    3.092905   20.543199    ( 0.0000,  0.0000,  0.0000)

Unit cell:
           periodic     x           y           z      points  spacing
  1. axis:    yes    8.465341    0.000000    0.000000    35     0.2095
  2. axis:    yes    4.232670    7.331200    0.000000    35     0.2095
  3. axis:    no     0.000000    0.000000   29.187217   135     0.2162

  Lengths:   8.465341   8.465341  29.187217
  Angles:   90.000000  90.000000  60.000000

Effective grid spacing dv^(1/3) = 0.2221

                     log10-error:    total        iterations:
           time      wfs    density  energy       fermi  poisson
iter:   1  16:15:46  -2.45   +inf  -235.398180    3             
iter:   2  16:16:51  -2.16  -2.23  -255.442459    37            
iter:   3  16:17:57  -2.57  -1.55  -235.280062    4             
iter:   4  16:19:02  -3.15  -2.29  -234.761997    3             
iter:   5  16:20:08  -4.14  -2.62  -234.660963    3             
iter:   6  16:21:15  -4.63  -3.02  -234.650752    2             
iter:   7  16:22:21  -4.92  -3.17  -234.652686    3             
iter:   8  16:23:27  -4.94  -3.24  -234.646111    2             
iter:   9  16:24:33  -4.99  -3.37  -234.645457    2             
iter:  10  16:25:38  -5.31  -3.38  -234.648516    2             
iter:  11  16:26:44  -5.27  -3.36  -234.646609    2             
iter:  12  16:27:48  -5.66  -3.45  -234.644341    2             
iter:  13  16:28:51  -5.92  -3.63  -234.645676    2             
iter:  14  16:29:53  -6.33  -3.70  -234.644580    2             
iter:  15  16:30:56  -6.23  -3.77  -234.644935    2             
iter:  16  16:31:58  -6.07  -3.86  -234.645299    2             
iter:  17  16:33:00  -6.41  -3.90  -234.645003    2             
iter:  18  16:34:01  -6.56  -3.89  -234.644844    2             
iter:  19  16:34:56  -6.77  -3.94  -234.645044    2             
iter:  20  16:35:52  -6.60  -4.07  -234.644384    2             
iter:  21  16:36:48  -6.99  -3.90  -234.644527    2             
iter:  22  16:37:44  -7.29  -4.43  -234.644544    2             
iter:  23  16:38:40  -7.29  -4.46  -234.644512    2             
iter:  24  16:39:35  -7.45  -4.35  -234.644471    2             

Converged after 24 iterations.

Dipole moment: (25.635667, 14.754302, -0.220174) |e|*Ang

Energy contributions relative to reference atoms: (reference = -12877847.605335)

Kinetic:       -224.891105
Potential:     +100.599160
External:        +0.000000
XC:            -102.368347
Entropy (-ST):   -2.255231
Local:           -6.856563
--------------------------
Free energy:   -235.772086
Extrapolated:  -234.644471

Fermi level: 0.95203

Showing only first 2 kpts
 Kpt  Band  Eigenvalues  Occupancy
  0   359      0.95052    0.12594
  0   360      0.96409    0.11747
  0   361      0.97514    0.11062
  0   362      1.00175    0.09455

  1   359      0.85663    0.18048
  1   360      0.87447    0.17118
  1   361      0.90420    0.15433
  1   362      0.94726    0.12798



Forces in eV/Ang:
  0 Pd   -0.12552    0.32077   -0.35484
  1 Ir    0.94786    0.68767    0.59991
  2 Ru   -1.07682    0.28473    0.68361
  3 Ru    0.42507    0.28982    1.59940
  4 Ir   -0.56259   -0.79318    1.16212
  5 Pt    0.16189    0.17008    0.06100
  6 Pd   -0.49477   -0.41772   -0.24425
  7 Pd    0.38438   -0.26031   -0.57967
  8 Ru    0.34339   -0.15340    0.54850
  9 Ag   -0.26619   -0.10028    0.06305
 10 Ag   -0.01394   -0.11125    0.05800
 11 Ag    0.07999   -0.17016   -0.12359
 12 Pt    0.07694    0.76433   -0.57235
 13 Pt    0.12292    0.54188   -0.73782
 14 Pt   -0.11620    0.17093   -0.16705
 15 Ru   -0.38994   -0.71250   -0.97716
 16 Pt   -0.43338    0.17134   -0.10040
 17 Ir    0.89087   -0.10966   -1.06185
 18 Pt    0.01444   -0.01591    0.01927
 19 Ag   -0.01521    0.00126    0.03935
 20 Pd   -0.01004    0.01528    0.00177
 21 Ag   -0.00150   -0.01760    0.03986
 22 Ru   -0.00635   -0.00106    0.00885
 23 Pd   -0.00704   -0.00613   -0.00282
 24 Ir    0.01272   -0.03608    0.00986
 25 Ir    0.00388   -0.01869   -0.00134
 26 Pt   -0.01304   -0.03260    0.00741
 27 Ir   -0.07885   -0.07358   -0.06950
 28 Pd    0.03933   -0.00039    0.03318
 29 Ag    0.01781   -0.03694   -0.05014
 30 Pd    0.03392   -0.00821    0.00860
 31 Pd   -0.02011    0.01527   -0.00082
 32 Pd   -0.00877    0.01029   -0.04511
 33 Ru   -0.00097    0.00355   -0.01421
 34 Pd   -0.01010   -0.01312   -0.03190
 35 Ir    0.02267   -0.05497    0.01669
 36 Ir   -0.07436   -0.17568   -0.02249
 37 Pt    0.01505   -0.06699   -0.00173
 38 Ag    0.03209   -0.07349    0.03361
 39 Pd    0.34096    0.06381    0.10931
 40 Pd   -0.05056    0.14661    0.13510
 41 Ir   -0.19595    0.03653    0.00262
 42 Ag    0.00491   -0.25642    0.09587
 43 Ir    0.03658   -0.00470   -0.00702
 44 Ir    0.03298    0.05689    0.02292
 45 O    -0.07766   -0.09269   -0.33061

System changes: positions 

Initializing position-dependent things.

Density initialized from wave functions
                                             
                                             
                                             
                                             
                                             
                                             
                O Ag                         
                         Ir    Ir            
            Pd     RPd    PIr    Ir          
                     Ag                      
        Ir   PPt    Pd     Pd                
               Pd     Ag                     
        Ir           Ir     Ir     Pt        
                Ag     Ru     Pd             
                                             
           Pt    RAg    PPd    Ir            
                                             
            Pt     Pt    PPt    Ru           
       Ag     Ag    IAg    Pt                
                                             
        Pd     Ir     Ru                     
                                             
                                             
                                             
                                             
                                             

Positions:
   0 Pd     0.000000    1.624086   10.000000    ( 0.0000,  0.0000,  0.0000)
   1 Ir     2.812999    1.624086   10.000000    ( 0.0000,  0.0000,  0.0000)
   2 Ru     5.625998    1.624086   10.000000    ( 0.0000,  0.0000,  0.0000)
   3 Ru     1.406500    4.060215   10.000000    ( 0.0000,  0.0000,  0.0000)
   4 Ir     4.219499    4.060215   10.000000    ( 0.0000,  0.0000,  0.0000)
   5 Pt     7.032498    4.060215   10.000000    ( 0.0000,  0.0000,  0.0000)
   6 Pd     2.812999    6.496343   10.000000    ( 0.0000,  0.0000,  0.0000)
   7 Pd     5.625998    6.496343   10.000000    ( 0.0000,  0.0000,  0.0000)
   8 Ru     8.438997    6.496343   10.000000    ( 0.0000,  0.0000,  0.0000)
   9 Ag     0.000000    0.000000   12.296804    ( 0.0000,  0.0000,  0.0000)
  10 Ag     2.812999    0.000000   12.296804    ( 0.0000,  0.0000,  0.0000)
  11 Ag     5.625998    0.000000   12.296804    ( 0.0000,  0.0000,  0.0000)
  12 Pt     1.406500    2.436129   12.296804    ( 0.0000,  0.0000,  0.0000)
  13 Pt     4.219499    2.436129   12.296804    ( 0.0000,  0.0000,  0.0000)
  14 Pt     7.032498    2.436129   12.296804    ( 0.0000,  0.0000,  0.0000)
  15 Ru     2.812999    4.872257   12.296804    ( 0.0000,  0.0000,  0.0000)
  16 Pt     5.625998    4.872257   12.296804    ( 0.0000,  0.0000,  0.0000)
  17 Ir     8.438997    4.872257   12.296804    ( 0.0000,  0.0000,  0.0000)
  18 Pt     1.327428    0.737228   14.651216    ( 0.0000,  0.0000,  0.0000)
  19 Ag     4.181326    0.783955   14.655436    ( 0.0000,  0.0000,  0.0000)
  20 Pd     6.993683    0.844600   14.637215    ( 0.0000,  0.0000,  0.0000)
  21 Ag     2.796512    3.190667   14.636749    ( 0.0000,  0.0000,  0.0000)
  22 Ru     5.657699    3.367571   14.466126    ( 0.0000,  0.0000,  0.0000)
  23 Pd     8.442815    3.196018   14.571770    ( 0.0000,  0.0000,  0.0000)
  24 Ir     4.194222    5.609744   14.571883    ( 0.0000,  0.0000,  0.0000)
  25 Ir     7.035171    5.566623   14.562058    ( 0.0000,  0.0000,  0.0000)
  26 Pt     9.858601    5.654287   14.597698    ( 0.0000,  0.0000,  0.0000)
  27 Ir    -0.058737    1.523337   16.939852    ( 0.0000,  0.0000,  0.0000)
  28 Pd     2.741417    1.592312   16.992935    ( 0.0000,  0.0000,  0.0000)
  29 Ag     5.522026    1.596057   16.943935    ( 0.0000,  0.0000,  0.0000)
  30 Pd     1.398666    4.001444   16.972959    ( 0.0000,  0.0000,  0.0000)
  31 Pd     4.197228    4.087680   16.881820    ( 0.0000,  0.0000,  0.0000)
  32 Pd     7.011981    3.964711   16.736444    ( 0.0000,  0.0000,  0.0000)
  33 Ru     2.846060    6.533312   16.784331    ( 0.0000,  0.0000,  0.0000)
  34 Pd     5.666622    6.446023   16.779495    ( 0.0000,  0.0000,  0.0000)
  35 Ir     8.566932    6.363927   16.926467    ( 0.0000,  0.0000,  0.0000)
  36 Ir     0.058956   -0.035524   18.959003    ( 0.0000,  0.0000,  0.0000)
  37 Pt     2.804175   -0.122457   19.122376    ( 0.0000,  0.0000,  0.0000)
  38 Ag     5.645843    0.040287   19.407795    ( 0.0000,  0.0000,  0.0000)
  39 Pd     1.312309    2.316733   19.374826    ( 0.0000,  0.0000,  0.0000)
  40 Pd     4.381955    2.545650   19.382299    ( 0.0000,  0.0000,  0.0000)
  41 Ir     7.150324    2.504316   19.015102    ( 0.0000,  0.0000,  0.0000)
  42 Ag     2.825625    4.977382   19.374638    ( 0.0000,  0.0000,  0.0000)
  43 Ir     5.740188    4.919395   19.021763    ( 0.0000,  0.0000,  0.0000)
  44 Ir     8.282510    4.837062   18.997686    ( 0.0000,  0.0000,  0.0000)
  45 O      2.774821    3.089112   20.527968    ( 0.0000,  0.0000,  0.0000)

Unit cell:
           periodic     x           y           z      points  spacing
  1. axis:    yes    8.465341    0.000000    0.000000    35     0.2095
  2. axis:    yes    4.232670    7.331200    0.000000    35     0.2095
  3. axis:    no     0.000000    0.000000   29.187217   135     0.2162

  Lengths:   8.465341   8.465341  29.187217
  Angles:   90.000000  90.000000  60.000000

Effective grid spacing dv^(1/3) = 0.2221

                     log10-error:    total        iterations:
           time      wfs    density  energy       fermi  poisson
iter:   1  16:40:56  -3.01   +inf  -235.032172    3             
iter:   2  16:41:52  -2.50  -2.36  -248.198287    3             
iter:   3  16:42:48  -2.69  -1.60  -234.847458    3             
iter:   4  16:43:46  -3.98  -2.49  -234.726395    3             
iter:   5  16:44:54  -4.46  -2.83  -234.672553    3             
iter:   6  16:46:01  -5.14  -3.12  -234.664977    2             
iter:   7  16:47:09  -5.30  -3.32  -234.662538    2             
iter:   8  16:48:17  -5.24  -3.53  -234.661817    2             
iter:   9  16:49:23  -5.26  -3.62  -234.660848    2             
iter:  10  16:50:30  -5.69  -3.82  -234.661061    2             
iter:  11  16:51:38  -6.32  -3.63  -234.660080    2             
iter:  12  16:52:45  -6.60  -3.93  -234.660458    2             
iter:  13  16:53:52  -6.53  -3.91  -234.659674    2             
iter:  14  16:55:00  -6.93  -3.99  -234.660266    2             
iter:  15  16:56:08  -6.76  -4.06  -234.659866    2             
iter:  16  16:57:16  -7.23  -4.06  -234.659839    2             
iter:  17  16:58:24  -7.24  -4.20  -234.659839    2             
iter:  18  16:59:32  -7.05  -4.23  -234.660096    2             
iter:  19  17:00:35  -7.53  -4.38  -234.659782    2             

Converged after 19 iterations.

Dipole moment: (24.874653, 15.621855, -0.208688) |e|*Ang

Energy contributions relative to reference atoms: (reference = -12877847.605335)

Kinetic:       -224.065505
Potential:      +99.911730
External:        +0.000000
XC:            -102.521510
Entropy (-ST):   -2.252800
Local:           -6.858097
--------------------------
Free energy:   -235.786182
Extrapolated:  -234.659782

Fermi level: 0.95883

Showing only first 2 kpts
 Kpt  Band  Eigenvalues  Occupancy
  0   359      0.95480    0.12752
  0   360      0.97009    0.11797
  0   361      0.98212    0.11051
  0   362      1.00819    0.09476

  1   359      0.86409    0.18015
  1   360      0.88225    0.17065
  1   361      0.91174    0.15390
  1   362      0.95377    0.12816



Forces in eV/Ang:
  0 Pd   -0.12547    0.32257   -0.35133
  1 Ir    0.95052    0.68978    0.60467
  2 Ru   -1.07995    0.28449    0.69347
  3 Ru    0.42541    0.28921    1.60456
  4 Ir   -0.56370   -0.79482    1.16935
  5 Pt    0.16264    0.17003    0.06409
  6 Pd   -0.49600   -0.41919   -0.23931
  7 Pd    0.38483   -0.26140   -0.57737
  8 Ru    0.34392   -0.15122    0.55385
  9 Ag   -0.26709   -0.10302    0.07861
 10 Ag   -0.01031   -0.10962    0.06628
 11 Ag    0.07742   -0.17192   -0.10541
 12 Pt    0.08230    0.76536   -0.56850
 13 Pt    0.11847    0.54016   -0.72635
 14 Pt   -0.11930    0.16756   -0.16488
 15 Ru   -0.38998   -0.71810   -0.97230
 16 Pt   -0.43610    0.16947   -0.09962
 17 Ir    0.89426   -0.11386   -1.06440
 18 Pt    0.00538   -0.02287    0.02249
 19 Ag   -0.01200   -0.02444    0.01993
 20 Pd   -0.01581    0.00245   -0.06521
 21 Ag   -0.00516   -0.02098    0.01892
 22 Ru   -0.00325   -0.01061    0.00206
 23 Pd   -0.00140   -0.00999    0.01589
 24 Ir    0.00378   -0.00603   -0.01132
 25 Ir    0.00194   -0.00061    0.00059
 26 Pt   -0.01135   -0.00340   -0.00316
 27 Ir   -0.04803   -0.03643    0.12437
 28 Pd    0.01901   -0.03213    0.02174
 29 Ag   -0.01074   -0.01542   -0.01540
 30 Pd   -0.01271   -0.01214    0.01954
 31 Pd   -0.00151    0.01512    0.01150
 32 Pd    0.02009   -0.03849   -0.03422
 33 Ru   -0.00133   -0.05155    0.02846
 34 Pd   -0.00857    0.02438   -0.04273
 35 Ir    0.04288   -0.00030   -0.02929
 36 Ir   -0.07638   -0.09132   -0.07761
 37 Pt    0.00354    0.07444    0.01227
 38 Ag    0.06289   -0.09783    0.02320
 39 Pd    0.02244   -0.04403   -0.05168
 40 Pd    0.01590    0.05132    0.07844
 41 Ir    0.05076   -0.00544   -0.06398
 42 Ag    0.00781    0.00766    0.00452
 43 Ir   -0.09776   -0.04443    0.01444
 44 Ir    0.12572   -0.07405    0.01698
 45 O     0.04977   -0.05956    0.13456

System changes: positions 

Initializing position-dependent things.

Density initialized from wave functions
                                             
                                             
                                             
                                             
                                             
                                             
                O Ag                         
                         Ir    Ir            
            Pd     RPd     Ir    Ir          
                     Ag   Pd                 
        Ir   PPt    Pd     Pd                
               Pd     Ag                     
        Ir           Ir     Ir     Pt        
                Ag     Ru     Pd             
                                             
           Pt     Ag    PPd    Ir            
                                             
            Pt     Pt    PPt    Ru           
       Ag     Ag    IAg    Pt                
                                             
         Pd    Ir     Ru                     
                                             
                                             
                                             
                                             
                                             

Positions:
   0 Pd     0.000000    1.624086   10.000000    ( 0.0000,  0.0000,  0.0000)
   1 Ir     2.812999    1.624086   10.000000    ( 0.0000,  0.0000,  0.0000)
   2 Ru     5.625998    1.624086   10.000000    ( 0.0000,  0.0000,  0.0000)
   3 Ru     1.406500    4.060215   10.000000    ( 0.0000,  0.0000,  0.0000)
   4 Ir     4.219499    4.060215   10.000000    ( 0.0000,  0.0000,  0.0000)
   5 Pt     7.032498    4.060215   10.000000    ( 0.0000,  0.0000,  0.0000)
   6 Pd     2.812999    6.496343   10.000000    ( 0.0000,  0.0000,  0.0000)
   7 Pd     5.625998    6.496343   10.000000    ( 0.0000,  0.0000,  0.0000)
   8 Ru     8.438997    6.496343   10.000000    ( 0.0000,  0.0000,  0.0000)
   9 Ag     0.000000    0.000000   12.296804    ( 0.0000,  0.0000,  0.0000)
  10 Ag     2.812999    0.000000   12.296804    ( 0.0000,  0.0000,  0.0000)
  11 Ag     5.625998    0.000000   12.296804    ( 0.0000,  0.0000,  0.0000)
  12 Pt     1.406500    2.436129   12.296804    ( 0.0000,  0.0000,  0.0000)
  13 Pt     4.219499    2.436129   12.296804    ( 0.0000,  0.0000,  0.0000)
  14 Pt     7.032498    2.436129   12.296804    ( 0.0000,  0.0000,  0.0000)
  15 Ru     2.812999    4.872257   12.296804    ( 0.0000,  0.0000,  0.0000)
  16 Pt     5.625998    4.872257   12.296804    ( 0.0000,  0.0000,  0.0000)
  17 Ir     8.438997    4.872257   12.296804    ( 0.0000,  0.0000,  0.0000)
  18 Pt     1.328693    0.734786   14.653651    ( 0.0000,  0.0000,  0.0000)
  19 Ag     4.179497    0.781900   14.659016    ( 0.0000,  0.0000,  0.0000)
  20 Pd     6.991800    0.845395   14.631515    ( 0.0000,  0.0000,  0.0000)
  21 Ag     2.795935    3.187977   14.640374    ( 0.0000,  0.0000,  0.0000)
  22 Ru     5.656960    3.366462   14.466395    ( 0.0000,  0.0000,  0.0000)
  23 Pd     8.442671    3.194791   14.572698    ( 0.0000,  0.0000,  0.0000)
  24 Ir     4.195008    5.607403   14.571260    ( 0.0000,  0.0000,  0.0000)
  25 Ir     7.035633    5.565799   14.561819    ( 0.0000,  0.0000,  0.0000)
  26 Pt     9.857041    5.652280   14.597711    ( 0.0000,  0.0000,  0.0000)
  27 Ir    -0.066736    1.516654   16.948597    ( 0.0000,  0.0000,  0.0000)
  28 Pd     2.744671    1.589843   16.997079    ( 0.0000,  0.0000,  0.0000)
  29 Ag     5.521612    1.592882   16.940615    ( 0.0000,  0.0000,  0.0000)
  30 Pd     1.399427    3.999516   16.975520    ( 0.0000,  0.0000,  0.0000)
  31 Pd     4.195799    4.089706   16.883027    ( 0.0000,  0.0000,  0.0000)
  32 Pd     7.013551    3.961934   16.732564    ( 0.0000,  0.0000,  0.0000)
  33 Ru     2.845847    6.529018   16.785733    ( 0.0000,  0.0000,  0.0000)
  34 Pd     5.665336    6.447219   16.775235    ( 0.0000,  0.0000,  0.0000)
  35 Ir     8.571819    6.361138   16.925085    ( 0.0000,  0.0000,  0.0000)
  36 Ir     0.049634   -0.050179   18.950953    ( 0.0000,  0.0000,  0.0000)
  37 Pt     2.804986   -0.120067   19.122935    ( 0.0000,  0.0000,  0.0000)
  38 Ag     5.652486    0.028736   19.411381    ( 0.0000,  0.0000,  0.0000)
  39 Pd     1.322108    2.311625   19.368953    ( 0.0000,  0.0000,  0.0000)
  40 Pd     4.385345    2.555141   19.392060    ( 0.0000,  0.0000,  0.0000)
  41 Ir     7.148013    2.505856   19.009484    ( 0.0000,  0.0000,  0.0000)
  42 Ag     2.826308    4.966289   19.378968    ( 0.0000,  0.0000,  0.0000)
  43 Ir     5.735302    4.916079   19.022153    ( 0.0000,  0.0000,  0.0000)
  44 Ir     8.293537    4.833012   18.999894    ( 0.0000,  0.0000,  0.0000)
  45 O      2.778153    3.083631   20.535664    ( 0.0000,  0.0000,  0.0000)

Unit cell:
           periodic     x           y           z      points  spacing
  1. axis:    yes    8.465341    0.000000    0.000000    35     0.2095
  2. axis:    yes    4.232670    7.331200    0.000000    35     0.2095
  3. axis:    no     0.000000    0.000000   29.187217   135     0.2162

  Lengths:   8.465341   8.465341  29.187217
  Angles:   90.000000  90.000000  60.000000

Effective grid spacing dv^(1/3) = 0.2221

                     log10-error:    total        iterations:
           time      wfs    density  energy       fermi  poisson
iter:   1  17:02:09  -3.06   +inf  -235.178992    3             
iter:   2  17:03:12  -2.31  -2.33  -256.023870    3             
iter:   3  17:04:13  -2.56  -1.53  -234.698233    3             
iter:   4  17:05:15  -3.89  -3.01  -234.683768    3             
iter:   5  17:06:17  -4.78  -3.07  -234.678128    3             
iter:   6  17:07:20  -5.16  -3.21  -234.670698    3             
iter:   7  17:08:23  -5.36  -3.45  -234.669544    2             
iter:   8  17:09:26  -5.39  -3.56  -234.668147    2             
iter:   9  17:10:29  -5.52  -3.69  -234.672819    2             
iter:  10  17:11:33  -5.94  -3.36  -234.667919    2             
iter:  11  17:12:36  -6.09  -3.84  -234.668165    2             
iter:  12  17:13:39  -6.36  -3.91  -234.667727    2             
iter:  13  17:14:42  -6.71  -3.87  -234.667878    2             
iter:  14  17:15:45  -6.92  -3.96  -234.667695    2             
iter:  15  17:16:48  -6.58  -4.03  -234.669398    2             
iter:  16  17:17:51  -6.53  -3.68  -234.667600    2             
iter:  17  17:18:55  -7.07  -4.10  -234.667689    2             
iter:  18  17:19:57  -7.28  -4.29  -234.667619    2             
iter:  19  17:21:00  -7.42  -4.29  -234.667786    2             

Converged after 19 iterations.

Dipole moment: (24.694397, 16.498447, -0.210143) |e|*Ang

Energy contributions relative to reference atoms: (reference = -12877847.605335)

Kinetic:       -224.395103
Potential:     +100.209935
External:        +0.000000
XC:            -102.493069
Entropy (-ST):   -2.250145
Local:           -6.864475
--------------------------
Free energy:   -235.792858
Extrapolated:  -234.667786

Fermi level: 0.95843

Showing only first 2 kpts
 Kpt  Band  Eigenvalues  Occupancy
  0   359      0.95580    0.12664
  0   360      0.96909    0.11835
  0   361      0.98259    0.10998
  0   362      1.00845    0.09438

  1   359      0.86303    0.18048
  1   360      0.88238    0.17037
  1   361      0.91080    0.15422
  1   362      0.95292    0.12844



Forces in eV/Ang:
  0 Pd   -0.12589    0.32169   -0.34857
  1 Ir    0.94982    0.68972    0.60819
  2 Ru   -1.07807    0.28623    0.69323
  3 Ru    0.42386    0.29000    1.60523
  4 Ir   -0.56261   -0.79460    1.17160
  5 Pt    0.16278    0.16976    0.06756
  6 Pd   -0.49594   -0.41893   -0.23663
  7 Pd    0.38425   -0.26056   -0.57381
  8 Ru    0.34372   -0.15457    0.55833
  9 Ag   -0.25918   -0.10289    0.08332
 10 Ag   -0.01071   -0.10608    0.07208
 11 Ag    0.06738   -0.17578   -0.10624
 12 Pt    0.08535    0.76451   -0.55291
 13 Pt    0.11105    0.53766   -0.71187
 14 Pt   -0.11684    0.17399   -0.16746
 15 Ru   -0.38955   -0.72572   -0.96020
 16 Pt   -0.43445    0.16547   -0.09690
 17 Ir    0.89287   -0.11800   -1.06199
 18 Pt   -0.03323    0.01834   -0.00154
 19 Ag   -0.00461   -0.01802   -0.01622
 20 Pd    0.01751   -0.02370   -0.00445
 21 Ag   -0.00632   -0.01308   -0.00240
 22 Ru   -0.00381   -0.00898   -0.00939
 23 Pd    0.01151   -0.02983    0.00635
 24 Ir   -0.01858   -0.00149   -0.01595
 25 Ir   -0.00276   -0.01494   -0.00832
 26 Pt    0.01133   -0.00765   -0.02315
 27 Ir    0.04139    0.02990   -0.05439
 28 Pd   -0.00301   -0.01797   -0.00836
 29 Ag   -0.03003    0.00522    0.02120
 30 Pd   -0.01026   -0.04988   -0.01944
 31 Pd    0.02540   -0.02572   -0.00788
 32 Pd    0.00497    0.01479    0.02745
 33 Ru   -0.03922   -0.04194   -0.04973
 34 Pd    0.05560   -0.02404    0.01586
 35 Ir   -0.01920   -0.00915    0.04384
 36 Ir    0.05334   -0.05843    0.07146
 37 Pt    0.00768   -0.08204   -0.02078
 38 Ag    0.00312   -0.01484    0.01363
 39 Pd   -0.03636   -0.06621   -0.01030
 40 Pd    0.07617   -0.05457    0.02648
 41 Ir    0.02961    0.02055    0.03842
 42 Ag   -0.02497   -0.00493    0.02306
 43 Ir    0.13628    0.03864   -0.02905
 44 Ir   -0.11475    0.01133   -0.02760
 45 O    -0.02577   -0.04216    0.03623

System changes: positions 

Initializing position-dependent things.

Density initialized from wave functions
                                             
                                             
                                             
                                             
                                             
                                             
                O Ag                         
                         Ir    Ir            
            Pd     RPd     Ir    Ir          
                     Ag   Pd                 
        Ir   PPt    Pd     Pd                
               Pd     Ag                     
        Ir           Ir     Ir     Pt        
                Ag     Ru     Pd             
                                             
           Pt     Ag    PPd    Ir            
                                             
            Pt     Pt    PPt    Ru           
       Ag     Ag    IAg    Pt                
                                             
         Pd    Ir     Ru                     
                                             
                                             
                                             
                                             
                                             

Positions:
   0 Pd     0.000000    1.624086   10.000000    ( 0.0000,  0.0000,  0.0000)
   1 Ir     2.812999    1.624086   10.000000    ( 0.0000,  0.0000,  0.0000)
   2 Ru     5.625998    1.624086   10.000000    ( 0.0000,  0.0000,  0.0000)
   3 Ru     1.406500    4.060215   10.000000    ( 0.0000,  0.0000,  0.0000)
   4 Ir     4.219499    4.060215   10.000000    ( 0.0000,  0.0000,  0.0000)
   5 Pt     7.032498    4.060215   10.000000    ( 0.0000,  0.0000,  0.0000)
   6 Pd     2.812999    6.496343   10.000000    ( 0.0000,  0.0000,  0.0000)
   7 Pd     5.625998    6.496343   10.000000    ( 0.0000,  0.0000,  0.0000)
   8 Ru     8.438997    6.496343   10.000000    ( 0.0000,  0.0000,  0.0000)
   9 Ag     0.000000    0.000000   12.296804    ( 0.0000,  0.0000,  0.0000)
  10 Ag     2.812999    0.000000   12.296804    ( 0.0000,  0.0000,  0.0000)
  11 Ag     5.625998    0.000000   12.296804    ( 0.0000,  0.0000,  0.0000)
  12 Pt     1.406500    2.436129   12.296804    ( 0.0000,  0.0000,  0.0000)
  13 Pt     4.219499    2.436129   12.296804    ( 0.0000,  0.0000,  0.0000)
  14 Pt     7.032498    2.436129   12.296804    ( 0.0000,  0.0000,  0.0000)
  15 Ru     2.812999    4.872257   12.296804    ( 0.0000,  0.0000,  0.0000)
  16 Pt     5.625998    4.872257   12.296804    ( 0.0000,  0.0000,  0.0000)
  17 Ir     8.438997    4.872257   12.296804    ( 0.0000,  0.0000,  0.0000)
  18 Pt     1.326383    0.734852   14.654380    ( 0.0000,  0.0000,  0.0000)
  19 Ag     4.178295    0.778918   14.659836    ( 0.0000,  0.0000,  0.0000)
  20 Pd     6.992073    0.842867   14.629300    ( 0.0000,  0.0000,  0.0000)
  21 Ag     2.794947    3.185193   14.641187    ( 0.0000,  0.0000,  0.0000)
  22 Ru     5.656116    3.364850   14.465809    ( 0.0000,  0.0000,  0.0000)
  23 Pd     8.443075    3.191148   14.573651    ( 0.0000,  0.0000,  0.0000)
  24 Ir     4.193538    5.606094   14.569663    ( 0.0000,  0.0000,  0.0000)
  25 Ir     7.035777    5.563804   14.560901    ( 0.0000,  0.0000,  0.0000)
  26 Pt     9.857214    5.650295   14.595931    ( 0.0000,  0.0000,  0.0000)
  27 Ir    -0.066772    1.516791   16.948636    ( 0.0000,  0.0000,  0.0000)
  28 Pd     2.745564    1.587289   16.999684    ( 0.0000,  0.0000,  0.0000)
  29 Ag     5.518159    1.591795   16.941958    ( 0.0000,  0.0000,  0.0000)
  30 Pd     1.398726    3.992918   16.976168    ( 0.0000,  0.0000,  0.0000)
  31 Pd     4.197705    4.087552   16.883216    ( 0.0000,  0.0000,  0.0000)
  32 Pd     7.014928    3.961045   16.732309    ( 0.0000,  0.0000,  0.0000)
  33 Ru     2.842306    6.523313   16.782790    ( 0.0000,  0.0000,  0.0000)
  34 Pd     5.669326    6.445816   16.773135    ( 0.0000,  0.0000,  0.0000)
  35 Ir     8.573685    6.358679   16.927691    ( 0.0000,  0.0000,  0.0000)
  36 Ir     0.049644   -0.061667   18.952381    ( 0.0000,  0.0000,  0.0000)
  37 Pt     2.806110   -0.124735   19.120965    ( 0.0000,  0.0000,  0.0000)
  38 Ag     5.654883    0.023558   19.414428    ( 0.0000,  0.0000,  0.0000)
  39 Pd     1.320217    2.299968   19.366665    ( 0.0000,  0.0000,  0.0000)
  40 Pd     4.397891    2.556086   19.402307    ( 0.0000,  0.0000,  0.0000)
  41 Ir     7.149537    2.507971   19.009896    ( 0.0000,  0.0000,  0.0000)
  42 Ag     2.825481    4.961944   19.382952    ( 0.0000,  0.0000,  0.0000)
  43 Ir     5.742757    4.916553   19.019505    ( 0.0000,  0.0000,  0.0000)
  44 Ir     8.292588    4.830306   18.998880    ( 0.0000,  0.0000,  0.0000)
  45 O      2.775187    3.071740   20.536268    ( 0.0000,  0.0000,  0.0000)

Unit cell:
           periodic     x           y           z      points  spacing
  1. axis:    yes    8.465341    0.000000    0.000000    35     0.2095
  2. axis:    yes    4.232670    7.331200    0.000000    35     0.2095
  3. axis:    no     0.000000    0.000000   29.187217   135     0.2162

  Lengths:   8.465341   8.465341  29.187217
  Angles:   90.000000  90.000000  60.000000

Effective grid spacing dv^(1/3) = 0.2221

                     log10-error:    total        iterations:
           time      wfs    density  energy       fermi  poisson
iter:   1  17:22:36  -3.28   +inf  -234.905074    3             
iter:   2  17:23:43  -2.66  -2.47  -243.042151    3             
iter:   3  17:24:51  -2.90  -1.71  -234.977358    3             
iter:   4  17:25:57  -3.83  -2.50  -234.679532    3             
iter:   5  17:27:04  -4.95  -3.43  -234.675437    2             
iter:   6  17:28:09  -5.54  -3.58  -234.674023    2             
iter:   7  17:29:12  -5.69  -3.62  -234.673303    2             
iter:   8  17:30:15  -5.87  -3.75  -234.673401    2             
iter:   9  17:31:19  -5.73  -3.58  -234.673111    2             
iter:  10  17:32:23  -6.40  -3.80  -234.672400    2             
iter:  11  17:33:26  -6.53  -4.05  -234.673075    2             
iter:  12  17:34:29  -6.85  -3.99  -234.672545    2             
iter:  13  17:35:32  -6.99  -4.18  -234.672766    2             
iter:  14  17:36:35  -6.96  -4.16  -234.672652    2             
iter:  15  17:37:38  -7.36  -4.17  -234.672716    2             
iter:  16  17:38:42  -7.29  -4.26  -234.672536    2             
iter:  17  17:39:45  -7.62  -4.36  -234.672726    2             

Converged after 17 iterations.

Dipole moment: (24.558406, 17.197414, -0.209745) |e|*Ang

Energy contributions relative to reference atoms: (reference = -12877847.605335)

Kinetic:       -224.061895
Potential:      +99.888379
External:        +0.000000
XC:            -102.516517
Entropy (-ST):   -2.248118
Local:           -6.858634
--------------------------
Free energy:   -235.796785
Extrapolated:  -234.672726

Fermi level: 0.95827

Showing only first 2 kpts
 Kpt  Band  Eigenvalues  Occupancy
  0   359      0.95539    0.12680
  0   360      0.96900    0.11830
  0   361      0.98310    0.10956
  0   362      1.00860    0.09420

  1   359      0.86265    0.18059
  1   360      0.88298    0.16995
  1   361      0.91041    0.15435
  1   362      0.95300    0.12830



Forces in eV/Ang:
  0 Pd   -0.12600    0.32131   -0.35180
  1 Ir    0.94843    0.69025    0.60510
  2 Ru   -1.07609    0.28650    0.68943
  3 Ru    0.42417    0.28841    1.59960
  4 Ir   -0.56276   -0.79302    1.16866
  5 Pt    0.16314    0.16883    0.06374
  6 Pd   -0.49502   -0.41861   -0.23872
  7 Pd    0.38363   -0.26028   -0.57558
  8 Ru    0.34402   -0.15638    0.55621
  9 Ag   -0.25577   -0.10360    0.07274
 10 Ag   -0.01339   -0.10581    0.07317
 11 Ag    0.06373   -0.17325   -0.11541
 12 Pt    0.08567    0.76474   -0.56187
 13 Pt    0.10943    0.53444   -0.71337
 14 Pt   -0.11671    0.17361   -0.17318
 15 Ru   -0.38954   -0.73223   -0.96754
 16 Pt   -0.43366    0.16264   -0.10240
 17 Ir    0.89075   -0.12499   -1.06675
 18 Pt   -0.00354   -0.01295   -0.01325
 19 Ag   -0.00270   -0.01709   -0.01470
 20 Pd   -0.00723   -0.01247    0.02674
 21 Ag    0.01087   -0.00441   -0.00143
 22 Ru   -0.00256   -0.00154   -0.00383
 23 Pd   -0.00487    0.00737   -0.01554
 24 Ir    0.00465   -0.01452    0.00689
 25 Ir   -0.00521   -0.01312   -0.00676
 26 Pt   -0.01643   -0.01575   -0.00423
 27 Ir   -0.00915   -0.08546    0.04553
 28 Pd    0.00433   -0.00586   -0.01608
 29 Ag    0.02196   -0.00341    0.02611
 30 Pd    0.01313   -0.00784   -0.00923
 31 Pd    0.00262   -0.00875    0.00589
 32 Pd   -0.01288   -0.01784   -0.02264
 33 Ru    0.02087    0.02032    0.00766
 34 Pd   -0.02487   -0.00369   -0.00444
 35 Ir    0.01652   -0.00804   -0.02341
 36 Ir    0.02802   -0.00332   -0.06716
 37 Pt    0.02572    0.01545    0.01036
 38 Ag    0.00927    0.00332   -0.00215
 39 Pd    0.00550   -0.02709    0.00159
 40 Pd    0.00623   -0.02766    0.02753
 41 Ir    0.00805   -0.06223    0.00361
 42 Ag   -0.01269   -0.05487    0.01775
 43 Ir   -0.04819   -0.02263    0.00082
 44 Ir    0.04309    0.00269    0.00472
 45 O     0.02740   -0.00402   -0.00397

Timing:                                      incl.     excl.
-------------------------------------------------------------------
Density initialized from wave functions:    16.595    16.594   0.1% |
 Symmetrize density:                         0.000     0.000   0.0% |
Forces:                                    100.030   100.030   0.9% |
Hamiltonian:                                18.054     0.056   0.0% |
 Atomic:                                     6.143     3.776   0.0% |
  XC Correction:                             2.367     2.367   0.0% |
 Calculate atomic Hamiltonians:              4.797     4.797   0.0% |
 Communicate:                                0.002     0.002   0.0% |
 Initialize Hamiltonian:                     0.000     0.000   0.0% |
 Poisson:                                    0.036     0.036   0.0% |
 XC 3D grid:                                 7.021     7.021   0.1% |
LCAO initialization:                        60.777     5.147   0.0% |
 LCAO eigensolver:                           6.683     0.004   0.0% |
  Calculate projections:                     0.078     0.078   0.0% |
  DenseAtomicCorrection:                     0.059     0.059   0.0% |
  Distribute overlap matrix:                 0.025     0.025   0.0% |
  Orbital Layouts:                           0.415     0.415   0.0% |
  Potential matrix:                          6.041     6.041   0.1% |
  Sum over cells:                            0.061     0.061   0.0% |
 LCAO to grid:                              46.765    46.765   0.4% |
 Set positions (LCAO WFS):                   2.182     0.640   0.0% |
  Basic WFS set positions:                   0.002     0.002   0.0% |
  Basis functions set positions:             0.001     0.001   0.0% |
  P tci:                                     0.690     0.690   0.0% |
  ST tci:                                    0.626     0.626   0.0% |
  mktci:                                     0.223     0.223   0.0% |
PWDescriptor:                                0.041     0.041   0.0% |
Redistribute:                                0.034     0.034   0.0% |
SCF-cycle:                               10970.616   265.742   2.4% ||
 Davidson:                                9832.250  2367.976  21.1% |-------|
  Apply H:                                1475.628  1428.983  12.7% |----|
   HMM T:                                   46.644    46.644   0.4% |
  Subspace diag:                          1404.373     0.047   0.0% |
   calc_h_matrix:                          787.233   297.610   2.7% ||
    Apply H:                               489.623   474.189   4.2% |-|
     HMM T:                                 15.435    15.435   0.1% |
   diagonalize:                             22.374    22.374   0.2% |
   rotate_psi:                             594.719   594.719   5.3% |-|
  calc. matrices:                         2996.756  2014.839  17.9% |------|
   Apply H:                                981.917   950.808   8.5% |--|
    HMM T:                                  31.109    31.109   0.3% |
  diagonalize:                             382.561   382.561   3.4% ||
  rotate_psi:                             1204.956  1204.956  10.7% |---|
 Density:                                  439.576     0.008   0.0% |
  Atomic density matrices:                   2.520     2.520   0.0% |
  Mix:                                     143.948   143.948   1.3% ||
  Multipole moments:                         0.196     0.196   0.0% |
  Pseudo density:                          292.903   292.895   2.6% ||
   Symmetrize density:                       0.007     0.007   0.0% |
 Hamiltonian:                              391.541     1.360   0.0% |
  Atomic:                                  106.092    48.782   0.4% |
   XC Correction:                           57.310    57.310   0.5% |
  Calculate atomic Hamiltonians:           116.097   116.097   1.0% |
  Communicate:                               0.027     0.027   0.0% |
  Poisson:                                   0.851     0.851   0.0% |
  XC 3D grid:                              167.114   167.114   1.5% ||
 Orthonormalize:                            41.507     0.003   0.0% |
  calc_s_matrix:                             6.163     6.163   0.1% |
  inverse-cholesky:                          0.396     0.396   0.0% |
  projections:                              22.670    22.670   0.2% |
  rotate_psi_s:                             12.276    12.276   0.1% |
Set symmetry:                                0.002     0.002   0.0% |
Other:                                      63.927    63.927   0.6% |
-------------------------------------------------------------------
Total:                                             11230.076 100.0%

Date: Thu Mar  3 17:39:59 2022
