
  ___ ___ ___ _ _ _  
 |   |   |_  | | | | 
 | | | | | . | | | | 
 |__ |  _|___|_____|  1.5.1
 |___|_|             

User:   clausen@node033.cluster
Date:   Fri Mar  4 00:47:31 2022
Arch:   x86_64
Pid:    8331
Python: 3.6.12
gpaw:   /software/kemi/gpaw/1.5.1/gpaw
_gpaw:  /software/kemi/gpaw/1.5.1/bin/gpaw-python
ase:    /software/kemi/ase/3.17.0/ase (version 3.17.0)
numpy:  /opt/rh/rh-python36/root/usr/lib64/python3.6/site-packages/numpy (version 1.13.1)
scipy:  /opt/rh/rh-python36/root/usr/lib64/python3.6/site-packages/scipy (version 0.19.1)
units:  Angstrom and eV
cores:  16

Input parameters:
  kpts: [4 4 1]
  mode: {ecut: 400.0,
         gammacentered: False,
         name: pw}
  xc: RPBE

System changes: positions, numbers, cell, pbc, initial_charges, initial_magmoms 

Initialize ...

Pd-setup:
  name: Palladium
  id: 6da19bfba079f22767af9506641940b9
  Z: 46
  valence: 16
  core: 30
  charge: 0.0
  file: /software/kemi/gpaw-setups/0.9.20000/Pd.RPBE.gz
  cutoffs: 1.19(comp), 2.38(filt), 2.28(core), lmax=2
  valence states:
                energy  radius
    5s(0.00)    -3.225   1.228
    4p(6.00)   -51.131   1.360
    5p(0.00)    -0.373   1.360
    4d(10.00)    -3.964   1.228
    *s          23.987   1.228
    *d          23.247   1.228

  Using partial waves for Pd as LCAO basis

Ag-setup:
  name: Silver
  id: c05e55bab2c3858b3f9398f6d75cb77c
  Z: 47
  valence: 17
  core: 30
  charge: 0.0
  file: /software/kemi/gpaw-setups/0.9.20000/Ag.RPBE.gz
  cutoffs: 1.25(comp), 2.35(filt), 2.19(core), lmax=2
  valence states:
                energy  radius
    5s(1.00)    -4.277   1.286
    4p(6.00)   -58.523   1.328
    5p(0.00)    -0.755   1.328
    4d(10.00)    -7.386   1.180
    *s          22.934   1.286
    *d          19.826   1.180

  Using partial waves for Ag as LCAO basis

Pt-setup:
  name: Platinum
  id: f04f522592575c47ad794f6b4a415b4b
  Z: 78
  valence: 16
  core: 62
  charge: 0.0
  file: /software/kemi/gpaw-setups/0.9.20000/Pt.RPBE.gz
  cutoffs: 1.29(comp), 2.26(filt), 2.26(core), lmax=2
  valence states:
                energy  radius
    6s(1.00)    -5.516   1.307
    5p(6.00)   -55.971   1.371
    6p(0.00)    -0.856   1.371
    5d(9.00)    -6.087   1.307
    *s          21.695   1.307
    *d          21.125   1.307

  Using partial waves for Pt as LCAO basis

Ru-setup:
  name: Ruthenium
  id: 76477906e28f51dc1b29884d53556fe9
  Z: 44
  valence: 16
  core: 28
  charge: 0.0
  file: /software/kemi/gpaw-setups/0.9.20000/Ru.RPBE.gz
  cutoffs: 1.23(comp), 2.16(filt), 1.30(core), lmax=2
  valence states:
                energy  radius
    4s(2.00)   -76.255   1.281
    5s(1.00)    -4.126   1.281
    4p(6.00)   -46.371   1.286
    5p(0.00)    -0.913   1.286
    4d(7.00)    -5.146   1.254
    *d          22.066   1.254

  Using partial waves for Ru as LCAO basis

O-setup:
  name: Oxygen
  id: 08071ca1eed670e7821b24b7eb4d558c
  Z: 8
  valence: 6
  core: 2
  charge: 0.0
  file: /software/kemi/gpaw-setups/0.9.20000/O.RPBE.gz
  cutoffs: 0.67(comp), 1.17(filt), 0.83(core), lmax=2
  valence states:
                energy  radius
    2s(2.00)   -24.041   0.688
    2p(4.00)    -8.984   0.598
    *s           3.170   0.688
    *p          18.228   0.598
    *d           0.000   0.619

  Using partial waves for O as LCAO basis

H-setup:
  name: Hydrogen
  id: ea3f9156a1dc40d47a60fdce8f8bd75d
  Z: 1
  valence: 1
  core: 0
  charge: 0.0
  file: /software/kemi/gpaw-setups/0.9.20000/H.RPBE.gz
  cutoffs: 0.48(comp), 0.85(filt), 0.53(core), lmax=2
  valence states:
                energy  radius
    1s(1.00)    -6.572   0.476
    *s          20.639   0.476
    *p           0.000   0.476

  Using partial waves for H as LCAO basis

Reference energy: -9073466.092496

Spin-paired calculation

Occupation numbers:
  Fermi-Dirac: width=0.1000 eV

Convergence criteria:
  Maximum total energy change: 0.0005 eV / electron
  Maximum integral of absolute density change: 0.0001 electrons
  Maximum integral of absolute eigenstate change: 4e-08 eV^2
  Maximum number of iterations: 333

Symmetries present (total): 1

  ( 1  0  0)
  ( 0  1  0)
  ( 0  0  1)

16 k-points: 4 x 4 x 1 Monkhorst-Pack grid
8 k-points in the irreducible part of the Brillouin zone
       k-points in crystal coordinates                weights
   0:     0.12500000   -0.37500000    0.00000000          2/16
   1:     0.12500000   -0.12500000    0.00000000          2/16
   2:     0.12500000    0.12500000    0.00000000          2/16
   3:     0.12500000    0.37500000    0.00000000          2/16
   4:     0.37500000   -0.37500000    0.00000000          2/16
   5:     0.37500000   -0.12500000    0.00000000          2/16
   6:     0.37500000    0.12500000    0.00000000          2/16
   7:     0.37500000    0.37500000    0.00000000          2/16

Wave functions: Plane wave expansion
  Cutoff energy: 400.000 eV
  Number of coefficients (min, max): 32266, 32339
  Pulay-stress correction: 0.000000 eV/Ang^3 (de/decut=0.000000)
  Using FFTW library
  ScaLapack parameters: grid=1x1, blocksize=None
  Wavefunction extrapolation:
    Improved wavefunction reuse through dual PAW basis 

Eigensolver
   Davidson(niter=2, smin=None, normalize=True) 

Densities:
  Coarse grid: 35*35*135 grid
  Fine grid: 70*70*270 grid
  Total Charge: 0.000000 

Density mixing:
  Method: separate
  Backend: pulay
  Linear mixing parameter: 0.05
  Mixing with 5 old densities
  Damping of long wave oscillations: 50 

Hamiltonian:
  XC and Coulomb potentials evaluated on a 70*70*270 grid
  Using the RPBE Exchange-Correlation functional
 

XC parameters: RPBE with 2 nearest neighbor stencil

Memory estimate:
  Process memory now: 148.80 MiB
  Calculator: 552.99 MiB
    Density: 51.61 MiB
      Arrays: 16.41 MiB
      Localized functions: 28.84 MiB
      Mixer: 6.36 MiB
    Hamiltonian: 11.64 MiB
      Arrays: 10.73 MiB
      XC: 0.00 MiB
      Poisson: 0.00 MiB
      vbar: 0.91 MiB
    Wavefunctions: 489.75 MiB
      Arrays psit_nG: 221.07 MiB
      Eigensolver: 254.17 MiB
      Projections: 2.83 MiB
      Projectors: 5.06 MiB
      PW-descriptor: 6.62 MiB

Total number of cores used: 16
Parallelization over k-points: 8
Domain decomposition: 1 x 1 x 2

Number of atoms: 47
Number of atomic orbitals: 552
Number of bands in calculation: 448
Bands to converge: occupied states only
Number of valence electrons: 739

... initialized

Initializing position-dependent things.

Density initialized from atomic densities
Creating initial wave functions:
  448 bands from LCAO basis set

                                             
                                             
                                             
                                             
                                             
                                             
              H                              
            O                                
                 Pt      Pd    Ru            
                                             
            Pt    APd    PPd    Ru           
        Pd           Pd                      
              Ru           Pt                
        Pt     Pd    PPd    Pd     Ag        
                                             
                Ag     Ag     Ag             
                                             
           Ag    PAg    APt    Pd            
                                             
            Pd     Ru     Ag     Pd          
       Ag    PRu    PRu    Pt                
                                             
        Pd     Ag     Pt                     
                                             
                                             
                                             
                                             
                                             

Positions:
   0 Pd     0.000000    1.633958   10.000000    ( 0.0000,  0.0000,  0.0000)
   1 Ag     2.830098    1.633958   10.000000    ( 0.0000,  0.0000,  0.0000)
   2 Pt     5.660196    1.633958   10.000000    ( 0.0000,  0.0000,  0.0000)
   3 Pd     1.415049    4.084895   10.000000    ( 0.0000,  0.0000,  0.0000)
   4 Pd     4.245147    4.084895   10.000000    ( 0.0000,  0.0000,  0.0000)
   5 Pt     7.075245    4.084895   10.000000    ( 0.0000,  0.0000,  0.0000)
   6 Pd     2.830098    6.535832   10.000000    ( 0.0000,  0.0000,  0.0000)
   7 Ag     5.660196    6.535832   10.000000    ( 0.0000,  0.0000,  0.0000)
   8 Pd     8.490294    6.535832   10.000000    ( 0.0000,  0.0000,  0.0000)
   9 Ag     0.000000    0.000000   12.310765    ( 0.0000,  0.0000,  0.0000)
  10 Ru     2.830098    0.000000   12.310765    ( 0.0000,  0.0000,  0.0000)
  11 Ru     5.660196    0.000000   12.310765    ( 0.0000,  0.0000,  0.0000)
  12 Pd     1.415049    2.450937   12.310765    ( 0.0000,  0.0000,  0.0000)
  13 Ru     4.245147    2.450937   12.310765    ( 0.0000,  0.0000,  0.0000)
  14 Ag     7.075245    2.450937   12.310765    ( 0.0000,  0.0000,  0.0000)
  15 Pd     2.830098    4.901874   12.310765    ( 0.0000,  0.0000,  0.0000)
  16 Ag     5.660196    4.901874   12.310765    ( 0.0000,  0.0000,  0.0000)
  17 Pd     8.490294    4.901874   12.310765    ( 0.0000,  0.0000,  0.0000)
  18 Ag     1.422839    0.836358   14.687202    ( 0.0000,  0.0000,  0.0000)
  19 Ag     4.228290    0.834029   14.668537    ( 0.0000,  0.0000,  0.0000)
  20 Pt     7.000876    0.833422   14.677349    ( 0.0000,  0.0000,  0.0000)
  21 Ag     2.849410    3.275055   14.697646    ( 0.0000,  0.0000,  0.0000)
  22 Ag     5.607020    3.276035   14.715763    ( 0.0000,  0.0000,  0.0000)
  23 Ag     8.407636    3.278571   14.701685    ( 0.0000,  0.0000,  0.0000)
  24 Pd     4.226650    5.664441   14.783889    ( 0.0000,  0.0000,  0.0000)
  25 Pd     7.021524    5.717496   14.695770    ( 0.0000,  0.0000,  0.0000)
  26 Ag     9.810161    5.688371   14.690489    ( 0.0000,  0.0000,  0.0000)
  27 Pt     0.030364    1.654579   17.054310    ( 0.0000,  0.0000,  0.0000)
  28 Pd     2.863636    1.668211   17.080253    ( 0.0000,  0.0000,  0.0000)
  29 Pd     5.584811    1.668389   17.077768    ( 0.0000,  0.0000,  0.0000)
  30 Pd     1.451673    4.084780   17.054426    ( 0.0000,  0.0000,  0.0000)
  31 Ru     4.287216    4.070209   17.299465    ( 0.0000,  0.0000,  0.0000)
  32 Pt     6.976254    4.091014   17.095978    ( 0.0000,  0.0000,  0.0000)
  33 Ag     2.791829    6.501265   17.070936    ( 0.0000,  0.0000,  0.0000)
  34 Pt     5.617052    6.449501   17.092744    ( 0.0000,  0.0000,  0.0000)
  35 Ru     8.289070    6.444709   17.186717    ( 0.0000,  0.0000,  0.0000)
  36 Pd     0.109969    0.038419   19.432145    ( 0.0000,  0.0000,  0.0000)
  37 Ru     2.913932   -0.060119   19.211827    ( 0.0000,  0.0000,  0.0000)
  38 Pd     5.607656    0.003198   19.432032    ( 0.0000,  0.0000,  0.0000)
  39 Pt     1.441354    2.458850   19.369405    ( 0.0000,  0.0000,  0.0000)
  40 Pd     4.211433    2.427374   19.463642    ( 0.0000,  0.0000,  0.0000)
  41 Pd     7.082631    2.483306   19.414916    ( 0.0000,  0.0000,  0.0000)
  42 Pt     2.814800    4.836018   19.384744    ( 0.0000,  0.0000,  0.0000)
  43 Pd     5.686541    4.887569   19.522731    ( 0.0000,  0.0000,  0.0000)
  44 Ru     8.428363    4.985817   19.203811    ( 0.0000,  0.0000,  0.0000)
  45 O      1.441354    2.458850   21.522731    ( 0.0000,  0.0000,  0.0000)
  46 H      2.091354    3.108850   21.922731    ( 0.0000,  0.0000,  0.0000)

Unit cell:
           periodic     x           y           z      points  spacing
  1. axis:    yes    8.379498    0.000000    0.000000    35     0.2073
  2. axis:    yes    4.189749    7.256858    0.000000    35     0.2073
  3. axis:    no     0.000000    0.000000   29.243062   135     0.2166

  Lengths:   8.379498   8.379498  29.243062
  Angles:   90.000000  90.000000  60.000000

Effective grid spacing dv^(1/3) = 0.2207

                     log10-error:    total        iterations:
           time      wfs    density  energy       fermi  poisson
iter:   1  00:49:42  +0.50   +inf  -242.191952    2             
iter:   2  00:50:47  -1.07  -1.20  -212.966087    3             
iter:   3  00:51:56  -1.45  -1.32  -214.637238    35            
iter:   4  00:53:05  -1.35  -1.33  -273.515691    36            
iter:   5  00:54:12  -1.56  -1.20  -196.375723    37            
iter:   6  00:55:15  -1.77  -1.50  -189.509460    37            
iter:   7  00:56:21  -2.03  -1.66  -188.849839    36            
iter:   8  00:57:28  -3.09  -1.73  -187.779797    3             
iter:   9  00:58:32  -2.31  -1.76  -195.095676    4             
iter:  10  00:59:28  -2.35  -1.64  -187.648884    4             
iter:  11  01:00:23  -2.59  -1.88  -186.431382    3             
iter:  12  01:01:19  -3.07  -2.04  -185.973469    2             
iter:  13  01:02:14  -3.38  -2.16  -186.069261    3             
iter:  14  01:03:06  -3.50  -2.20  -185.872316    3             
iter:  15  01:03:52  -3.55  -2.28  -185.715508    3             
iter:  16  01:04:39  -3.40  -2.41  -185.971680    3             
iter:  17  01:05:25  -3.69  -2.32  -185.624157    2             
iter:  18  01:06:12  -3.88  -2.54  -185.589350    2             
iter:  19  01:06:58  -4.13  -2.62  -185.566135    3             
iter:  20  01:07:44  -4.25  -2.74  -185.518568    2             
iter:  21  01:08:30  -4.36  -2.90  -185.509137    2             
iter:  22  01:09:16  -4.95  -2.96  -185.509740    2             
iter:  23  01:10:02  -5.26  -3.00  -185.507520    2             
iter:  24  01:10:48  -4.62  -3.04  -185.509360    2             
iter:  25  01:11:34  -4.84  -3.00  -185.508990    2             
iter:  26  01:12:21  -5.29  -3.09  -185.502076    2             
iter:  27  01:13:07  -5.56  -3.26  -185.501642    2             
iter:  28  01:13:53  -5.70  -3.28  -185.500909    2             
iter:  29  01:14:40  -5.64  -3.43  -185.503055    2             
iter:  30  01:15:25  -5.96  -3.55  -185.502130    2             
iter:  31  01:16:12  -6.11  -3.39  -185.500581    2             
iter:  32  01:17:10  -6.17  -3.64  -185.501336    2             
iter:  33  01:18:17  -6.38  -3.73  -185.501014    2             
iter:  34  01:19:23  -6.40  -3.73  -185.500672    2             
iter:  35  01:20:29  -6.55  -3.90  -185.501159    2             
iter:  36  01:21:36  -7.04  -4.01  -185.500533    2             
iter:  37  01:22:43  -6.53  -3.89  -185.500095    2             
iter:  38  01:23:49  -6.95  -4.18  -185.500669    2             
iter:  39  01:24:56  -7.14  -4.18  -185.500467    2             
iter:  40  01:26:03  -7.49  -4.38  -185.500319    2             

Converged after 40 iterations.

Dipole moment: (21.047705, 21.841899, -0.266435) |e|*Ang

Energy contributions relative to reference atoms: (reference = -9073466.092496)

Kinetic:       -178.079970
Potential:      +31.536372
External:        +0.000000
XC:             -33.578739
Entropy (-ST):   -2.025412
Local:           -4.365275
--------------------------
Free energy:   -186.513025
Extrapolated:  -185.500319

Fermi level: 0.81155

Showing only first 2 kpts
 Kpt  Band  Eigenvalues  Occupancy
  0   367      0.78995    0.13845
  0   368      0.80444    0.12944
  0   369      0.84899    0.10187
  0   370      0.87886    0.08445

  1   367      0.68039    0.19694
  1   368      0.72125    0.17789
  1   369      0.74246    0.16654
  1   370      0.77839    0.14553



Forces in eV/Ang:
  0 Pd    0.09140    0.51087   -0.42112
  1 Ag    0.11005    0.48981   -0.51284
  2 Pt   -0.22512    0.51949    0.84279
  3 Pd    0.09751    0.03601   -0.08000
  4 Pd    0.11862   -0.37651    0.20050
  5 Pt   -0.14059   -0.29709   -0.08811
  6 Pd   -0.16995   -0.39105   -0.05150
  7 Ag   -0.12511   -0.45765   -0.71448
  8 Pd   -0.23602   -0.30221    0.31122
  9 Ag    0.51885    0.21722    0.43106
 10 Ru    2.21322    1.29639    0.41124
 11 Ru   -1.87926    0.88034   -0.43653
 12 Pd    1.11867   -0.24949    0.00509
 13 Ru   -0.54253   -1.49339   -0.88579
 14 Ag   -0.44356    0.12597    0.28824
 15 Pd    0.18379   -0.58093    0.08244
 16 Ag   -0.18703   -0.38186    0.33683
 17 Pd   -0.36433    0.54152   -0.01923
 18 Ag   -0.00333    0.00403    0.02526
 19 Ag   -0.01050   -0.01141    0.02285
 20 Pt   -0.05561   -0.06144   -0.10308
 21 Ag   -0.00024   -0.00226    0.03311
 22 Ag    0.01903   -0.01430   -0.00506
 23 Ag   -0.00170    0.00621    0.04335
 24 Pd    0.00670    0.01921    0.01551
 25 Pd    0.03254    0.03122    0.05583
 26 Ag   -0.00806   -0.00092    0.02567
 27 Pt    0.05646    0.08665    0.12881
 28 Pd   -0.07616    0.01190    0.06527
 29 Pd    0.04193   -0.06792   -0.02293
 30 Pd   -0.01430   -0.07517    0.03531
 31 Ru   -0.00043   -0.00692   -0.04385
 32 Pt    0.02875   -0.07106   -0.00896
 33 Ag    0.00213    0.05797   -0.00896
 34 Pt   -0.01852    0.04381   -0.02888
 35 Ru   -0.01666   -0.00424    0.05361
 36 Pd   -0.05731   -0.17160   -0.04273
 37 Ru    0.03059   -0.05662    0.03926
 38 Pd    0.01806    0.00099   -0.00060
 39 Pt    0.23897    0.11010    1.51100
 40 Pd    0.10435   -0.01871   -0.04941
 41 Pd   -0.20304    0.00250   -0.02796
 42 Pt    0.06340    0.22903   -0.12413
 43 Pd   -0.03985    0.00254   -0.02977
 44 Ru   -0.06563    0.10043    0.01047
 45 O     0.13290    0.13913   -0.80811
 46 H    -0.32437   -0.28759   -0.60540

System changes: positions 

Initializing position-dependent things.

Density initialized from wave functions
                                             
                                             
                                             
                                             
                                             
                                             
              H                              
             O                               
                 Pt      Pd    Ru            
             Pt   APd    PPd    Ru           
                                             
        Pd    Ru     Pd    Pt                
                                             
        Pt     Pd    PPd    Pd     Ag        
                Ag     Ag     Ag             
                                             
           Ag    PAg    APt    Pd            
                                             
            Pd     Ru     Ag     Pd          
       Ag     Ru     Ru                      
             Pd     Pd     Pt                
        Pd     Ag     Pt                     
                                             
                                             
                                             
                                             
                                             

Positions:
   0 Pd     0.000000    1.633958   10.000000    ( 0.0000,  0.0000,  0.0000)
   1 Ag     2.830098    1.633958   10.000000    ( 0.0000,  0.0000,  0.0000)
   2 Pt     5.660196    1.633958   10.000000    ( 0.0000,  0.0000,  0.0000)
   3 Pd     1.415049    4.084895   10.000000    ( 0.0000,  0.0000,  0.0000)
   4 Pd     4.245147    4.084895   10.000000    ( 0.0000,  0.0000,  0.0000)
   5 Pt     7.075245    4.084895   10.000000    ( 0.0000,  0.0000,  0.0000)
   6 Pd     2.830098    6.535832   10.000000    ( 0.0000,  0.0000,  0.0000)
   7 Ag     5.660196    6.535832   10.000000    ( 0.0000,  0.0000,  0.0000)
   8 Pd     8.490294    6.535832   10.000000    ( 0.0000,  0.0000,  0.0000)
   9 Ag     0.000000    0.000000   12.310765    ( 0.0000,  0.0000,  0.0000)
  10 Ru     2.830098    0.000000   12.310765    ( 0.0000,  0.0000,  0.0000)
  11 Ru     5.660196    0.000000   12.310765    ( 0.0000,  0.0000,  0.0000)
  12 Pd     1.415049    2.450937   12.310765    ( 0.0000,  0.0000,  0.0000)
  13 Ru     4.245147    2.450937   12.310765    ( 0.0000,  0.0000,  0.0000)
  14 Ag     7.075245    2.450937   12.310765    ( 0.0000,  0.0000,  0.0000)
  15 Pd     2.830098    4.901874   12.310765    ( 0.0000,  0.0000,  0.0000)
  16 Ag     5.660196    4.901874   12.310765    ( 0.0000,  0.0000,  0.0000)
  17 Pd     8.490294    4.901874   12.310765    ( 0.0000,  0.0000,  0.0000)
  18 Ag     1.422505    0.836762   14.689728    ( 0.0000,  0.0000,  0.0000)
  19 Ag     4.227241    0.832888   14.670822    ( 0.0000,  0.0000,  0.0000)
  20 Pt     6.995315    0.827277   14.667040    ( 0.0000,  0.0000,  0.0000)
  21 Ag     2.849386    3.274829   14.700958    ( 0.0000,  0.0000,  0.0000)
  22 Ag     5.608923    3.274604   14.715257    ( 0.0000,  0.0000,  0.0000)
  23 Ag     8.407465    3.279192   14.706020    ( 0.0000,  0.0000,  0.0000)
  24 Pd     4.227320    5.666362   14.785441    ( 0.0000,  0.0000,  0.0000)
  25 Pd     7.024778    5.720618   14.701353    ( 0.0000,  0.0000,  0.0000)
  26 Ag     9.809355    5.688279   14.693056    ( 0.0000,  0.0000,  0.0000)
  27 Pt     0.036010    1.663244   17.067191    ( 0.0000,  0.0000,  0.0000)
  28 Pd     2.856020    1.669401   17.086779    ( 0.0000,  0.0000,  0.0000)
  29 Pd     5.589004    1.661597   17.075475    ( 0.0000,  0.0000,  0.0000)
  30 Pd     1.450243    4.077263   17.057957    ( 0.0000,  0.0000,  0.0000)
  31 Ru     4.287173    4.069516   17.295080    ( 0.0000,  0.0000,  0.0000)
  32 Pt     6.979129    4.083908   17.095083    ( 0.0000,  0.0000,  0.0000)
  33 Ag     2.792043    6.507061   17.070040    ( 0.0000,  0.0000,  0.0000)
  34 Pt     5.615200    6.453882   17.089855    ( 0.0000,  0.0000,  0.0000)
  35 Ru     8.287404    6.444285   17.192078    ( 0.0000,  0.0000,  0.0000)
  36 Pd     0.104238    0.021258   19.427872    ( 0.0000,  0.0000,  0.0000)
  37 Ru     2.916991   -0.065780   19.215753    ( 0.0000,  0.0000,  0.0000)
  38 Pd     5.609463    0.003297   19.431972    ( 0.0000,  0.0000,  0.0000)
  39 Pt     1.465251    2.469860   19.520505    ( 0.0000,  0.0000,  0.0000)
  40 Pd     4.221868    2.425503   19.458700    ( 0.0000,  0.0000,  0.0000)
  41 Pd     7.062327    2.483555   19.412120    ( 0.0000,  0.0000,  0.0000)
  42 Pt     2.821140    4.858921   19.372331    ( 0.0000,  0.0000,  0.0000)
  43 Pd     5.682555    4.887823   19.519754    ( 0.0000,  0.0000,  0.0000)
  44 Ru     8.421800    4.995859   19.204858    ( 0.0000,  0.0000,  0.0000)
  45 O      1.454644    2.472762   21.441920    ( 0.0000,  0.0000,  0.0000)
  46 H      2.058917    3.080090   21.862191    ( 0.0000,  0.0000,  0.0000)

Unit cell:
           periodic     x           y           z      points  spacing
  1. axis:    yes    8.379498    0.000000    0.000000    35     0.2073
  2. axis:    yes    4.189749    7.256858    0.000000    35     0.2073
  3. axis:    no     0.000000    0.000000   29.243062   135     0.2166

  Lengths:   8.379498   8.379498  29.243062
  Angles:   90.000000  90.000000  60.000000

Effective grid spacing dv^(1/3) = 0.2207

                     log10-error:    total        iterations:
           time      wfs    density  energy       fermi  poisson
iter:   1  01:27:40  -2.08   +inf  -189.260807    4             
iter:   2  01:28:47  -1.70  -1.99  -230.446105    37            
iter:   3  01:29:53  -1.56  -1.47  -216.303919    3             
iter:   4  01:30:59  -2.57  -1.54  -188.351836    36            
iter:   5  01:32:05  -2.89  -2.12  -186.118081    4             
iter:   6  01:33:11  -3.43  -2.48  -185.797954    2             
iter:   7  01:34:17  -3.86  -2.56  -185.682593    3             
iter:   8  01:35:24  -4.30  -2.71  -185.631279    3             
iter:   9  01:36:30  -4.00  -2.89  -185.695661    3             
iter:  10  01:37:36  -4.35  -2.61  -185.649881    3             
iter:  11  01:38:42  -4.01  -2.78  -185.590346    2             
iter:  12  01:39:48  -4.44  -2.99  -185.579209    2             
iter:  13  01:40:55  -4.86  -3.22  -185.580810    2             
iter:  14  01:42:01  -4.93  -3.10  -185.578633    3             
iter:  15  01:43:07  -5.58  -3.24  -185.574210    2             
iter:  16  01:44:13  -5.38  -3.45  -185.571141    2             
iter:  17  01:45:19  -5.54  -3.66  -185.572424    2             
iter:  18  01:46:25  -5.82  -3.70  -185.571404    2             
iter:  19  01:47:32  -5.74  -3.70  -185.573656    2             
iter:  20  01:48:38  -6.17  -3.36  -185.571803    2             
iter:  21  01:49:44  -6.11  -3.77  -185.572978    2             
iter:  22  01:50:51  -6.36  -3.80  -185.571408    2             
iter:  23  01:51:56  -6.32  -3.71  -185.572063    2             
iter:  24  01:52:59  -6.57  -4.05  -185.571233    2             
iter:  25  01:54:07  -6.26  -3.86  -185.571775    2             
iter:  26  01:55:12  -6.65  -4.10  -185.571196    2             
iter:  27  01:56:18  -6.71  -4.15  -185.571574    2             
iter:  28  01:57:23  -7.47  -4.37  -185.571379    2             

Converged after 28 iterations.

Dipole moment: (20.537701, 22.799832, -0.116432) |e|*Ang

Energy contributions relative to reference atoms: (reference = -9073466.092496)

Kinetic:       -170.150540
Potential:      +25.063272
External:        +0.000000
XC:             -35.043872
Entropy (-ST):   -2.015789
Local:           -4.432344
--------------------------
Free energy:   -186.579274
Extrapolated:  -185.571379

Fermi level: 0.88352

Showing only first 2 kpts
 Kpt  Band  Eigenvalues  Occupancy
  0   367      0.86327    0.13761
  0   368      0.87410    0.13088
  0   369      0.91986    0.10253
  0   370      0.94913    0.08541

  1   367      0.76212    0.19275
  1   368      0.79326    0.17787
  1   369      0.81813    0.16447
  1   370      0.85232    0.14435



Forces in eV/Ang:
  0 Pd    0.09786    0.51319   -0.41263
  1 Ag    0.10536    0.49239   -0.50692
  2 Pt   -0.23091    0.51706    0.84815
  3 Pd    0.10237    0.03533   -0.07090
  4 Pd    0.10954   -0.37396    0.21044
  5 Pt   -0.13491   -0.29702   -0.07582
  6 Pd   -0.16875   -0.39979   -0.04895
  7 Ag   -0.12811   -0.45468   -0.70582
  8 Pd   -0.22607   -0.29794    0.32208
  9 Ag    0.53529    0.21236    0.41919
 10 Ru    2.20051    1.29592    0.42150
 11 Ru   -1.88007    0.87850   -0.41261
 12 Pd    1.11448   -0.24618    0.02013
 13 Ru   -0.55093   -1.47926   -0.87829
 14 Ag   -0.43019    0.14358    0.28348
 15 Pd    0.18799   -0.59075    0.08674
 16 Ag   -0.18118   -0.37665    0.35454
 17 Pd   -0.36938    0.53362   -0.00567
 18 Ag   -0.02354    0.02690    0.02037
 19 Ag   -0.02922    0.01547    0.02199
 20 Pt    0.00737   -0.01008   -0.08483
 21 Ag    0.00564    0.00029    0.02437
 22 Ag    0.00378   -0.00216   -0.01617
 23 Ag    0.00037   -0.02419    0.01272
 24 Pd    0.00948   -0.01612   -0.00990
 25 Pd    0.00307   -0.00479    0.02184
 26 Ag   -0.00536   -0.03593    0.02050
 27 Pt    0.08098    0.05924    0.24598
 28 Pd   -0.10388    0.06346    0.18262
 29 Pd   -0.01358   -0.03050   -0.04543
 30 Pd    0.02054   -0.10888    0.18216
 31 Ru   -0.00789   -0.01459   -0.07129
 32 Pt    0.01175   -0.01446   -0.00177
 33 Ag   -0.00477    0.03661   -0.07185
 34 Pt    0.01786    0.02657   -0.02144
 35 Ru    0.01217    0.03075   -0.05701
 36 Pd   -0.02519    0.02395   -0.05992
 37 Ru   -0.03720   -0.01991    0.04474
 38 Pd    0.02328    0.05252   -0.01138
 39 Pt    0.07774    0.06182   -1.33485
 40 Pd    0.08358    0.00334   -0.08756
 41 Pd    0.00100   -0.03824   -0.06149
 42 Pt    0.02872    0.08837   -0.07620
 43 Pd   -0.00190   -0.01038   -0.05062
 44 Ru   -0.05982   -0.02736    0.03188
 45 O    -1.38857   -1.33590    0.82167
 46 H     1.12338    1.15605    0.38782

System changes: positions 

Initializing position-dependent things.

Density initialized from wave functions
                                             
                                             
                                             
                                             
                                             
                                             
              H                              
            O                                
                 Pt      Pd    Ru            
                                             
            Pt    APd    PPd    Ru           
        Pd           Pd    Pt                
              Ru                             
        Pt     Pd    PPd    Pd     Ag        
                                             
                Ag     Ag     Ag             
                                             
           Ag    PAg    APt    Pd            
                                             
            Pd     Ru     Ag     Pd          
       Ag    PRu    PRu    Pt                
                                             
        Pd     Ag     Pt                     
                                             
                                             
                                             
                                             
                                             

Positions:
   0 Pd     0.000000    1.633958   10.000000    ( 0.0000,  0.0000,  0.0000)
   1 Ag     2.830098    1.633958   10.000000    ( 0.0000,  0.0000,  0.0000)
   2 Pt     5.660196    1.633958   10.000000    ( 0.0000,  0.0000,  0.0000)
   3 Pd     1.415049    4.084895   10.000000    ( 0.0000,  0.0000,  0.0000)
   4 Pd     4.245147    4.084895   10.000000    ( 0.0000,  0.0000,  0.0000)
   5 Pt     7.075245    4.084895   10.000000    ( 0.0000,  0.0000,  0.0000)
   6 Pd     2.830098    6.535832   10.000000    ( 0.0000,  0.0000,  0.0000)
   7 Ag     5.660196    6.535832   10.000000    ( 0.0000,  0.0000,  0.0000)
   8 Pd     8.490294    6.535832   10.000000    ( 0.0000,  0.0000,  0.0000)
   9 Ag     0.000000    0.000000   12.310765    ( 0.0000,  0.0000,  0.0000)
  10 Ru     2.830098    0.000000   12.310765    ( 0.0000,  0.0000,  0.0000)
  11 Ru     5.660196    0.000000   12.310765    ( 0.0000,  0.0000,  0.0000)
  12 Pd     1.415049    2.450937   12.310765    ( 0.0000,  0.0000,  0.0000)
  13 Ru     4.245147    2.450937   12.310765    ( 0.0000,  0.0000,  0.0000)
  14 Ag     7.075245    2.450937   12.310765    ( 0.0000,  0.0000,  0.0000)
  15 Pd     2.830098    4.901874   12.310765    ( 0.0000,  0.0000,  0.0000)
  16 Ag     5.660196    4.901874   12.310765    ( 0.0000,  0.0000,  0.0000)
  17 Pd     8.490294    4.901874   12.310765    ( 0.0000,  0.0000,  0.0000)
  18 Ag     1.422670    0.836562   14.688477    ( 0.0000,  0.0000,  0.0000)
  19 Ag     4.227761    0.833453   14.669690    ( 0.0000,  0.0000,  0.0000)
  20 Pt     6.998070    0.830321   14.672147    ( 0.0000,  0.0000,  0.0000)
  21 Ag     2.849398    3.274941   14.699317    ( 0.0000,  0.0000,  0.0000)
  22 Ag     5.607980    3.275313   14.715508    ( 0.0000,  0.0000,  0.0000)
  23 Ag     8.407550    3.278885   14.703873    ( 0.0000,  0.0000,  0.0000)
  24 Pd     4.226988    5.665410   14.784672    ( 0.0000,  0.0000,  0.0000)
  25 Pd     7.023166    5.719071   14.698587    ( 0.0000,  0.0000,  0.0000)
  26 Ag     9.809755    5.688325   14.691784    ( 0.0000,  0.0000,  0.0000)
  27 Pt     0.033213    1.658952   17.060810    ( 0.0000,  0.0000,  0.0000)
  28 Pd     2.859793    1.668811   17.083546    ( 0.0000,  0.0000,  0.0000)
  29 Pd     5.586927    1.664962   17.076611    ( 0.0000,  0.0000,  0.0000)
  30 Pd     1.450952    4.080987   17.056208    ( 0.0000,  0.0000,  0.0000)
  31 Ru     4.287194    4.069859   17.297252    ( 0.0000,  0.0000,  0.0000)
  32 Pt     6.977705    4.087428   17.095526    ( 0.0000,  0.0000,  0.0000)
  33 Ag     2.791937    6.504190   17.070484    ( 0.0000,  0.0000,  0.0000)
  34 Pt     5.616118    6.451712   17.091286    ( 0.0000,  0.0000,  0.0000)
  35 Ru     8.288230    6.444495   17.189422    ( 0.0000,  0.0000,  0.0000)
  36 Pd     0.107077    0.029760   19.429989    ( 0.0000,  0.0000,  0.0000)
  37 Ru     2.915475   -0.062976   19.213808    ( 0.0000,  0.0000,  0.0000)
  38 Pd     5.608568    0.003248   19.432002    ( 0.0000,  0.0000,  0.0000)
  39 Pt     1.453413    2.464406   19.445652    ( 0.0000,  0.0000,  0.0000)
  40 Pd     4.216699    2.426430   19.461148    ( 0.0000,  0.0000,  0.0000)
  41 Pd     7.072386    2.483432   19.413505    ( 0.0000,  0.0000,  0.0000)
  42 Pt     2.817999    4.847575   19.378480    ( 0.0000,  0.0000,  0.0000)
  43 Pd     5.684530    4.887697   19.521229    ( 0.0000,  0.0000,  0.0000)
  44 Ru     8.425051    4.990884   19.204340    ( 0.0000,  0.0000,  0.0000)
  45 O      1.448061    2.465870   21.481953    ( 0.0000,  0.0000,  0.0000)
  46 H      2.074986    3.094337   21.892182    ( 0.0000,  0.0000,  0.0000)

Unit cell:
           periodic     x           y           z      points  spacing
  1. axis:    yes    8.379498    0.000000    0.000000    35     0.2073
  2. axis:    yes    4.189749    7.256858    0.000000    35     0.2073
  3. axis:    no     0.000000    0.000000   29.243062   135     0.2166

  Lengths:   8.379498   8.379498  29.243062
  Angles:   90.000000  90.000000  60.000000

Effective grid spacing dv^(1/3) = 0.2207

                     log10-error:    total        iterations:
           time      wfs    density  energy       fermi  poisson
iter:   1  01:58:59  -2.50   +inf  -186.681123    3             
iter:   2  02:00:00  -2.33  -2.24  -205.736291    3             
iter:   3  02:00:58  -2.55  -1.60  -186.313022    4             
iter:   4  02:01:53  -3.53  -2.35  -185.928549    3             
iter:   5  02:02:48  -3.73  -2.54  -185.772608    3             
iter:   6  02:03:43  -4.13  -2.67  -185.690842    2             
iter:   7  02:04:39  -4.10  -2.82  -185.728146    3             
iter:   8  02:05:34  -4.47  -2.75  -185.642005    3             
iter:   9  02:06:30  -5.31  -3.23  -185.642296    2             
iter:  10  02:07:16  -4.63  -3.26  -185.660990    2             
iter:  11  02:08:03  -4.40  -2.96  -185.778655    2             
iter:  12  02:08:50  -4.71  -2.59  -185.634272    2             
iter:  13  02:09:36  -5.51  -3.37  -185.631806    2             
iter:  14  02:10:22  -6.17  -3.70  -185.631020    2             
iter:  15  02:11:09  -6.27  -3.81  -185.631891    2             
iter:  16  02:11:55  -6.19  -3.84  -185.631155    2             
iter:  17  02:12:42  -6.67  -3.98  -185.631889    2             
iter:  18  02:13:36  -6.73  -3.89  -185.631553    2             
iter:  19  02:14:43  -6.68  -3.83  -185.631403    2             
iter:  20  02:15:49  -6.63  -4.01  -185.631007    2             
iter:  21  02:16:56  -6.74  -4.00  -185.631833    2             
iter:  22  02:18:02  -7.11  -4.28  -185.631327    2             
iter:  23  02:19:08  -7.41  -4.27  -185.631438    2             

Converged after 23 iterations.

Dipole moment: (20.792716, 22.329320, -0.196255) |e|*Ang

Energy contributions relative to reference atoms: (reference = -9073466.092496)

Kinetic:       -176.203354
Potential:      +30.119674
External:        +0.000000
XC:             -34.121787
Entropy (-ST):   -2.019519
Local:           -4.416211
--------------------------
Free energy:   -186.641198
Extrapolated:  -185.631438

Fermi level: 0.84320

Showing only first 2 kpts
 Kpt  Band  Eigenvalues  Occupancy
  0   367      0.82207    0.13816
  0   368      0.83476    0.13027
  0   369      0.88051    0.10195
  0   370      0.90981    0.08484

  1   367      0.71716    0.19477
  1   368      0.75231    0.17819
  1   369      0.77510    0.16599
  1   370      0.81121    0.14482



Forces in eV/Ang:
  0 Pd    0.09584    0.51100   -0.43015
  1 Ag    0.10282    0.49443   -0.52485
  2 Pt   -0.22601    0.51731    0.82680
  3 Pd    0.10256    0.03705   -0.09106
  4 Pd    0.10856   -0.37132    0.19676
  5 Pt   -0.13612   -0.29696   -0.09643
  6 Pd   -0.16883   -0.39950   -0.06212
  7 Ag   -0.13061   -0.45538   -0.71929
  8 Pd   -0.22822   -0.30380    0.30020
  9 Ag    0.52863    0.21457    0.42739
 10 Ru    2.20768    1.29587    0.42691
 11 Ru   -1.88051    0.87753   -0.42524
 12 Pd    1.11345   -0.24522    0.02054
 13 Ru   -0.54876   -1.48240   -0.87529
 14 Ag   -0.43157    0.13896    0.28903
 15 Pd    0.18740   -0.58897    0.08713
 16 Ag   -0.18528   -0.38041    0.35085
 17 Pd   -0.36637    0.53225   -0.00700
 18 Ag   -0.01563    0.01804    0.02491
 19 Ag   -0.01932    0.00237    0.02872
 20 Pt   -0.01978   -0.03485   -0.08356
 21 Ag    0.00067    0.00028    0.03212
 22 Ag    0.01101   -0.00643   -0.00979
 23 Ag    0.00099   -0.00966    0.02599
 24 Pd    0.00703    0.00002    0.00503
 25 Pd    0.01781    0.01118    0.03574
 26 Ag   -0.00562   -0.02016    0.02637
 27 Pt    0.09732    0.08734    0.22418
 28 Pd   -0.11414    0.05800    0.14967
 29 Pd    0.01359   -0.04765   -0.03835
 30 Pd    0.00693   -0.12435    0.13392
 31 Ru   -0.01905   -0.02156   -0.05661
 32 Pt    0.02885   -0.05069   -0.00867
 33 Ag   -0.00063    0.04946   -0.04951
 34 Pt   -0.00160    0.04844   -0.02867
 35 Ru   -0.00340    0.01300   -0.00714
 36 Pd   -0.04545   -0.06541   -0.03106
 37 Ru   -0.00800   -0.03712    0.05667
 38 Pd    0.02875    0.04123    0.03448
 39 Pt    0.12909    0.06865    0.43342
 40 Pd    0.12907   -0.01002   -0.07452
 41 Pd   -0.10770   -0.02945   -0.02576
 42 Pt    0.06393    0.18172   -0.10996
 43 Pd   -0.02222   -0.00989   -0.00034
 44 Ru   -0.06877    0.03604    0.03044
 45 O    -0.56565   -0.54656   -0.49681
 46 H     0.37026    0.40480   -0.18179

System changes: positions 

Initializing position-dependent things.

Density initialized from wave functions
                                             
                                             
                                             
                                             
                                             
                                             
               H                             
            O                                
                 Pt      Pd    Ru            
             Pt   APd    PPd    Ru           
                                             
        Pd    Ru     Pd    Pt                
                                             
         Pt    Pd    PPd    Pd     Ag        
                Ag     Ag     Ag             
                                             
           Ag    PAg    APt    Pd            
                                             
            Pd     Ru     Ag     Pd          
       Ag     Ru     Ru                      
             Pd     Pd     Pt                
        Pd     Ag     Pt                     
                                             
                                             
                                             
                                             
                                             

Positions:
   0 Pd     0.000000    1.633958   10.000000    ( 0.0000,  0.0000,  0.0000)
   1 Ag     2.830098    1.633958   10.000000    ( 0.0000,  0.0000,  0.0000)
   2 Pt     5.660196    1.633958   10.000000    ( 0.0000,  0.0000,  0.0000)
   3 Pd     1.415049    4.084895   10.000000    ( 0.0000,  0.0000,  0.0000)
   4 Pd     4.245147    4.084895   10.000000    ( 0.0000,  0.0000,  0.0000)
   5 Pt     7.075245    4.084895   10.000000    ( 0.0000,  0.0000,  0.0000)
   6 Pd     2.830098    6.535832   10.000000    ( 0.0000,  0.0000,  0.0000)
   7 Ag     5.660196    6.535832   10.000000    ( 0.0000,  0.0000,  0.0000)
   8 Pd     8.490294    6.535832   10.000000    ( 0.0000,  0.0000,  0.0000)
   9 Ag     0.000000    0.000000   12.310765    ( 0.0000,  0.0000,  0.0000)
  10 Ru     2.830098    0.000000   12.310765    ( 0.0000,  0.0000,  0.0000)
  11 Ru     5.660196    0.000000   12.310765    ( 0.0000,  0.0000,  0.0000)
  12 Pd     1.415049    2.450937   12.310765    ( 0.0000,  0.0000,  0.0000)
  13 Ru     4.245147    2.450937   12.310765    ( 0.0000,  0.0000,  0.0000)
  14 Ag     7.075245    2.450937   12.310765    ( 0.0000,  0.0000,  0.0000)
  15 Pd     2.830098    4.901874   12.310765    ( 0.0000,  0.0000,  0.0000)
  16 Ag     5.660196    4.901874   12.310765    ( 0.0000,  0.0000,  0.0000)
  17 Pd     8.490294    4.901874   12.310765    ( 0.0000,  0.0000,  0.0000)
  18 Ag     1.420355    0.839243   14.693160    ( 0.0000,  0.0000,  0.0000)
  19 Ag     4.224582    0.833211   14.674776    ( 0.0000,  0.0000,  0.0000)
  20 Pt     6.992581    0.822470   14.655525    ( 0.0000,  0.0000,  0.0000)
  21 Ag     2.849478    3.274867   14.705383    ( 0.0000,  0.0000,  0.0000)
  22 Ag     5.610441    3.273716   14.713910    ( 0.0000,  0.0000,  0.0000)
  23 Ag     8.407601    3.277865   14.709605    ( 0.0000,  0.0000,  0.0000)
  24 Pd     4.228288    5.666369   14.786137    ( 0.0000,  0.0000,  0.0000)
  25 Pd     7.027236    5.722163   14.706281    ( 0.0000,  0.0000,  0.0000)
  26 Ag     9.808581    5.685506   14.696688    ( 0.0000,  0.0000,  0.0000)
  27 Pt     0.049404    1.675275   17.098046    ( 0.0000,  0.0000,  0.0000)
  28 Pd     2.840308    1.677378   17.107373    ( 0.0000,  0.0000,  0.0000)
  29 Pd     5.590882    1.655028   17.070197    ( 0.0000,  0.0000,  0.0000)
  30 Pd     1.451193    4.060148   17.076378    ( 0.0000,  0.0000,  0.0000)
  31 Ru     4.284554    4.066551   17.287285    ( 0.0000,  0.0000,  0.0000)
  32 Pt     6.983102    4.076921   17.093888    ( 0.0000,  0.0000,  0.0000)
  33 Ag     2.791956    6.513876   17.063231    ( 0.0000,  0.0000,  0.0000)
  34 Pt     5.614976    6.460554   17.085907    ( 0.0000,  0.0000,  0.0000)
  35 Ru     8.286932    6.446070   17.191111    ( 0.0000,  0.0000,  0.0000)
  36 Pd     0.097974    0.012220   19.423591    ( 0.0000,  0.0000,  0.0000)
  37 Ru     2.915898   -0.070899   19.223555    ( 0.0000,  0.0000,  0.0000)
  38 Pd     5.613419    0.008966   19.436712    ( 0.0000,  0.0000,  0.0000)
  39 Pt     1.483061    2.479326   19.580489    ( 0.0000,  0.0000,  0.0000)
  40 Pd     4.239640    2.424121   19.448443    ( 0.0000,  0.0000,  0.0000)
  41 Pd     7.047468    2.479508   19.408570    ( 0.0000,  0.0000,  0.0000)
  42 Pt     2.829946    4.883965   19.357181    ( 0.0000,  0.0000,  0.0000)
  43 Pd     5.679490    4.886465   19.519699    ( 0.0000,  0.0000,  0.0000)
  44 Ru     8.412328    5.000840   19.209046    ( 0.0000,  0.0000,  0.0000)
  45 O      1.376911    2.397656   21.373405    ( 0.0000,  0.0000,  0.0000)
  46 H      2.109737    3.135668   21.837040    ( 0.0000,  0.0000,  0.0000)

Unit cell:
           periodic     x           y           z      points  spacing
  1. axis:    yes    8.379498    0.000000    0.000000    35     0.2073
  2. axis:    yes    4.189749    7.256858    0.000000    35     0.2073
  3. axis:    no     0.000000    0.000000   29.243062   135     0.2166

  Lengths:   8.379498   8.379498  29.243062
  Angles:   90.000000  90.000000  60.000000

Effective grid spacing dv^(1/3) = 0.2207

                     log10-error:    total        iterations:
           time      wfs    density  energy       fermi  poisson
iter:   1  02:20:46  -1.78   +inf  -188.622410    4             
iter:   2  02:21:52  -1.43  -1.90  -284.649401    36            
iter:   3  02:22:59  -1.86  -1.28  -189.350467    38            
iter:   4  02:24:07  -2.75  -1.93  -185.717386    4             
iter:   5  02:25:14  -3.27  -2.30  -185.161479    3             
iter:   6  02:26:20  -3.41  -2.62  -185.431974    3             
iter:   7  02:27:27  -3.37  -2.32  -185.796961    3             
iter:   8  02:28:34  -3.29  -2.25  -185.062527    3             
iter:   9  02:29:41  -3.89  -2.66  -184.947229    3             
iter:  10  02:30:47  -4.58  -2.94  -184.933661    2             
iter:  11  02:31:54  -4.83  -3.11  -184.941235    2             
iter:  12  02:33:01  -4.77  -2.99  -184.938325    2             
iter:  13  02:34:07  -4.73  -2.97  -184.921906    3             
iter:  14  02:35:14  -4.92  -3.39  -184.920496    2             
iter:  15  02:36:21  -5.41  -3.46  -184.918944    2             
iter:  16  02:37:27  -5.17  -3.55  -184.920802    2             
iter:  17  02:38:34  -5.73  -3.52  -184.919701    2             
iter:  18  02:39:41  -5.99  -3.62  -184.919703    2             
iter:  19  02:40:47  -5.66  -3.71  -184.926152    2             
iter:  20  02:41:54  -6.21  -3.30  -184.919655    2             
iter:  21  02:43:01  -6.03  -3.88  -184.919103    2             
iter:  22  02:44:07  -6.27  -3.89  -184.920894    2             
iter:  23  02:45:14  -6.21  -3.76  -184.919634    2             
iter:  24  02:46:21  -7.05  -4.07  -184.919793    2             
iter:  25  02:47:28  -6.77  -4.13  -184.919646    2             
iter:  26  02:48:35  -6.54  -4.27  -184.919742    2             
iter:  27  02:49:42  -7.41  -4.31  -184.919560    2             

Converged after 27 iterations.

Dipole moment: (23.066683, 23.321777, -0.026848) |e|*Ang

Energy contributions relative to reference atoms: (reference = -9073466.092496)

Kinetic:       -168.565838
Potential:      +23.007894
External:        +0.000000
XC:             -33.881708
Entropy (-ST):   -2.020459
Local:           -4.469680
--------------------------
Free energy:   -185.929790
Extrapolated:  -184.919560

Fermi level: 0.92963

Showing only first 2 kpts
 Kpt  Band  Eigenvalues  Occupancy
  0   367      0.90840    0.13822
  0   368      0.92003    0.13099
  0   369      0.96602    0.10250
  0   370      0.99407    0.08606

  1   367      0.81569    0.18939
  1   368      0.84120    0.17693
  1   369      0.86509    0.16399
  1   370      0.89820    0.14449



Forces in eV/Ang:
  0 Pd    0.09839    0.51011   -0.42057
  1 Ag    0.10335    0.49262   -0.51670
  2 Pt   -0.23237    0.51659    0.83967
  3 Pd    0.10382    0.03592   -0.08050
  4 Pd    0.10951   -0.37178    0.20475
  5 Pt   -0.13736   -0.29694   -0.08547
  6 Pd   -0.16794   -0.40133   -0.05448
  7 Ag   -0.13042   -0.45482   -0.71131
  8 Pd   -0.22388   -0.29575    0.31093
  9 Ag    0.55144    0.20700    0.40365
 10 Ru    2.19932    1.29702    0.43646
 11 Ru   -1.88196    0.87774   -0.38235
 12 Pd    1.11348   -0.24555    0.03276
 13 Ru   -0.55582   -1.47927   -0.86740
 14 Ag   -0.42255    0.15693    0.27387
 15 Pd    0.18847   -0.59477    0.09924
 16 Ag   -0.17639   -0.37272    0.36222
 17 Pd   -0.36974    0.53299    0.01098
 18 Ag   -0.03445    0.02895    0.04006
 19 Ag   -0.03890    0.02284    0.02659
 20 Pt    0.04609    0.03081   -0.01010
 21 Ag    0.00245   -0.00225    0.03191
 22 Ag    0.00161   -0.00038   -0.01277
 23 Ag   -0.00069   -0.04761    0.02892
 24 Pd    0.01478   -0.02712   -0.01876
 25 Pd   -0.01780   -0.02133    0.00141
 26 Ag   -0.00750   -0.05179    0.03167
 27 Pt   -0.07983   -0.07696    0.01835
 28 Pd    0.05422    0.00232    0.12526
 29 Pd   -0.04646   -0.00402   -0.06931
 30 Pd    0.03811    0.07051    0.14801
 31 Ru    0.04076    0.02375   -0.09624
 32 Pt   -0.04621    0.07898    0.01693
 33 Ag   -0.00914    0.01962   -0.10502
 34 Pt    0.04876   -0.05459    0.01113
 35 Ru    0.00967    0.02980   -0.02295
 36 Pd    0.01267    0.09628   -0.01362
 37 Ru    0.00025   -0.04592    0.01855
 38 Pd   -0.03034    0.01054   -0.00013
 39 Pt    0.09900    0.07408   -4.63806
 40 Pd   -0.02297    0.04223   -0.03463
 41 Pd    0.10014   -0.00587    0.00471
 42 Pt   -0.04099   -0.08293    0.09343
 43 Pd    0.01520   -0.00965   -0.04365
 44 Ru   -0.02291   -0.02053    0.03660
 45 O     2.24612    2.34222    6.29471
 46 H    -2.49833   -2.49976   -1.57737

System changes: positions 

Initializing position-dependent things.

Density initialized from wave functions
                                             
                                             
                                             
                                             
                                             
                                             
              H                              
            O                                
                 Pt      Pd    Ru            
                                             
             Pt   APd    PPd    Ru           
        Pd           Pd    Pt                
              Ru                             
        Pt     Pd    PPd    Pd     Ag        
                                             
                Ag     Ag     Ag             
                                             
           Ag    PAg    APt    Pd            
                                             
            Pd     Ru     Ag     Pd          
       Ag    PRu    PRu    Pt                
                                             
        Pd     Ag     Pt                     
                                             
                                             
                                             
                                             
                                             

Positions:
   0 Pd     0.000000    1.633958   10.000000    ( 0.0000,  0.0000,  0.0000)
   1 Ag     2.830098    1.633958   10.000000    ( 0.0000,  0.0000,  0.0000)
   2 Pt     5.660196    1.633958   10.000000    ( 0.0000,  0.0000,  0.0000)
   3 Pd     1.415049    4.084895   10.000000    ( 0.0000,  0.0000,  0.0000)
   4 Pd     4.245147    4.084895   10.000000    ( 0.0000,  0.0000,  0.0000)
   5 Pt     7.075245    4.084895   10.000000    ( 0.0000,  0.0000,  0.0000)
   6 Pd     2.830098    6.535832   10.000000    ( 0.0000,  0.0000,  0.0000)
   7 Ag     5.660196    6.535832   10.000000    ( 0.0000,  0.0000,  0.0000)
   8 Pd     8.490294    6.535832   10.000000    ( 0.0000,  0.0000,  0.0000)
   9 Ag     0.000000    0.000000   12.310765    ( 0.0000,  0.0000,  0.0000)
  10 Ru     2.830098    0.000000   12.310765    ( 0.0000,  0.0000,  0.0000)
  11 Ru     5.660196    0.000000   12.310765    ( 0.0000,  0.0000,  0.0000)
  12 Pd     1.415049    2.450937   12.310765    ( 0.0000,  0.0000,  0.0000)
  13 Ru     4.245147    2.450937   12.310765    ( 0.0000,  0.0000,  0.0000)
  14 Ag     7.075245    2.450937   12.310765    ( 0.0000,  0.0000,  0.0000)
  15 Pd     2.830098    4.901874   12.310765    ( 0.0000,  0.0000,  0.0000)
  16 Ag     5.660196    4.901874   12.310765    ( 0.0000,  0.0000,  0.0000)
  17 Pd     8.490294    4.901874   12.310765    ( 0.0000,  0.0000,  0.0000)
  18 Ag     1.422336    0.836950   14.689154    ( 0.0000,  0.0000,  0.0000)
  19 Ag     4.227301    0.833418   14.670425    ( 0.0000,  0.0000,  0.0000)
  20 Pt     6.997276    0.829186   14.669744    ( 0.0000,  0.0000,  0.0000)
  21 Ag     2.849409    3.274930   14.700194    ( 0.0000,  0.0000,  0.0000)
  22 Ag     5.608336    3.275082   14.715277    ( 0.0000,  0.0000,  0.0000)
  23 Ag     8.407557    3.278737   14.704702    ( 0.0000,  0.0000,  0.0000)
  24 Pd     4.227176    5.665549   14.784884    ( 0.0000,  0.0000,  0.0000)
  25 Pd     7.023755    5.719518   14.699700    ( 0.0000,  0.0000,  0.0000)
  26 Ag     9.809585    5.687917   14.692493    ( 0.0000,  0.0000,  0.0000)
  27 Pt     0.035554    1.661312   17.066194    ( 0.0000,  0.0000,  0.0000)
  28 Pd     2.856976    1.670050   17.086991    ( 0.0000,  0.0000,  0.0000)
  29 Pd     5.587499    1.663526   17.075684    ( 0.0000,  0.0000,  0.0000)
  30 Pd     1.450987    4.077974   17.059124    ( 0.0000,  0.0000,  0.0000)
  31 Ru     4.286812    4.069381   17.295811    ( 0.0000,  0.0000,  0.0000)
  32 Pt     6.978485    4.085909   17.095290    ( 0.0000,  0.0000,  0.0000)
  33 Ag     2.791940    6.505590   17.069435    ( 0.0000,  0.0000,  0.0000)
  34 Pt     5.615953    6.452990   17.090508    ( 0.0000,  0.0000,  0.0000)
  35 Ru     8.288042    6.444722   17.189666    ( 0.0000,  0.0000,  0.0000)
  36 Pd     0.105761    0.027224   19.429064    ( 0.0000,  0.0000,  0.0000)
  37 Ru     2.915536   -0.064121   19.215217    ( 0.0000,  0.0000,  0.0000)
  38 Pd     5.609269    0.004075   19.432683    ( 0.0000,  0.0000,  0.0000)
  39 Pt     1.457700    2.466563   19.465148    ( 0.0000,  0.0000,  0.0000)
  40 Pd     4.220016    2.426096   19.459311    ( 0.0000,  0.0000,  0.0000)
  41 Pd     7.068783    2.482864   19.412791    ( 0.0000,  0.0000,  0.0000)
  42 Pt     2.819726    4.852837   19.375401    ( 0.0000,  0.0000,  0.0000)
  43 Pd     5.683801    4.887519   19.521007    ( 0.0000,  0.0000,  0.0000)
  44 Ru     8.423212    4.992324   19.205020    ( 0.0000,  0.0000,  0.0000)
  45 O      1.437773    2.456007   21.466258    ( 0.0000,  0.0000,  0.0000)
  46 H      2.080011    3.100313   21.884209    ( 0.0000,  0.0000,  0.0000)

Unit cell:
           periodic     x           y           z      points  spacing
  1. axis:    yes    8.379498    0.000000    0.000000    35     0.2073
  2. axis:    yes    4.189749    7.256858    0.000000    35     0.2073
  3. axis:    no     0.000000    0.000000   29.243062   135     0.2166

  Lengths:   8.379498   8.379498  29.243062
  Angles:   90.000000  90.000000  60.000000

Effective grid spacing dv^(1/3) = 0.2207

                     log10-error:    total        iterations:
           time      wfs    density  energy       fermi  poisson
iter:   1  02:51:16  -1.95   +inf  -186.751847    4             
iter:   2  02:52:22  -2.13  -2.18  -217.835049    37            
iter:   3  02:53:31  -2.43  -1.53  -186.094801    33            
iter:   4  02:54:39  -3.49  -2.48  -185.875734    3             
iter:   5  02:55:47  -3.79  -2.61  -185.864819    3             
iter:   6  02:56:56  -3.68  -2.57  -185.716426    2             
iter:   7  02:58:04  -3.70  -2.95  -185.717125    3             
iter:   8  02:58:57  -4.14  -2.79  -185.671540    3             
iter:   9  02:59:51  -4.58  -3.02  -185.662022    2             
iter:  10  03:00:44  -4.55  -3.16  -185.696594    2             
iter:  11  03:01:37  -4.94  -2.79  -185.658988    2             
iter:  12  03:02:31  -5.47  -3.18  -185.652770    2             
iter:  13  03:03:24  -5.66  -3.45  -185.651805    2             
iter:  14  03:04:18  -5.75  -3.49  -185.651677    2             
iter:  15  03:05:11  -5.72  -3.58  -185.653530    2             
iter:  16  03:06:04  -5.89  -3.59  -185.652334    2             
iter:  17  03:06:58  -6.06  -3.43  -185.651100    2             
iter:  18  03:07:51  -6.00  -3.76  -185.653842    2             
iter:  19  03:08:45  -5.88  -3.66  -185.651582    2             
iter:  20  03:09:39  -6.19  -3.85  -185.650954    2             
iter:  21  03:10:36  -6.53  -3.92  -185.651451    2             
iter:  22  03:11:34  -6.70  -3.97  -185.651318    2             
iter:  23  03:12:33  -6.80  -3.82  -185.650639    2             
iter:  24  03:13:32  -6.39  -3.92  -185.652451    2             
iter:  25  03:14:32  -6.67  -3.76  -185.651218    2             
iter:  26  03:15:33  -7.07  -4.15  -185.650899    2             
iter:  27  03:16:39  -7.33  -4.19  -185.651003    2             
iter:  28  03:17:42  -7.33  -4.26  -185.651258    2             
iter:  29  03:18:47  -6.97  -4.28  -185.650625    2             
iter:  30  03:19:56  -7.36  -4.09  -185.650956    2             
iter:  31  03:21:04  -7.43  -4.29  -185.650909    2             

Converged after 31 iterations.

Dipole moment: (21.115893, 22.474050, -0.168584) |e|*Ang

Energy contributions relative to reference atoms: (reference = -9073466.092496)

Kinetic:       -175.390998
Potential:      +29.234465
External:        +0.000000
XC:             -34.059207
Entropy (-ST):   -2.019169
Local:           -4.425585
--------------------------
Free energy:   -186.660494
Extrapolated:  -185.650909

Fermi level: 0.85758

Showing only first 2 kpts
 Kpt  Band  Eigenvalues  Occupancy
  0   367      0.83678    0.13795
  0   368      0.84870    0.13054
  0   369      0.89472    0.10205
  0   370      0.92388    0.08502

  1   367      0.73317    0.19407
  1   368      0.76702    0.17802
  1   369      0.79026    0.16555
  1   370      0.82576    0.14472



Forces in eV/Ang:
  0 Pd    0.09839    0.50999   -0.42177
  1 Ag    0.10287    0.49263   -0.51726
  2 Pt   -0.22881    0.51677    0.83802
  3 Pd    0.10288    0.03601   -0.08152
  4 Pd    0.10878   -0.37144    0.20283
  5 Pt   -0.13654   -0.29521   -0.08703
  6 Pd   -0.16768   -0.39956   -0.05403
  7 Ag   -0.12957   -0.45447   -0.71395
  8 Pd   -0.22934   -0.30090    0.31018
  9 Ag    0.53081    0.21333    0.42297
 10 Ru    2.20495    1.29678    0.42661
 11 Ru   -1.87876    0.87822   -0.41669
 12 Pd    1.11499   -0.24645    0.02122
 13 Ru   -0.54991   -1.48319   -0.87461
 14 Ag   -0.43159    0.13934    0.28669
 15 Pd    0.18671   -0.58831    0.08854
 16 Ag   -0.18399   -0.37798    0.35171
 17 Pd   -0.36645    0.53397   -0.00477
 18 Ag   -0.01820    0.01948    0.02200
 19 Ag   -0.02364    0.00668    0.02584
 20 Pt   -0.00711   -0.02157   -0.07436
 21 Ag    0.00243    0.00045    0.02745
 22 Ag    0.00871   -0.00584   -0.01207
 23 Ag    0.00011   -0.01570    0.02251
 24 Pd    0.00820   -0.00570   -0.00128
 25 Pd    0.01279    0.00655    0.02729
 26 Ag   -0.00586   -0.02694    0.02533
 27 Pt    0.04905    0.05146    0.17604
 28 Pd   -0.06559    0.03434    0.12321
 29 Pd    0.00356   -0.04492   -0.04705
 30 Pd    0.01026   -0.06654    0.11122
 31 Ru    0.00420   -0.00259   -0.06732
 32 Pt    0.00098   -0.02161   -0.01005
 33 Ag   -0.00518    0.04384   -0.05803
 34 Pt    0.00320    0.01186   -0.02574
 35 Ru    0.00261    0.01557   -0.00680
 36 Pd   -0.03619   -0.03947   -0.05290
 37 Ru   -0.00757   -0.03702    0.03278
 38 Pd    0.01970    0.03314    0.00192
 39 Pt    0.10456    0.05866   -0.07472
 40 Pd    0.09381   -0.00187   -0.06992
 41 Pd   -0.06855   -0.02925   -0.04677
 42 Pt    0.04301    0.13518   -0.08329
 43 Pd   -0.01511   -0.00329   -0.03142
 44 Ru   -0.05738    0.02754    0.01611
 45 O     0.10820    0.12677    0.50999
 46 H    -0.28602   -0.25597   -0.56734

System changes: positions 

Initializing position-dependent things.

Density initialized from wave functions
                                             
                                             
                                             
                                             
                                             
                                             
              H                              
            O                                
                 Pt      Pd    Ru            
             Pt   APd    PPd    Ru           
                                             
        Pd    Ru     Pd    Pt                
                                             
         Pt    Pd    PPd    Pd     Ag        
                Ag     Ag     Ag             
                                             
           Ag    PAg    APt    Pd            
                                             
            Pd     Ru     Ag     Pd          
       Ag     Ru     Ru                      
             Pd     Pd     Pt                
        Pd     Ag     Pt                     
                                             
                                             
                                             
                                             
                                             

Positions:
   0 Pd     0.000000    1.633958   10.000000    ( 0.0000,  0.0000,  0.0000)
   1 Ag     2.830098    1.633958   10.000000    ( 0.0000,  0.0000,  0.0000)
   2 Pt     5.660196    1.633958   10.000000    ( 0.0000,  0.0000,  0.0000)
   3 Pd     1.415049    4.084895   10.000000    ( 0.0000,  0.0000,  0.0000)
   4 Pd     4.245147    4.084895   10.000000    ( 0.0000,  0.0000,  0.0000)
   5 Pt     7.075245    4.084895   10.000000    ( 0.0000,  0.0000,  0.0000)
   6 Pd     2.830098    6.535832   10.000000    ( 0.0000,  0.0000,  0.0000)
   7 Ag     5.660196    6.535832   10.000000    ( 0.0000,  0.0000,  0.0000)
   8 Pd     8.490294    6.535832   10.000000    ( 0.0000,  0.0000,  0.0000)
   9 Ag     0.000000    0.000000   12.310765    ( 0.0000,  0.0000,  0.0000)
  10 Ru     2.830098    0.000000   12.310765    ( 0.0000,  0.0000,  0.0000)
  11 Ru     5.660196    0.000000   12.310765    ( 0.0000,  0.0000,  0.0000)
  12 Pd     1.415049    2.450937   12.310765    ( 0.0000,  0.0000,  0.0000)
  13 Ru     4.245147    2.450937   12.310765    ( 0.0000,  0.0000,  0.0000)
  14 Ag     7.075245    2.450937   12.310765    ( 0.0000,  0.0000,  0.0000)
  15 Pd     2.830098    4.901874   12.310765    ( 0.0000,  0.0000,  0.0000)
  16 Ag     5.660196    4.901874   12.310765    ( 0.0000,  0.0000,  0.0000)
  17 Pd     8.490294    4.901874   12.310765    ( 0.0000,  0.0000,  0.0000)
  18 Ag     1.419853    0.839679   14.692574    ( 0.0000,  0.0000,  0.0000)
  19 Ag     4.224097    0.834092   14.674380    ( 0.0000,  0.0000,  0.0000)
  20 Pt     6.995325    0.825108   14.658130    ( 0.0000,  0.0000,  0.0000)
  21 Ag     2.849663    3.274975   14.704523    ( 0.0000,  0.0000,  0.0000)
  22 Ag     5.609794    3.274147   14.713646    ( 0.0000,  0.0000,  0.0000)
  23 Ag     8.407611    3.276839   14.708313    ( 0.0000,  0.0000,  0.0000)
  24 Pd     4.228320    5.665127   14.785107    ( 0.0000,  0.0000,  0.0000)
  25 Pd     7.026004    5.720849   14.704315    ( 0.0000,  0.0000,  0.0000)
  26 Ag     9.808721    5.684417   14.696294    ( 0.0000,  0.0000,  0.0000)
  27 Pt     0.045364    1.670967   17.094501    ( 0.0000,  0.0000,  0.0000)
  28 Pd     2.844691    1.676253   17.106304    ( 0.0000,  0.0000,  0.0000)
  29 Pd     5.588737    1.656631   17.069302    ( 0.0000,  0.0000,  0.0000)
  30 Pd     1.452209    4.065074   17.076380    ( 0.0000,  0.0000,  0.0000)
  31 Ru     4.286194    4.067985   17.286534    ( 0.0000,  0.0000,  0.0000)
  32 Pt     6.980222    4.080953   17.093881    ( 0.0000,  0.0000,  0.0000)
  33 Ag     2.791448    6.512433   17.061543    ( 0.0000,  0.0000,  0.0000)
  34 Pt     5.616069    6.456812   17.086535    ( 0.0000,  0.0000,  0.0000)
  35 Ru     8.288019    6.446793   17.188939    ( 0.0000,  0.0000,  0.0000)
  36 Pd     0.099824    0.019386   19.422436    ( 0.0000,  0.0000,  0.0000)
  37 Ru     2.914581   -0.069694   19.221344    ( 0.0000,  0.0000,  0.0000)
  38 Pd     5.612646    0.009239   19.434656    ( 0.0000,  0.0000,  0.0000)
  39 Pt     1.475095    2.476008   19.488428    ( 0.0000,  0.0000,  0.0000)
  40 Pd     4.235778    2.425312   19.448836    ( 0.0000,  0.0000,  0.0000)
  41 Pd     7.055945    2.478686   19.407068    ( 0.0000,  0.0000,  0.0000)
  42 Pt     2.827278    4.875711   19.361495    ( 0.0000,  0.0000,  0.0000)
  43 Pd     5.681074    4.886716   19.517996    ( 0.0000,  0.0000,  0.0000)
  44 Ru     8.414094    4.997196   19.208124    ( 0.0000,  0.0000,  0.0000)
  45 O      1.418657    2.439603   21.482556    ( 0.0000,  0.0000,  0.0000)
  46 H      2.071857    3.096868   21.820318    ( 0.0000,  0.0000,  0.0000)

Unit cell:
           periodic     x           y           z      points  spacing
  1. axis:    yes    8.379498    0.000000    0.000000    35     0.2073
  2. axis:    yes    4.189749    7.256858    0.000000    35     0.2073
  3. axis:    no     0.000000    0.000000   29.243062   135     0.2166

  Lengths:   8.379498   8.379498  29.243062
  Angles:   90.000000  90.000000  60.000000

Effective grid spacing dv^(1/3) = 0.2207

                     log10-error:    total        iterations:
           time      wfs    density  energy       fermi  poisson
iter:   1  03:22:43  -2.65   +inf  -186.457594    3             
iter:   2  03:23:52  -2.12  -2.24  -218.604602    37            
iter:   3  03:25:01  -2.44  -1.53  -186.204105    37            
iter:   4  03:26:09  -3.50  -2.41  -185.840438    3             
iter:   5  03:27:08  -4.11  -2.61  -185.696696    2             
iter:   6  03:28:07  -4.71  -3.17  -185.699360    2             
iter:   7  03:29:05  -5.35  -3.07  -185.693779    2             
iter:   8  03:30:04  -4.87  -3.23  -185.695776    2             
iter:   9  03:31:03  -5.08  -3.09  -185.687185    2             
iter:  10  03:32:03  -5.56  -3.56  -185.686771    2             
iter:  11  03:33:02  -5.86  -3.39  -185.686373    2             
iter:  12  03:34:01  -5.60  -3.64  -185.684776    2             
iter:  13  03:34:59  -6.01  -3.65  -185.685662    2             
iter:  14  03:35:58  -6.43  -3.88  -185.685365    2             
iter:  15  03:36:57  -6.59  -3.89  -185.685559    2             
iter:  16  03:37:56  -6.79  -3.90  -185.685113    2             
iter:  17  03:38:55  -6.78  -3.96  -185.685761    2             
iter:  18  03:39:54  -6.70  -4.08  -185.685112    2             
iter:  19  03:40:48  -7.07  -4.43  -185.685502    2             
iter:  20  03:41:44  -7.60  -4.22  -185.685327    2             

Converged after 20 iterations.

Dipole moment: (21.935709, 23.007819, -0.199301) |e|*Ang

Energy contributions relative to reference atoms: (reference = -9073466.092496)

Kinetic:       -174.600358
Potential:      +28.568056
External:        +0.000000
XC:             -34.236667
Entropy (-ST):   -2.023146
Local:           -4.404786
--------------------------
Free energy:   -186.696901
Extrapolated:  -185.685327

Fermi level: 0.84572

Showing only first 2 kpts
 Kpt  Band  Eigenvalues  Occupancy
  0   367      0.82428    0.13835
  0   368      0.83525    0.13153
  0   369      0.88309    0.10191
  0   370      0.91322    0.08434

  1   367      0.72327    0.19321
  1   368      0.75461    0.17830
  1   369      0.77743    0.16610
  1   370      0.81384    0.14475



Forces in eV/Ang:
  0 Pd    0.09569    0.50983   -0.42084
  1 Ag    0.10261    0.49295   -0.51975
  2 Pt   -0.22797    0.51676    0.84012
  3 Pd    0.10195    0.03654   -0.08394
  4 Pd    0.10961   -0.37150    0.20190
  5 Pt   -0.13658   -0.29772   -0.08857
  6 Pd   -0.16863   -0.39861   -0.05238
  7 Ag   -0.13061   -0.45453   -0.71424
  8 Pd   -0.22637   -0.30048    0.30708
  9 Ag    0.54247    0.20904    0.40594
 10 Ru    2.20434    1.29780    0.43861
 11 Ru   -1.87692    0.87914   -0.39939
 12 Pd    1.11300   -0.24698    0.02891
 13 Ru   -0.54954   -1.48489   -0.86737
 14 Ag   -0.42766    0.14875    0.27275
 15 Pd    0.18823   -0.58815    0.09807
 16 Ag   -0.17967   -0.37497    0.35835
 17 Pd   -0.36803    0.53467    0.00501
 18 Ag   -0.01559    0.01564    0.04286
 19 Ag   -0.02323    0.00887    0.02342
 20 Pt   -0.00383    0.00132   -0.02344
 21 Ag    0.00146   -0.00412    0.03855
 22 Ag    0.00248   -0.00812   -0.01650
 23 Ag    0.00194   -0.02692    0.04208
 24 Pd    0.00911   -0.01624   -0.01607
 25 Pd   -0.00481   -0.00250    0.00734
 26 Ag   -0.00747   -0.02910    0.02846
 27 Pt   -0.04483   -0.03982    0.01318
 28 Pd    0.04762   -0.01402    0.08233
 29 Pd   -0.02981   -0.01039   -0.05120
 30 Pd    0.01703    0.06379    0.08846
 31 Ru    0.01701    0.01870   -0.05809
 32 Pt   -0.02171    0.03581    0.01216
 33 Ag   -0.00475    0.01696   -0.06745
 34 Pt    0.02450   -0.02523    0.01431
 35 Ru   -0.00530    0.00500    0.02888
 36 Pd    0.01608    0.04213   -0.00394
 37 Ru    0.00242   -0.01023    0.02240
 38 Pd   -0.02098   -0.00184   -0.01310
 39 Pt   -0.08754   -0.07082   -0.10660
 40 Pd    0.00888    0.04252   -0.02377
 41 Pd    0.04219    0.00228    0.02327
 42 Pt    0.01295   -0.01369    0.00697
 43 Pd   -0.00593   -0.00355   -0.02860
 44 Ru   -0.00399    0.01411    0.02710
 45 O    -0.12310   -0.12947    0.06739
 46 H     0.07494    0.10292   -0.04824

System changes: positions 

Initializing position-dependent things.

Density initialized from wave functions
                                             
                                             
                                             
                                             
                                             
                                             
              H                              
            O                                
                 Pt      Pd    Ru            
             Pt   APd    PPd    Ru           
                                             
        Pd    Ru     Pd    Pt                
                                             
        Pt     Pd    PPd    Pd     Ag        
                Ag     Ag     Ag             
                                             
           Ag    PAg    APt    Pd            
                                             
            Pd     Ru     Ag     Pd          
       Ag     Ru     Ru                      
             Pd     Pd     Pt                
        Pd     Ag     Pt                     
                                             
                                             
                                             
                                             
                                             

Positions:
   0 Pd     0.000000    1.633958   10.000000    ( 0.0000,  0.0000,  0.0000)
   1 Ag     2.830098    1.633958   10.000000    ( 0.0000,  0.0000,  0.0000)
   2 Pt     5.660196    1.633958   10.000000    ( 0.0000,  0.0000,  0.0000)
   3 Pd     1.415049    4.084895   10.000000    ( 0.0000,  0.0000,  0.0000)
   4 Pd     4.245147    4.084895   10.000000    ( 0.0000,  0.0000,  0.0000)
   5 Pt     7.075245    4.084895   10.000000    ( 0.0000,  0.0000,  0.0000)
   6 Pd     2.830098    6.535832   10.000000    ( 0.0000,  0.0000,  0.0000)
   7 Ag     5.660196    6.535832   10.000000    ( 0.0000,  0.0000,  0.0000)
   8 Pd     8.490294    6.535832   10.000000    ( 0.0000,  0.0000,  0.0000)
   9 Ag     0.000000    0.000000   12.310765    ( 0.0000,  0.0000,  0.0000)
  10 Ru     2.830098    0.000000   12.310765    ( 0.0000,  0.0000,  0.0000)
  11 Ru     5.660196    0.000000   12.310765    ( 0.0000,  0.0000,  0.0000)
  12 Pd     1.415049    2.450937   12.310765    ( 0.0000,  0.0000,  0.0000)
  13 Ru     4.245147    2.450937   12.310765    ( 0.0000,  0.0000,  0.0000)
  14 Ag     7.075245    2.450937   12.310765    ( 0.0000,  0.0000,  0.0000)
  15 Pd     2.830098    4.901874   12.310765    ( 0.0000,  0.0000,  0.0000)
  16 Ag     5.660196    4.901874   12.310765    ( 0.0000,  0.0000,  0.0000)
  17 Pd     8.490294    4.901874   12.310765    ( 0.0000,  0.0000,  0.0000)
  18 Ag     1.417849    0.841713   14.697822    ( 0.0000,  0.0000,  0.0000)
  19 Ag     4.221106    0.835051   14.677536    ( 0.0000,  0.0000,  0.0000)
  20 Pt     6.994271    0.824350   14.653481    ( 0.0000,  0.0000,  0.0000)
  21 Ag     2.849858    3.274510   14.709454    ( 0.0000,  0.0000,  0.0000)
  22 Ag     5.610376    3.273033   14.711615    ( 0.0000,  0.0000,  0.0000)
  23 Ag     8.407806    3.273724   14.713660    ( 0.0000,  0.0000,  0.0000)
  24 Pd     4.229502    5.663453   14.783479    ( 0.0000,  0.0000,  0.0000)
  25 Pd     7.025980    5.720974   14.706054    ( 0.0000,  0.0000,  0.0000)
  26 Ag     9.807739    5.680828   14.700023    ( 0.0000,  0.0000,  0.0000)
  27 Pt     0.041668    1.668171   17.099703    ( 0.0000,  0.0000,  0.0000)
  28 Pd     2.848255    1.675304   17.117693    ( 0.0000,  0.0000,  0.0000)
  29 Pd     5.585934    1.654175   17.062787    ( 0.0000,  0.0000,  0.0000)
  30 Pd     1.454081    4.070414   17.087974    ( 0.0000,  0.0000,  0.0000)
  31 Ru     4.288143    4.069949   17.278762    ( 0.0000,  0.0000,  0.0000)
  32 Pt     6.978110    4.083888   17.094972    ( 0.0000,  0.0000,  0.0000)
  33 Ag     2.790868    6.515488   17.053232    ( 0.0000,  0.0000,  0.0000)
  34 Pt     5.618615    6.454610   17.087442    ( 0.0000,  0.0000,  0.0000)
  35 Ru     8.287322    6.447527   17.192526    ( 0.0000,  0.0000,  0.0000)
  36 Pd     0.100500    0.021751   19.420782    ( 0.0000,  0.0000,  0.0000)
  37 Ru     2.915040   -0.071910   19.224621    ( 0.0000,  0.0000,  0.0000)
  38 Pd     5.610807    0.009518   19.433200    ( 0.0000,  0.0000,  0.0000)
  39 Pt     1.469385    2.470202   19.489932    ( 0.0000,  0.0000,  0.0000)
  40 Pd     4.239092    2.429755   19.444741    ( 0.0000,  0.0000,  0.0000)
  41 Pd     7.057602    2.478535   19.408623    ( 0.0000,  0.0000,  0.0000)
  42 Pt     2.829915    4.878381   19.359855    ( 0.0000,  0.0000,  0.0000)
  43 Pd     5.679822    4.886315   19.514076    ( 0.0000,  0.0000,  0.0000)
  44 Ru     8.412191    5.000120   19.211401    ( 0.0000,  0.0000,  0.0000)
  45 O      1.409087    2.429668   21.490787    ( 0.0000,  0.0000,  0.0000)
  46 H      2.071713    3.100574   21.800244    ( 0.0000,  0.0000,  0.0000)

Unit cell:
           periodic     x           y           z      points  spacing
  1. axis:    yes    8.379498    0.000000    0.000000    35     0.2073
  2. axis:    yes    4.189749    7.256858    0.000000    35     0.2073
  3. axis:    no     0.000000    0.000000   29.243062   135     0.2166

  Lengths:   8.379498   8.379498  29.243062
  Angles:   90.000000  90.000000  60.000000

Effective grid spacing dv^(1/3) = 0.2207

                     log10-error:    total        iterations:
           time      wfs    density  energy       fermi  poisson
iter:   1  03:43:04  -3.30   +inf  -185.810806    3             
iter:   2  03:44:13  -3.08  -2.70  -190.277646    3             
iter:   3  03:45:21  -3.34  -1.89  -185.704728    3             
iter:   4  03:46:29  -4.38  -3.28  -185.701441    2             
iter:   5  03:47:37  -5.20  -3.11  -185.693587    2             
iter:   6  03:48:46  -5.58  -3.56  -185.690526    2             
iter:   7  03:49:55  -5.95  -3.61  -185.693581    2             
iter:   8  03:51:03  -6.53  -3.46  -185.691677    2             
iter:   9  03:52:06  -6.05  -3.74  -185.690490    2             
iter:  10  03:52:59  -6.08  -3.81  -185.690781    2             
iter:  11  03:53:52  -6.55  -3.86  -185.690873    2             
iter:  12  03:54:45  -6.60  -3.92  -185.690001    2             
iter:  13  03:55:38  -7.08  -3.97  -185.690399    2             
iter:  14  03:56:31  -6.96  -4.09  -185.690789    2             
iter:  15  03:57:31  -7.28  -4.20  -185.690186    2             
iter:  16  03:58:29  -7.48  -4.16  -185.690293    2             

Converged after 16 iterations.

Dipole moment: (22.224053, 23.035450, -0.213467) |e|*Ang

Energy contributions relative to reference atoms: (reference = -9073466.092496)

Kinetic:       -174.296297
Potential:      +28.239659
External:        +0.000000
XC:             -34.202882
Entropy (-ST):   -2.023446
Local:           -4.419051
--------------------------
Free energy:   -186.702016
Extrapolated:  -185.690293

Fermi level: 0.84007

Showing only first 2 kpts
 Kpt  Band  Eigenvalues  Occupancy
  0   367      0.81923    0.13798
  0   368      0.82955    0.13157
  0   369      0.87727    0.10201
  0   370      0.90710    0.08461

  1   367      0.71739    0.19332
  1   368      0.74984    0.17786
  1   369      0.77178    0.16610
  1   370      0.80986    0.14374



Forces in eV/Ang:
  0 Pd    0.09917    0.51186   -0.41923
  1 Ag    0.10292    0.49349   -0.51416
  2 Pt   -0.23181    0.51716    0.84451
  3 Pd    0.10248    0.03401   -0.07716
  4 Pd    0.10938   -0.37291    0.20600
  5 Pt   -0.13651   -0.29653   -0.08404
  6 Pd   -0.16889   -0.39998   -0.04992
  7 Ag   -0.12914   -0.45465   -0.71135
  8 Pd   -0.22817   -0.29938    0.31404
  9 Ag    0.56021    0.20717    0.40263
 10 Ru    2.20302    1.30115    0.45447
 11 Ru   -1.89544    0.86188   -0.39181
 12 Pd    1.12030   -0.24344    0.05379
 13 Ru   -0.56593   -1.48427   -0.86300
 14 Ag   -0.41851    0.16444    0.26771
 15 Pd    0.17895   -0.59791    0.11047
 16 Ag   -0.17389   -0.37143    0.35496
 17 Pd   -0.36398    0.53417    0.02703
 18 Ag   -0.00366    0.00272    0.03350
 19 Ag   -0.02043   -0.01681   -0.00948
 20 Pt   -0.00242   -0.00407   -0.00543
 21 Ag   -0.02267   -0.01128    0.02006
 22 Ag    0.01588   -0.00404   -0.02443
 23 Ag    0.00873   -0.00712    0.04166
 24 Pd    0.00718    0.00927   -0.03159
 25 Pd    0.00489   -0.00336   -0.02172
 26 Ag   -0.02141   -0.01634   -0.00855
 27 Pt   -0.00425    0.01480   -0.06049
 28 Pd   -0.02111    0.01138    0.01108
 29 Pd    0.01335    0.02761   -0.01258
 30 Pd   -0.01411   -0.00753    0.02272
 31 Ru   -0.02058    0.00539   -0.01019
 32 Pt    0.03082   -0.03111   -0.00762
 33 Ag    0.01324   -0.00379   -0.01587
 34 Pt   -0.01588    0.02613   -0.01422
 35 Ru    0.01485   -0.00084   -0.02387
 36 Pd   -0.00555   -0.00099    0.00571
 37 Ru   -0.01852    0.03660    0.03541
 38 Pd    0.01132    0.00846   -0.02008
 39 Pt   -0.02542   -0.01950   -0.02763
 40 Pd   -0.03147    0.04381    0.00490
 41 Pd    0.00742    0.01977    0.01949
 42 Pt   -0.00971   -0.06062    0.01134
 43 Pd   -0.02245   -0.01708   -0.01848
 44 Ru    0.02680   -0.04146    0.03068
 45 O     0.18354    0.16160   -0.01683
 46 H    -0.10971   -0.07902   -0.07071

System changes: positions 

Initializing position-dependent things.

Density initialized from wave functions
                                             
                                             
                                             
                                             
                                             
                                             
              H                              
            O                                
                 Pt     Pd     Ru            
             Pt   APd    PPd    Ru           
                                             
        Pd    Ru     Pd    Pt                
                                             
        Pt     Pd    PPd    Pd     Ag        
                Ag     Ag     Ag             
                                             
           Ag    PAg    APt    Pd            
                                             
            Pd     Ru     Ag     Pd          
       Ag     Ru     Ru                      
             Pd     Pd     Pt                
        Pd     Ag     Pt                     
                                             
                                             
                                             
                                             
                                             

Positions:
   0 Pd     0.000000    1.633958   10.000000    ( 0.0000,  0.0000,  0.0000)
   1 Ag     2.830098    1.633958   10.000000    ( 0.0000,  0.0000,  0.0000)
   2 Pt     5.660196    1.633958   10.000000    ( 0.0000,  0.0000,  0.0000)
   3 Pd     1.415049    4.084895   10.000000    ( 0.0000,  0.0000,  0.0000)
   4 Pd     4.245147    4.084895   10.000000    ( 0.0000,  0.0000,  0.0000)
   5 Pt     7.075245    4.084895   10.000000    ( 0.0000,  0.0000,  0.0000)
   6 Pd     2.830098    6.535832   10.000000    ( 0.0000,  0.0000,  0.0000)
   7 Ag     5.660196    6.535832   10.000000    ( 0.0000,  0.0000,  0.0000)
   8 Pd     8.490294    6.535832   10.000000    ( 0.0000,  0.0000,  0.0000)
   9 Ag     0.000000    0.000000   12.310765    ( 0.0000,  0.0000,  0.0000)
  10 Ru     2.830098    0.000000   12.310765    ( 0.0000,  0.0000,  0.0000)
  11 Ru     5.660196    0.000000   12.310765    ( 0.0000,  0.0000,  0.0000)
  12 Pd     1.415049    2.450937   12.310765    ( 0.0000,  0.0000,  0.0000)
  13 Ru     4.245147    2.450937   12.310765    ( 0.0000,  0.0000,  0.0000)
  14 Ag     7.075245    2.450937   12.310765    ( 0.0000,  0.0000,  0.0000)
  15 Pd     2.830098    4.901874   12.310765    ( 0.0000,  0.0000,  0.0000)
  16 Ag     5.660196    4.901874   12.310765    ( 0.0000,  0.0000,  0.0000)
  17 Pd     8.490294    4.901874   12.310765    ( 0.0000,  0.0000,  0.0000)
  18 Ag     1.416826    0.842674   14.702593    ( 0.0000,  0.0000,  0.0000)
  19 Ag     4.218309    0.833955   14.677804    ( 0.0000,  0.0000,  0.0000)
  20 Pt     6.993808    0.823869   14.651670    ( 0.0000,  0.0000,  0.0000)
  21 Ag     2.847939    3.273364   14.712920    ( 0.0000,  0.0000,  0.0000)
  22 Ag     5.611909    3.272332   14.708781    ( 0.0000,  0.0000,  0.0000)
  23 Ag     8.408656    3.271979   14.719098    ( 0.0000,  0.0000,  0.0000)
  24 Pd     4.230521    5.663605   14.780115    ( 0.0000,  0.0000,  0.0000)
  25 Pd     7.026295    5.720625   14.704630    ( 0.0000,  0.0000,  0.0000)
  26 Ag     9.805551    5.678144   14.700551    ( 0.0000,  0.0000,  0.0000)
  27 Pt     0.040179    1.668398   17.096296    ( 0.0000,  0.0000,  0.0000)
  28 Pd     2.847573    1.676146   17.122870    ( 0.0000,  0.0000,  0.0000)
  29 Pd     5.585963    1.655959   17.059469    ( 0.0000,  0.0000,  0.0000)
  30 Pd     1.453582    4.071469   17.094342    ( 0.0000,  0.0000,  0.0000)
  31 Ru     4.286831    4.070979   17.275304    ( 0.0000,  0.0000,  0.0000)
  32 Pt     6.980165    4.082298   17.094766    ( 0.0000,  0.0000,  0.0000)
  33 Ag     2.791842    6.516079   17.048890    ( 0.0000,  0.0000,  0.0000)
  34 Pt     5.618213    6.456246   17.086640    ( 0.0000,  0.0000,  0.0000)
  35 Ru     8.288377    6.447724   17.191504    ( 0.0000,  0.0000,  0.0000)
  36 Pd     0.100437    0.023092   19.421086    ( 0.0000,  0.0000,  0.0000)
  37 Ru     2.913439   -0.069279   19.228987    ( 0.0000,  0.0000,  0.0000)
  38 Pd     5.611126    0.010450   19.431257    ( 0.0000,  0.0000,  0.0000)
  39 Pt     1.464188    2.465946   19.485986    ( 0.0000,  0.0000,  0.0000)
  40 Pd     4.237470    2.435218   19.443823    ( 0.0000,  0.0000,  0.0000)
  41 Pd     7.059418    2.480177   19.411234    ( 0.0000,  0.0000,  0.0000)
  42 Pt     2.829969    4.873505   19.360533    ( 0.0000,  0.0000,  0.0000)
  43 Pd     5.677519    4.884596   19.511476    ( 0.0000,  0.0000,  0.0000)
  44 Ru     8.414002    4.997197   19.215388    ( 0.0000,  0.0000,  0.0000)
  45 O      1.413876    2.432392   21.485963    ( 0.0000,  0.0000,  0.0000)
  46 H      2.070452    3.103288   21.793454    ( 0.0000,  0.0000,  0.0000)

Unit cell:
           periodic     x           y           z      points  spacing
  1. axis:    yes    8.379498    0.000000    0.000000    35     0.2073
  2. axis:    yes    4.189749    7.256858    0.000000    35     0.2073
  3. axis:    no     0.000000    0.000000   29.243062   135     0.2166

  Lengths:   8.379498   8.379498  29.243062
  Angles:   90.000000  90.000000  60.000000

Effective grid spacing dv^(1/3) = 0.2207

                     log10-error:    total        iterations:
           time      wfs    density  energy       fermi  poisson
iter:   1  03:59:55  -3.56   +inf  -186.060364    3             
iter:   2  04:00:53  -2.45  -2.41  -204.009204    4             
iter:   3  04:01:52  -2.73  -1.62  -185.856787    3             
iter:   4  04:02:50  -3.85  -2.70  -185.724146    3             
iter:   5  04:03:50  -4.54  -2.98  -185.696249    2             
iter:   6  04:04:49  -5.38  -3.41  -185.697863    2             
iter:   7  04:05:48  -5.95  -3.38  -185.694783    2             
iter:   8  04:06:47  -5.89  -3.71  -185.693073    2             
iter:   9  04:07:46  -6.44  -3.56  -185.692479    2             
iter:  10  04:08:45  -6.41  -3.84  -185.692429    2             
iter:  11  04:09:43  -6.50  -3.95  -185.692034    2             
iter:  12  04:10:42  -6.56  -3.88  -185.691837    2             
iter:  13  04:11:41  -7.03  -4.13  -185.692332    2             
iter:  14  04:12:40  -7.54  -4.27  -185.692048    2             

Converged after 14 iterations.

Dipole moment: (21.855658, 22.849565, -0.210961) |e|*Ang

Energy contributions relative to reference atoms: (reference = -9073466.092496)

Kinetic:       -174.691727
Potential:      +28.577450
External:        +0.000000
XC:             -34.184493
Entropy (-ST):   -2.025300
Local:           -4.380629
--------------------------
Free energy:   -186.704698
Extrapolated:  -185.692048

Fermi level: 0.84096

Showing only first 2 kpts
 Kpt  Band  Eigenvalues  Occupancy
  0   367      0.82018    0.13794
  0   368      0.83041    0.13159
  0   369      0.87861    0.10175
  0   370      0.90736    0.08496

  1   367      0.71861    0.19317
  1   368      0.75143    0.17750
  1   369      0.77300    0.16591
  1   370      0.81123    0.14345



Forces in eV/Ang:
  0 Pd    0.09918    0.51297   -0.41848
  1 Ag    0.10451    0.49292   -0.51287
  2 Pt   -0.23375    0.51555    0.84552
  3 Pd    0.10305    0.03306   -0.07781
  4 Pd    0.10888   -0.37525    0.20374
  5 Pt   -0.13536   -0.29778   -0.08574
  6 Pd   -0.16992   -0.39842   -0.05125
  7 Ag   -0.12812   -0.45297   -0.71250
  8 Pd   -0.22695   -0.29671    0.31603
  9 Ag    0.56201    0.21464    0.40239
 10 Ru    2.19779    1.30741    0.45215
 11 Ru   -1.89482    0.86351   -0.38966
 12 Pd    1.11848   -0.24402    0.06160
 13 Ru   -0.57139   -1.48433   -0.85776
 14 Ag   -0.41126    0.16325    0.26857
 15 Pd    0.17639   -0.60351    0.11410
 16 Ag   -0.17431   -0.37326    0.34688
 17 Pd   -0.36233    0.52633    0.02418
 18 Ag    0.01126   -0.01940   -0.00944
 19 Ag    0.00620   -0.00213   -0.00072
 20 Pt   -0.03334   -0.02271   -0.02071
 21 Ag    0.01809    0.00333    0.00759
 22 Ag   -0.01431    0.00279   -0.00963
 23 Ag   -0.00437    0.01230   -0.01118
 24 Pd   -0.00332   -0.01412   -0.00746
 25 Pd   -0.01405   -0.00790    0.00754
 26 Ag    0.00414    0.00987   -0.00515
 27 Pt   -0.01914   -0.01383    0.00781
 28 Pd    0.01630   -0.02427   -0.01601
 29 Pd   -0.00647    0.00142    0.01943
 30 Pd   -0.00266    0.01785   -0.02288
 31 Ru    0.02399    0.01829   -0.02485
 32 Pt   -0.02946    0.04517    0.01789
 33 Ag   -0.00419   -0.01035    0.02325
 34 Pt    0.03076   -0.03233    0.01868
 35 Ru   -0.02842   -0.00381    0.08634
 36 Pd   -0.02405   -0.03050    0.00096
 37 Ru    0.03466   -0.05707   -0.03639
 38 Pd   -0.01170   -0.01049   -0.03635
 39 Pt   -0.00323   -0.02687   -0.02583
 40 Pd    0.02523   -0.02747   -0.00803
 41 Pd   -0.02766   -0.00709    0.00480
 42 Pt    0.00164    0.04964   -0.01603
 43 Pd    0.02058    0.02762   -0.02573
 44 Ru   -0.04374    0.07272   -0.01722
 45 O     0.00622    0.01476   -0.07251
 46 H     0.01863    0.05857   -0.01064

Timing:                                      incl.     excl.
-------------------------------------------------------------------
Density initialized from wave functions:    24.991    24.991   0.2% |
 Symmetrize density:                         0.000     0.000   0.0% |
Forces:                                    134.881   134.881   1.1% |
Hamiltonian:                                19.997     0.078   0.0% |
 Atomic:                                     4.168     2.195   0.0% |
  XC Correction:                             1.973     1.973   0.0% |
 Calculate atomic Hamiltonians:              9.021     9.021   0.1% |
 Communicate:                                0.472     0.472   0.0% |
 Initialize Hamiltonian:                     0.001     0.001   0.0% |
 Poisson:                                    0.051     0.051   0.0% |
 XC 3D grid:                                 6.205     6.205   0.1% |
LCAO initialization:                        59.596     2.828   0.0% |
 LCAO eigensolver:                           7.535     0.004   0.0% |
  Calculate projections:                     0.073     0.073   0.0% |
  DenseAtomicCorrection:                     0.087     0.087   0.0% |
  Distribute overlap matrix:                 0.423     0.423   0.0% |
  Orbital Layouts:                           0.443     0.443   0.0% |
  Potential matrix:                          6.423     6.423   0.1% |
  Sum over cells:                            0.082     0.082   0.0% |
 LCAO to grid:                              47.491    47.491   0.4% |
 Set positions (LCAO WFS):                   1.741     0.776   0.0% |
  Basic WFS set positions:                   0.002     0.002   0.0% |
  Basis functions set positions:             0.000     0.000   0.0% |
  P tci:                                     0.417     0.417   0.0% |
  ST tci:                                    0.415     0.415   0.0% |
  mktci:                                     0.132     0.132   0.0% |
PWDescriptor:                                0.040     0.040   0.0% |
Redistribute:                                0.054     0.054   0.0% |
SCF-cycle:                               12033.438   619.835   5.0% |-|
 Davidson:                               10358.345  2417.879  19.6% |-------|
  Apply H:                                1689.574  1619.712  13.1% |----|
   HMM T:                                   69.862    69.862   0.6% |
  Subspace diag:                          1499.001     0.064   0.0% |
   calc_h_matrix:                          846.795   283.784   2.3% ||
    Apply H:                               563.011   539.529   4.4% |-|
     HMM T:                                 23.482    23.482   0.2% |
   diagonalize:                             24.889    24.889   0.2% |
   rotate_psi:                             627.252   627.252   5.1% |-|
  calc. matrices:                         3039.061  1909.374  15.5% |-----|
   Apply H:                               1129.687  1082.774   8.8% |---|
    HMM T:                                  46.913    46.913   0.4% |
  diagonalize:                             451.461   451.461   3.7% ||
  rotate_psi:                             1261.368  1261.368  10.2% |---|
 Density:                                  555.759     0.011   0.0% |
  Atomic density matrices:                   3.341     3.341   0.0% |
  Mix:                                     231.711   231.711   1.9% ||
  Multipole moments:                         0.200     0.200   0.0% |
  Pseudo density:                          320.496   320.486   2.6% ||
   Symmetrize density:                       0.011     0.011   0.0% |
 Hamiltonian:                              456.537     1.791   0.0% |
  Atomic:                                   91.627    45.415   0.4% |
   XC Correction:                           46.212    46.212   0.4% |
  Calculate atomic Hamiltonians:           191.019   191.019   1.5% ||
  Communicate:                              24.355    24.355   0.2% |
  Poisson:                                   1.168     1.168   0.0% |
  XC 3D grid:                              146.577   146.577   1.2% |
 Orthonormalize:                            42.962     0.004   0.0% |
  calc_s_matrix:                             6.073     6.073   0.0% |
  inverse-cholesky:                          0.626     0.626   0.0% |
  projections:                              22.572    22.572   0.2% |
  rotate_psi_s:                             13.687    13.687   0.1% |
Set symmetry:                                0.001     0.001   0.0% |
Other:                                      51.508    51.508   0.4% |
-------------------------------------------------------------------
Total:                                             12324.507 100.0%

Date: Fri Mar  4 04:12:55 2022
