
  ___ ___ ___ _ _ _  
 |   |   |_  | | | | 
 | | | | | . | | | | 
 |__ |  _|___|_____|  1.5.1
 |___|_|             

User:   clausen@node489.cluster
Date:   Wed Mar  2 15:10:21 2022
Arch:   x86_64
Pid:    21546
Python: 3.6.12
gpaw:   /software/kemi/gpaw/1.5.1/gpaw
_gpaw:  /software/kemi/gpaw/1.5.1/bin/gpaw-python
ase:    /software/kemi/ase/3.17.0/ase (version 3.17.0)
numpy:  /opt/rh/rh-python36/root/usr/lib64/python3.6/site-packages/numpy (version 1.13.1)
scipy:  /opt/rh/rh-python36/root/usr/lib64/python3.6/site-packages/scipy (version 0.19.1)
units:  Angstrom and eV
cores:  16

Input parameters:
  kpts: [4 4 1]
  mode: {ecut: 400.0,
         gammacentered: False,
         name: pw}
  xc: RPBE

System changes: positions, numbers, cell, pbc, initial_charges, initial_magmoms 

Initialize ...

Ag-setup:
  name: Silver
  id: c05e55bab2c3858b3f9398f6d75cb77c
  Z: 47
  valence: 17
  core: 30
  charge: 0.0
  file: /software/kemi/gpaw-setups/0.9.20000/Ag.RPBE.gz
  cutoffs: 1.25(comp), 2.35(filt), 2.19(core), lmax=2
  valence states:
                energy  radius
    5s(1.00)    -4.277   1.286
    4p(6.00)   -58.523   1.328
    5p(0.00)    -0.755   1.328
    4d(10.00)    -7.386   1.180
    *s          22.934   1.286
    *d          19.826   1.180

  Using partial waves for Ag as LCAO basis

Ir-setup:
  name: Iridium
  id: 73b603359d1d5397a85ae3c2440f9033
  Z: 77
  valence: 15
  core: 62
  charge: 0.0
  file: /software/kemi/gpaw-setups/0.9.20000/Ir.RPBE.gz
  cutoffs: 1.26(comp), 2.40(filt), 2.36(core), lmax=2
  valence states:
                energy  radius
    6s(2.00)    -6.219   1.296
    5p(6.00)   -54.684   1.328
    6p(0.00)    -1.215   1.328
    5d(7.00)    -7.118   1.286
    *s          20.992   1.296
    *d          20.093   1.286

  Using partial waves for Ir as LCAO basis

Pt-setup:
  name: Platinum
  id: f04f522592575c47ad794f6b4a415b4b
  Z: 78
  valence: 16
  core: 62
  charge: 0.0
  file: /software/kemi/gpaw-setups/0.9.20000/Pt.RPBE.gz
  cutoffs: 1.29(comp), 2.26(filt), 2.26(core), lmax=2
  valence states:
                energy  radius
    6s(1.00)    -5.516   1.307
    5p(6.00)   -55.971   1.371
    6p(0.00)    -0.856   1.371
    5d(9.00)    -6.087   1.307
    *s          21.695   1.307
    *d          21.125   1.307

  Using partial waves for Pt as LCAO basis

Ru-setup:
  name: Ruthenium
  id: 76477906e28f51dc1b29884d53556fe9
  Z: 44
  valence: 16
  core: 28
  charge: 0.0
  file: /software/kemi/gpaw-setups/0.9.20000/Ru.RPBE.gz
  cutoffs: 1.23(comp), 2.16(filt), 1.30(core), lmax=2
  valence states:
                energy  radius
    4s(2.00)   -76.255   1.281
    5s(1.00)    -4.126   1.281
    4p(6.00)   -46.371   1.286
    5p(0.00)    -0.913   1.286
    4d(7.00)    -5.146   1.254
    *d          22.066   1.254

  Using partial waves for Ru as LCAO basis

Reference energy: -16427235.775633

Spin-paired calculation

Occupation numbers:
  Fermi-Dirac: width=0.1000 eV

Convergence criteria:
  Maximum total energy change: 0.0005 eV / electron
  Maximum integral of absolute density change: 0.0001 electrons
  Maximum integral of absolute eigenstate change: 4e-08 eV^2
  Maximum number of iterations: 333

Symmetries present (total): 1

  ( 1  0  0)
  ( 0  1  0)
  ( 0  0  1)

16 k-points: 4 x 4 x 1 Monkhorst-Pack grid
8 k-points in the irreducible part of the Brillouin zone
       k-points in crystal coordinates                weights
   0:     0.12500000   -0.37500000    0.00000000          2/16
   1:     0.12500000   -0.12500000    0.00000000          2/16
   2:     0.12500000    0.12500000    0.00000000          2/16
   3:     0.12500000    0.37500000    0.00000000          2/16
   4:     0.37500000   -0.37500000    0.00000000          2/16
   5:     0.37500000   -0.12500000    0.00000000          2/16
   6:     0.37500000    0.12500000    0.00000000          2/16
   7:     0.37500000    0.37500000    0.00000000          2/16

Wave functions: Plane wave expansion
  Cutoff energy: 400.000 eV
  Number of coefficients (min, max): 32722, 32776
  Pulay-stress correction: 0.000000 eV/Ang^3 (de/decut=0.000000)
  Using FFTW library
  ScaLapack parameters: grid=1x1, blocksize=None
  Wavefunction extrapolation:
    Improved wavefunction reuse through dual PAW basis 

Eigensolver
   Davidson(niter=2, smin=None, normalize=True) 

Densities:
  Coarse grid: 35*35*135 grid
  Fine grid: 70*70*270 grid
  Total Charge: 0.000000 

Density mixing:
  Method: separate
  Backend: pulay
  Linear mixing parameter: 0.05
  Mixing with 5 old densities
  Damping of long wave oscillations: 50 

Hamiltonian:
  XC and Coulomb potentials evaluated on a 70*70*270 grid
  Using the RPBE Exchange-Correlation functional
 

XC parameters: RPBE with 2 nearest neighbor stencil

Memory estimate:
  Process memory now: 148.17 MiB
  Calculator: 532.80 MiB
    Density: 44.92 MiB
      Arrays: 16.41 MiB
      Localized functions: 22.15 MiB
      Mixer: 6.36 MiB
    Hamiltonian: 11.37 MiB
      Arrays: 10.73 MiB
      XC: 0.00 MiB
      Poisson: 0.00 MiB
      vbar: 0.64 MiB
    Wavefunctions: 476.51 MiB
      Arrays psit_nG: 216.05 MiB
      Eigensolver: 247.04 MiB
      Projections: 2.67 MiB
      Projectors: 4.13 MiB
      PW-descriptor: 6.62 MiB

Total number of cores used: 16
Parallelization over k-points: 8
Domain decomposition: 1 x 1 x 2

Number of atoms: 45
Number of atomic orbitals: 543
Number of bands in calculation: 432
Bands to converge: occupied states only
Number of valence electrons: 712

... initialized

Initializing position-dependent things.

Density initialized from atomic densities
Creating initial wave functions:
  432 bands from LCAO basis set

                                            
                                            
                                            
                                            
                                            
                 Ir     Ir     Ag           
            Ag    AIr    IPt   Ru           
       Ir     Ir     Pt                     
             Ir     Ir     Pt               
        Ru     Ir     Ir                    
                     Pt     Ag    Ir        
                Ag     Ag     Ag            
           Ir     Pt     Pt                 
                 Pt     Ru     Ir           
            Ir     Ag     Ag                
                  Ir     Ag    Pt           
       Ag    IIr    IIr    Ir               
        Ag     Ag     Ir                    
                                            
                                            
                                            
                                            
                                            

Positions:
   0 Ag     0.000000    1.621936   10.000000    ( 0.0000,  0.0000,  0.0000)
   1 Ag     2.809275    1.621936   10.000000    ( 0.0000,  0.0000,  0.0000)
   2 Ir     5.618550    1.621936   10.000000    ( 0.0000,  0.0000,  0.0000)
   3 Ir     1.404638    4.054840   10.000000    ( 0.0000,  0.0000,  0.0000)
   4 Ir     4.213913    4.054840   10.000000    ( 0.0000,  0.0000,  0.0000)
   5 Ir     7.023188    4.054840   10.000000    ( 0.0000,  0.0000,  0.0000)
   6 Ir     2.809275    6.487743   10.000000    ( 0.0000,  0.0000,  0.0000)
   7 Ag     5.618550    6.487743   10.000000    ( 0.0000,  0.0000,  0.0000)
   8 Pt     8.427826    6.487743   10.000000    ( 0.0000,  0.0000,  0.0000)
   9 Ag     0.000000    0.000000   12.293764    ( 0.0000,  0.0000,  0.0000)
  10 Ir     2.809275    0.000000   12.293764    ( 0.0000,  0.0000,  0.0000)
  11 Ir     5.618550    0.000000   12.293764    ( 0.0000,  0.0000,  0.0000)
  12 Ir     1.404638    2.432904   12.293764    ( 0.0000,  0.0000,  0.0000)
  13 Ag     4.213913    2.432904   12.293764    ( 0.0000,  0.0000,  0.0000)
  14 Ag     7.023188    2.432904   12.293764    ( 0.0000,  0.0000,  0.0000)
  15 Pt     2.809275    4.865807   12.293764    ( 0.0000,  0.0000,  0.0000)
  16 Ru     5.618550    4.865807   12.293764    ( 0.0000,  0.0000,  0.0000)
  17 Ir     8.427826    4.865807   12.293764    ( 0.0000,  0.0000,  0.0000)
  18 Ir     1.404638    0.810968   14.587527    ( 0.0000,  0.0000,  0.0000)
  19 Pt     4.213913    0.810968   14.587527    ( 0.0000,  0.0000,  0.0000)
  20 Pt     7.023188    0.810968   14.587527    ( 0.0000,  0.0000,  0.0000)
  21 Ag     2.809275    3.243872   14.587527    ( 0.0000,  0.0000,  0.0000)
  22 Ag     5.618550    3.243872   14.587527    ( 0.0000,  0.0000,  0.0000)
  23 Ag     8.427826    3.243872   14.587527    ( 0.0000,  0.0000,  0.0000)
  24 Pt     4.213913    5.676775   14.587527    ( 0.0000,  0.0000,  0.0000)
  25 Ag     7.023188    5.676775   14.587527    ( 0.0000,  0.0000,  0.0000)
  26 Ir     9.832463    5.676775   14.587527    ( 0.0000,  0.0000,  0.0000)
  27 Ru     0.000000    1.621936   16.881291    ( 0.0000,  0.0000,  0.0000)
  28 Ir     2.809275    1.621936   16.881291    ( 0.0000,  0.0000,  0.0000)
  29 Ir     5.618550    1.621936   16.881291    ( 0.0000,  0.0000,  0.0000)
  30 Ir     1.404638    4.054840   16.881291    ( 0.0000,  0.0000,  0.0000)
  31 Ir     4.213913    4.054840   16.881291    ( 0.0000,  0.0000,  0.0000)
  32 Pt     7.023188    4.054840   16.881291    ( 0.0000,  0.0000,  0.0000)
  33 Ag     2.809275    6.487743   16.881291    ( 0.0000,  0.0000,  0.0000)
  34 Ir     5.618550    6.487743   16.881291    ( 0.0000,  0.0000,  0.0000)
  35 Ru     8.427826    6.487743   16.881291    ( 0.0000,  0.0000,  0.0000)
  36 Ir     0.000000    0.000000   19.175054    ( 0.0000,  0.0000,  0.0000)
  37 Ir     2.809275    0.000000   19.175054    ( 0.0000,  0.0000,  0.0000)
  38 Pt     5.618550    0.000000   19.175054    ( 0.0000,  0.0000,  0.0000)
  39 Ag     1.404638    2.432904   19.175054    ( 0.0000,  0.0000,  0.0000)
  40 Ir     4.213913    2.432904   19.175054    ( 0.0000,  0.0000,  0.0000)
  41 Pt     7.023188    2.432904   19.175054    ( 0.0000,  0.0000,  0.0000)
  42 Ir     2.809275    4.865807   19.175054    ( 0.0000,  0.0000,  0.0000)
  43 Ir     5.618550    4.865807   19.175054    ( 0.0000,  0.0000,  0.0000)
  44 Ag     8.427826    4.865807   19.175054    ( 0.0000,  0.0000,  0.0000)

Unit cell:
           periodic     x           y           z      points  spacing
  1. axis:    yes    8.445283    0.000000    0.000000    35     0.2090
  2. axis:    yes    4.222641    7.313829    0.000000    35     0.2090
  3. axis:    no     0.000000    0.000000   29.175054   135     0.2161

  Lengths:   8.445283   8.445283  29.175054
  Angles:   90.000000  90.000000  60.000000

Effective grid spacing dv^(1/3) = 0.2217

                     log10-error:    total        iterations:
           time      wfs    density  energy       fermi  poisson
iter:   1  15:12:45  +0.17   +inf  -290.206402    3             
iter:   2  15:13:58  -1.10  -1.38  -277.890134    37            
iter:   3  15:15:12  -1.46  -1.40  -313.470531    36            
iter:   4  15:16:26  -1.89  -1.27  -267.834568    36            
iter:   5  15:17:39  -2.33  -1.51  -264.313679    3             
iter:   6  15:18:53  -2.48  -1.55  -263.141126    3             
iter:   7  15:20:07  -2.18  -1.58  -260.119283    3             
iter:   8  15:21:21  -2.21  -1.73  -259.149006    3             
iter:   9  15:22:35  -2.65  -1.94  -259.235218    3             
iter:  10  15:23:48  -3.07  -2.08  -259.450111    3             
iter:  11  15:25:02  -3.06  -2.10  -261.097892    3             
iter:  12  15:26:15  -3.11  -1.91  -259.652406    3             
iter:  13  15:27:29  -3.44  -2.12  -259.207965    3             
iter:  14  15:28:41  -3.30  -2.20  -259.077849    3             
iter:  15  15:29:55  -3.57  -2.33  -259.039033    2             
iter:  16  15:31:09  -3.80  -2.40  -258.989366    3             
iter:  17  15:32:23  -3.47  -2.47  -259.288321    2             
iter:  18  15:33:35  -3.59  -2.28  -259.099680    2             
iter:  19  15:34:49  -4.00  -2.36  -258.911024    3             
iter:  20  15:36:02  -3.97  -2.63  -258.867725    2             
iter:  21  15:37:16  -4.34  -2.73  -258.858698    2             
iter:  22  15:38:29  -4.51  -2.76  -258.852918    2             
iter:  23  15:40:00  -4.40  -2.80  -258.868549    2             
iter:  24  15:41:31  -4.62  -2.81  -258.866027    2             
iter:  25  15:43:01  -4.29  -2.78  -258.871881    2             
iter:  26  15:44:32  -4.46  -2.89  -258.848507    3             
iter:  27  15:46:02  -5.54  -3.24  -258.845805    2             
iter:  28  15:47:33  -5.74  -3.35  -258.844876    2             
iter:  29  15:49:03  -5.53  -3.48  -258.845269    2             
iter:  30  15:50:34  -6.05  -3.48  -258.842924    2             
iter:  31  15:52:04  -5.31  -3.43  -258.842809    2             
iter:  32  15:53:35  -6.29  -3.72  -258.842323    2             
iter:  33  15:55:05  -6.10  -3.79  -258.841589    2             
iter:  34  15:56:36  -6.50  -3.94  -258.841921    2             
iter:  35  15:58:06  -6.76  -3.99  -258.841912    2             
iter:  36  15:59:37  -7.08  -4.01  -258.841214    2             
iter:  37  16:01:07  -6.85  -3.96  -258.841616    2             
iter:  38  16:02:37  -6.76  -4.23  -258.841591    2             
iter:  39  16:04:08  -7.60  -4.30  -258.841459    2             

Converged after 39 iterations.

Dipole moment: (26.629143, 13.477430, -0.033464) |e|*Ang

Energy contributions relative to reference atoms: (reference = -16427235.775633)

Kinetic:       -185.129542
Potential:     +124.438542
External:        +0.000000
XC:            -190.499924
Entropy (-ST):   -2.241274
Local:           -6.529898
--------------------------
Free energy:   -259.962096
Extrapolated:  -258.841459

Fermi level: 1.27985

Showing only first 2 kpts
 Kpt  Band  Eigenvalues  Occupancy
  0   354      1.25281    0.14180
  0   355      1.29161    0.11766
  0   356      1.33045    0.09403
  0   357      1.36461    0.07499

  1   354      1.17489    0.18517
  1   355      1.20344    0.17056
  1   356      1.25101    0.14290
  1   357      1.27918    0.12542



Forces in eV/Ang:
  0 Ag   -0.42150    0.16365   -1.05064
  1 Ag    0.25454    0.23025   -0.86347
  2 Ir    0.49424   -0.13958    0.05193
  3 Ir   -0.08670    1.23954    1.40531
  4 Ir    0.42124    0.38029    0.85817
  5 Ir   -0.32792   -0.02173    1.24032
  6 Ir   -1.71782   -0.52768    0.74112
  7 Ag   -0.11985   -0.34844   -0.95145
  8 Pt    1.08312   -0.40091    0.49710
  9 Ag    0.14847   -0.01933    0.05172
 10 Ir    0.05277   -0.40917    0.97687
 11 Ir   -0.73076   -0.90386   -0.58602
 12 Ir    0.37506    0.11466    0.17625
 13 Ag   -0.00466    0.00800   -0.11243
 14 Ag    0.05477    0.09494   -0.09895
 15 Pt   -0.20144    0.04724   -0.64521
 16 Ru    0.64825    0.55259   -1.46128
 17 Ir    0.17051    0.40764   -1.21965
 18 Ir    0.24240    0.03033    0.44747
 19 Pt   -0.02514   -0.92558    0.42012
 20 Pt   -0.11520   -0.44241    0.55193
 21 Ag   -0.18694   -0.06048    0.07434
 22 Ag   -0.02979    0.09055    0.01524
 23 Ag    0.25308   -0.06763    0.02199
 24 Pt    0.13829    0.11947    0.16046
 25 Ag    0.06167    0.07634   -0.05646
 26 Ir   -0.26980    0.67417   -0.03523
 27 Ru    0.34879   -0.11076   -0.04494
 28 Ir    0.01169   -0.47668    0.17048
 29 Ir   -0.53454    0.08290    0.57619
 30 Ir   -0.08798   -0.10756    0.03290
 31 Ir   -0.04664   -0.46574    2.03103
 32 Pt    0.29656    0.02066    0.46251
 33 Ag   -0.22391    0.09300   -0.02468
 34 Ir    0.48835    0.59910    1.13307
 35 Ru   -0.25533    0.60254   -0.18268
 36 Ir    0.35866   -0.86457   -1.08769
 37 Ir   -0.46171   -0.05613   -1.59671
 38 Pt    0.09043    0.18951   -0.01964
 39 Ag    0.03666   -0.13113    1.04965
 40 Ir    0.20642    0.20670   -1.60250
 41 Pt   -0.76408   -0.67671   -0.22759
 42 Ir    1.69606    0.23941   -1.21712
 43 Ir   -1.35472    0.63774   -1.05937
 44 Ag    0.02955    0.25650    0.98547

System changes: positions 

Initializing position-dependent things.

Density initialized from wave functions
                                             
                                             
                                             
                                             
                                             
                  Ir    Ir     Ag            
            Ag            Ir                 
                  AIr     Pt    Ru           
       Ir    IIr    IPt    Pt                
                                             
        Ru     Ir    PIr    Ag     Ir        
                                             
                Ag     Ag     Ag             
           Ir    PPt    RPt    Ir            
                                             
            Ir    IAg    AAg    Pt           
       Ag     Ir     Ir                      
             Ir     Ir     Ir                
        Ag     Ag     Ir                     
                                             
                                             
                                             
                                             
                                             

Positions:
   0 Ag     0.000000    1.621936   10.000000    ( 0.0000,  0.0000,  0.0000)
   1 Ag     2.809275    1.621936   10.000000    ( 0.0000,  0.0000,  0.0000)
   2 Ir     5.618550    1.621936   10.000000    ( 0.0000,  0.0000,  0.0000)
   3 Ir     1.404638    4.054840   10.000000    ( 0.0000,  0.0000,  0.0000)
   4 Ir     4.213913    4.054840   10.000000    ( 0.0000,  0.0000,  0.0000)
   5 Ir     7.023188    4.054840   10.000000    ( 0.0000,  0.0000,  0.0000)
   6 Ir     2.809275    6.487743   10.000000    ( 0.0000,  0.0000,  0.0000)
   7 Ag     5.618550    6.487743   10.000000    ( 0.0000,  0.0000,  0.0000)
   8 Pt     8.427826    6.487743   10.000000    ( 0.0000,  0.0000,  0.0000)
   9 Ag     0.000000    0.000000   12.293764    ( 0.0000,  0.0000,  0.0000)
  10 Ir     2.809275    0.000000   12.293764    ( 0.0000,  0.0000,  0.0000)
  11 Ir     5.618550    0.000000   12.293764    ( 0.0000,  0.0000,  0.0000)
  12 Ir     1.404638    2.432904   12.293764    ( 0.0000,  0.0000,  0.0000)
  13 Ag     4.213913    2.432904   12.293764    ( 0.0000,  0.0000,  0.0000)
  14 Ag     7.023188    2.432904   12.293764    ( 0.0000,  0.0000,  0.0000)
  15 Pt     2.809275    4.865807   12.293764    ( 0.0000,  0.0000,  0.0000)
  16 Ru     5.618550    4.865807   12.293764    ( 0.0000,  0.0000,  0.0000)
  17 Ir     8.427826    4.865807   12.293764    ( 0.0000,  0.0000,  0.0000)
  18 Ir     1.427710    0.813855   14.630118    ( 0.0000,  0.0000,  0.0000)
  19 Pt     4.211520    0.722871   14.627515    ( 0.0000,  0.0000,  0.0000)
  20 Pt     7.012223    0.768859   14.640061    ( 0.0000,  0.0000,  0.0000)
  21 Ag     2.791482    3.238115   14.594603    ( 0.0000,  0.0000,  0.0000)
  22 Ag     5.615715    3.252490   14.588978    ( 0.0000,  0.0000,  0.0000)
  23 Ag     8.451914    3.237434   14.589620    ( 0.0000,  0.0000,  0.0000)
  24 Pt     4.227075    5.688147   14.602799    ( 0.0000,  0.0000,  0.0000)
  25 Ag     7.029058    5.684041   14.582153    ( 0.0000,  0.0000,  0.0000)
  26 Ir     9.806784    5.740944   14.584174    ( 0.0000,  0.0000,  0.0000)
  27 Ru     0.033199    1.611394   16.877014    ( 0.0000,  0.0000,  0.0000)
  28 Ir     2.810388    1.576565   16.897517    ( 0.0000,  0.0000,  0.0000)
  29 Ir     5.567673    1.629827   16.936133    ( 0.0000,  0.0000,  0.0000)
  30 Ir     1.396264    4.044602   16.884422    ( 0.0000,  0.0000,  0.0000)
  31 Ir     4.209474    4.010510   17.074606    ( 0.0000,  0.0000,  0.0000)
  32 Pt     7.051415    4.056806   16.925313    ( 0.0000,  0.0000,  0.0000)
  33 Ag     2.787964    6.496595   16.878941    ( 0.0000,  0.0000,  0.0000)
  34 Ir     5.665032    6.544766   16.989137    ( 0.0000,  0.0000,  0.0000)
  35 Ru     8.403523    6.545094   16.863903    ( 0.0000,  0.0000,  0.0000)
  36 Ir     0.034137   -0.082290   19.071527    ( 0.0000,  0.0000,  0.0000)
  37 Ir     2.765329   -0.005342   19.023078    ( 0.0000,  0.0000,  0.0000)
  38 Pt     5.627157    0.018038   19.173185    ( 0.0000,  0.0000,  0.0000)
  39 Ag     1.408127    2.420423   19.274961    ( 0.0000,  0.0000,  0.0000)
  40 Ir     4.233560    2.452577   19.022527    ( 0.0000,  0.0000,  0.0000)
  41 Pt     6.950462    2.368494   19.153392    ( 0.0000,  0.0000,  0.0000)
  42 Ir     2.970707    4.888595   19.059208    ( 0.0000,  0.0000,  0.0000)
  43 Ir     5.489607    4.926508   19.074223    ( 0.0000,  0.0000,  0.0000)
  44 Ag     8.430638    4.890221   19.268852    ( 0.0000,  0.0000,  0.0000)

Unit cell:
           periodic     x           y           z      points  spacing
  1. axis:    yes    8.445283    0.000000    0.000000    35     0.2090
  2. axis:    yes    4.222641    7.313829    0.000000    35     0.2090
  3. axis:    no     0.000000    0.000000   29.175054   135     0.2161

  Lengths:   8.445283   8.445283  29.175054
  Angles:   90.000000  90.000000  60.000000

Effective grid spacing dv^(1/3) = 0.2217

                     log10-error:    total        iterations:
           time      wfs    density  energy       fermi  poisson
iter:   1  16:06:17  -0.87   +inf  -411.380194    35            
iter:   2  16:07:48  +1.17  -1.13  -1419.924983    39            
iter:   3  16:09:18  +0.58  -0.61  -251.961767    35            
iter:   4  16:10:48  -0.02  -1.58  -264.455189    37            
iter:   5  16:12:18  -1.08  -1.74  -263.527872    34            
iter:   6  16:13:49  -2.13  -1.88  -261.489088    3             
iter:   7  16:15:19  -3.04  -2.09  -261.031669    2             
iter:   8  16:16:50  -3.27  -2.17  -260.738889    3             
iter:   9  16:18:20  -3.20  -2.21  -260.488738    3             
iter:  10  16:19:50  -2.85  -2.28  -260.054728    3             
iter:  11  16:21:20  -3.66  -2.52  -259.993941    3             
iter:  12  16:22:49  -3.99  -2.63  -259.997825    3             
iter:  13  16:24:02  -3.92  -2.60  -260.004412    3             
iter:  14  16:25:16  -4.36  -2.58  -259.950439    3             
iter:  15  16:26:30  -4.39  -2.79  -259.948378    3             
iter:  16  16:27:43  -4.67  -2.90  -259.946562    3             
iter:  17  16:28:56  -4.75  -2.81  -259.924819    3             
iter:  18  16:30:10  -4.95  -3.10  -259.923493    3             
iter:  19  16:31:24  -5.35  -3.20  -259.921676    2             
iter:  20  16:32:37  -5.10  -3.12  -259.925147    3             
iter:  21  16:33:51  -5.20  -3.25  -259.924701    3             
iter:  22  16:35:04  -5.19  -3.34  -259.922054    3             
iter:  23  16:36:17  -5.28  -3.21  -259.924313    3             
iter:  24  16:37:31  -5.67  -3.42  -259.921817    2             
iter:  25  16:38:44  -6.17  -3.67  -259.921004    2             
iter:  26  16:39:57  -6.55  -3.76  -259.922032    2             
iter:  27  16:41:11  -6.79  -3.68  -259.921040    2             
iter:  28  16:42:25  -6.60  -3.88  -259.920627    2             
iter:  29  16:43:38  -7.03  -4.00  -259.921191    2             
iter:  30  16:44:52  -7.35  -3.88  -259.920763    2             
iter:  31  16:46:03  -7.59  -4.04  -259.920911    2             

Converged after 31 iterations.

Dipole moment: (18.056129, 16.595485, -0.007747) |e|*Ang

Energy contributions relative to reference atoms: (reference = -16427235.775633)

Kinetic:       -129.248943
Potential:      +75.402537
External:        +0.000000
XC:            -198.493547
Entropy (-ST):   -2.109924
Local:           -6.525996
--------------------------
Free energy:   -260.975873
Extrapolated:  -259.920911

Fermi level: 1.31457

Showing only first 2 kpts
 Kpt  Band  Eigenvalues  Occupancy
  0   354      1.31332    0.12579
  0   355      1.34151    0.10827
  0   356      1.37386    0.08900
  0   357      1.41379    0.06762

  1   354      1.21131    0.18436
  1   355      1.23540    0.17205
  1   356      1.26781    0.15371
  1   357      1.32099    0.12099



Forces in eV/Ang:
  0 Ag   -0.41661    0.15392   -1.05027
  1 Ag    0.24537    0.22515   -0.86165
  2 Ir    0.49080   -0.14641    0.04186
  3 Ir   -0.10650    1.22115    1.42511
  4 Ir    0.43407    0.39925    0.88452
  5 Ir   -0.33195   -0.02919    1.23021
  6 Ir   -1.71705   -0.50061    0.74979
  7 Ag   -0.12195   -0.34072   -0.94884
  8 Pt    1.07282   -0.39161    0.48418
  9 Ag    0.17078    0.04354    0.21755
 10 Ir   -0.00824   -0.38781    0.94051
 11 Ir   -0.67736   -0.84028   -0.54638
 12 Ir    0.38821    0.05144    0.14345
 13 Ag   -0.02301   -0.08389    0.10510
 14 Ag    0.06317    0.01366    0.09017
 15 Pt   -0.18606    0.01433   -0.55206
 16 Ru    0.62193    0.55439   -1.40217
 17 Ir    0.15965    0.35345   -1.27103
 18 Ir   -0.06987   -0.11081    0.01407
 19 Pt   -0.06392    0.43390   -0.19450
 20 Pt    0.14163    0.23870    0.07339
 21 Ag    0.26168    0.16914    0.26591
 22 Ag   -0.12177   -0.08438    0.40932
 23 Ag   -0.09995   -0.00848    0.01183
 24 Pt    0.06576   -0.09988    0.21395
 25 Ag   -0.30986   -0.38926    0.17173
 26 Ir    0.13580   -0.21253    0.00459
 27 Ru    0.18246    0.30097    0.09493
 28 Ir   -0.42908    0.23774   -0.42073
 29 Ir    0.26224   -0.12296   -0.46643
 30 Ir   -0.21473   -0.10363    0.29428
 31 Ir   -0.07644   -0.10898   -2.51078
 32 Pt    0.41965   -0.00881    0.07163
 33 Ag   -0.26950    0.00930   -0.49355
 34 Ir   -0.00267    0.01171   -1.14857
 35 Ru    0.10697   -0.29106   -0.02862
 36 Ir   -0.33242    0.53071    0.11902
 37 Ir    0.43766   -0.06192    0.53239
 38 Pt   -0.02695   -0.31991    0.02209
 39 Ag   -0.18156    0.21440    0.57204
 40 Ir   -0.00849   -0.73692    1.05931
 41 Pt    0.23620   -0.05597   -0.01625
 42 Ir   -1.35041    0.23459    0.72658
 43 Ir    1.18488    0.02219    0.53143
 44 Ag    0.06452    0.00452    0.48588

System changes: positions 

Initializing position-dependent things.

Density initialized from wave functions
                                            
                                            
                                            
                                            
                               Ag           
                 Ir    Ir                   
            Ag    AIr    IPt   Ru           
       Ir     Ir     Pt                     
             Ir     Ir     Pt               
        Ru     Ir     Ir                    
                     Pt     Ag    Ir        
                Ag     Ag     Ag            
           Ir     Pt     Pt                 
                 Pt     Ru     Ir           
            Ir     Ag     Ag                
                  Ir     Ag     Pt          
       Ag    IIr    IIr    Ir               
        Ag     Ag     Ir                    
                                            
                                            
                                            
                                            
                                            

Positions:
   0 Ag     0.000000    1.621936   10.000000    ( 0.0000,  0.0000,  0.0000)
   1 Ag     2.809275    1.621936   10.000000    ( 0.0000,  0.0000,  0.0000)
   2 Ir     5.618550    1.621936   10.000000    ( 0.0000,  0.0000,  0.0000)
   3 Ir     1.404638    4.054840   10.000000    ( 0.0000,  0.0000,  0.0000)
   4 Ir     4.213913    4.054840   10.000000    ( 0.0000,  0.0000,  0.0000)
   5 Ir     7.023188    4.054840   10.000000    ( 0.0000,  0.0000,  0.0000)
   6 Ir     2.809275    6.487743   10.000000    ( 0.0000,  0.0000,  0.0000)
   7 Ag     5.618550    6.487743   10.000000    ( 0.0000,  0.0000,  0.0000)
   8 Pt     8.427826    6.487743   10.000000    ( 0.0000,  0.0000,  0.0000)
   9 Ag     0.000000    0.000000   12.293764    ( 0.0000,  0.0000,  0.0000)
  10 Ir     2.809275    0.000000   12.293764    ( 0.0000,  0.0000,  0.0000)
  11 Ir     5.618550    0.000000   12.293764    ( 0.0000,  0.0000,  0.0000)
  12 Ir     1.404638    2.432904   12.293764    ( 0.0000,  0.0000,  0.0000)
  13 Ag     4.213913    2.432904   12.293764    ( 0.0000,  0.0000,  0.0000)
  14 Ag     7.023188    2.432904   12.293764    ( 0.0000,  0.0000,  0.0000)
  15 Pt     2.809275    4.865807   12.293764    ( 0.0000,  0.0000,  0.0000)
  16 Ru     5.618550    4.865807   12.293764    ( 0.0000,  0.0000,  0.0000)
  17 Ir     8.427826    4.865807   12.293764    ( 0.0000,  0.0000,  0.0000)
  18 Ir     1.419626    0.812843   14.615196    ( 0.0000,  0.0000,  0.0000)
  19 Pt     4.212358    0.753736   14.613505    ( 0.0000,  0.0000,  0.0000)
  20 Pt     7.016065    0.783612   14.621655    ( 0.0000,  0.0000,  0.0000)
  21 Ag     2.797716    3.240132   14.592124    ( 0.0000,  0.0000,  0.0000)
  22 Ag     5.616708    3.249471   14.588470    ( 0.0000,  0.0000,  0.0000)
  23 Ag     8.443475    3.239690   14.588887    ( 0.0000,  0.0000,  0.0000)
  24 Pt     4.222464    5.684163   14.597449    ( 0.0000,  0.0000,  0.0000)
  25 Ag     7.027001    5.681496   14.584036    ( 0.0000,  0.0000,  0.0000)
  26 Ir     9.815781    5.718462   14.585349    ( 0.0000,  0.0000,  0.0000)
  27 Ru     0.021567    1.615087   16.878512    ( 0.0000,  0.0000,  0.0000)
  28 Ir     2.809998    1.592461   16.891832    ( 0.0000,  0.0000,  0.0000)
  29 Ir     5.585498    1.627062   16.916919    ( 0.0000,  0.0000,  0.0000)
  30 Ir     1.399198    4.048189   16.883325    ( 0.0000,  0.0000,  0.0000)
  31 Ir     4.211029    4.026041   17.006876    ( 0.0000,  0.0000,  0.0000)
  32 Pt     7.041525    4.056117   16.909890    ( 0.0000,  0.0000,  0.0000)
  33 Ag     2.795430    6.493493   16.879765    ( 0.0000,  0.0000,  0.0000)
  34 Ir     5.648747    6.524788   16.951352    ( 0.0000,  0.0000,  0.0000)
  35 Ru     8.412038    6.525001   16.869995    ( 0.0000,  0.0000,  0.0000)
  36 Ir     0.022177   -0.053459   19.107799    ( 0.0000,  0.0000,  0.0000)
  37 Ir     2.780726   -0.003471   19.076324    ( 0.0000,  0.0000,  0.0000)
  38 Pt     5.624142    0.011718   19.173840    ( 0.0000,  0.0000,  0.0000)
  39 Ag     1.406904    2.424796   19.239958    ( 0.0000,  0.0000,  0.0000)
  40 Ir     4.226676    2.445685   19.075966    ( 0.0000,  0.0000,  0.0000)
  41 Pt     6.975942    2.391061   19.160982    ( 0.0000,  0.0000,  0.0000)
  42 Ir     2.914148    4.880611   19.099796    ( 0.0000,  0.0000,  0.0000)
  43 Ir     5.534783    4.905241   19.109550    ( 0.0000,  0.0000,  0.0000)
  44 Ag     8.429653    4.881668   19.235989    ( 0.0000,  0.0000,  0.0000)

Unit cell:
           periodic     x           y           z      points  spacing
  1. axis:    yes    8.445283    0.000000    0.000000    35     0.2090
  2. axis:    yes    4.222641    7.313829    0.000000    35     0.2090
  3. axis:    no     0.000000    0.000000   29.175054   135     0.2161

  Lengths:   8.445283   8.445283  29.175054
  Angles:   90.000000  90.000000  60.000000

Effective grid spacing dv^(1/3) = 0.2217

                     log10-error:    total        iterations:
           time      wfs    density  energy       fermi  poisson
iter:   1  16:47:45  -1.41   +inf  -300.985189    3             
iter:   2  16:48:55  +0.41  -1.40  -812.592520    37            
iter:   3  16:50:06  -0.65  -0.80  -280.771656    37            
iter:   4  16:51:32  -1.68  -1.58  -261.040482    37            
iter:   5  16:52:58  -2.71  -2.14  -260.448995    3             
iter:   6  16:54:24  -3.20  -2.35  -260.384204    2             
iter:   7  16:55:50  -3.73  -2.38  -260.227150    2             
iter:   8  16:57:16  -3.60  -2.52  -260.110257    3             
iter:   9  16:58:42  -3.69  -2.75  -260.073405    3             
iter:  10  17:00:08  -4.28  -2.87  -260.064432    2             
iter:  11  17:01:30  -4.73  -2.94  -260.061792    2             
iter:  12  17:02:43  -4.61  -2.86  -260.057416    2             
iter:  13  17:03:56  -4.92  -3.02  -260.047606    3             
iter:  14  17:05:09  -4.85  -3.15  -260.044560    2             
iter:  15  17:06:23  -5.56  -3.29  -260.044650    2             
iter:  16  17:07:37  -5.88  -3.31  -260.044686    2             
iter:  17  17:08:50  -5.69  -3.34  -260.043476    2             
iter:  18  17:10:03  -5.74  -3.25  -260.044332    2             
iter:  19  17:11:16  -6.11  -3.42  -260.043332    2             
iter:  20  17:12:30  -5.73  -3.56  -260.043319    2             
iter:  21  17:13:43  -6.16  -3.61  -260.042970    2             
iter:  22  17:14:56  -6.11  -3.70  -260.043313    2             
iter:  23  17:16:09  -6.13  -3.79  -260.042445    2             
iter:  24  17:17:23  -6.61  -3.59  -260.043561    2             
iter:  25  17:18:37  -6.52  -3.80  -260.043018    2             
iter:  26  17:19:49  -6.35  -3.95  -260.042753    2             
iter:  27  17:21:03  -6.40  -4.09  -260.042832    2             
iter:  28  17:22:15  -7.22  -4.14  -260.042874    2             
iter:  29  17:23:42  -7.55  -4.34  -260.042784    2             

Converged after 29 iterations.

Dipole moment: (20.913186, 15.527150, 0.007150) |e|*Ang

Energy contributions relative to reference atoms: (reference = -16427235.775633)

Kinetic:       -160.049142
Potential:     +102.260067
External:        +0.000000
XC:            -194.643149
Entropy (-ST):   -2.156838
Local:           -6.532141
--------------------------
Free energy:   -261.121203
Extrapolated:  -260.042784

Fermi level: 1.30680

Showing only first 2 kpts
 Kpt  Band  Eigenvalues  Occupancy
  0   354      1.29721    0.13099
  0   355      1.32653    0.11271
  0   356      1.36936    0.08712
  0   357      1.40404    0.06860

  1   354      1.20218    0.18501
  1   355      1.22604    0.17290
  1   356      1.26555    0.15042
  1   357      1.31701    0.11862



Forces in eV/Ang:
  0 Ag   -0.41596    0.15475   -1.05306
  1 Ag    0.24653    0.22621   -0.86466
  2 Ir    0.49191   -0.14383    0.04549
  3 Ir   -0.09990    1.22253    1.41029
  4 Ir    0.43057    0.39117    0.87297
  5 Ir   -0.33145   -0.02602    1.23328
  6 Ir   -1.71415   -0.50584    0.74618
  7 Ag   -0.12238   -0.34006   -0.95091
  8 Pt    1.07415   -0.39330    0.48528
  9 Ag    0.16331    0.02373    0.16424
 10 Ir    0.01024   -0.39559    0.95719
 11 Ir   -0.69275   -0.86217   -0.55597
 12 Ir    0.38238    0.07190    0.15786
 13 Ag   -0.01440   -0.05468    0.03756
 14 Ag    0.05894    0.03908    0.02988
 15 Pt   -0.18723    0.02362   -0.58529
 16 Ru    0.63217    0.55154   -1.42082
 17 Ir    0.16039    0.36929   -1.24789
 18 Ir    0.03751   -0.05222    0.16755
 19 Pt   -0.03204   -0.08723    0.03552
 20 Pt    0.04522   -0.00362    0.24157
 21 Ag    0.11431    0.09472    0.21254
 22 Ag   -0.10281   -0.02048    0.28233
 23 Ag    0.02469   -0.02913    0.01012
 24 Pt    0.09266   -0.04482    0.23184
 25 Ag   -0.17464   -0.21724    0.09593
 26 Ir   -0.02655    0.14182   -0.00771
 27 Ru    0.25464    0.15967    0.03704
 28 Ir   -0.28714   -0.06530   -0.15996
 29 Ir   -0.06119   -0.02110   -0.02342
 30 Ir   -0.21581   -0.11782    0.18704
 31 Ir   -0.09647   -0.24711   -0.17492
 32 Pt    0.41359   -0.00264    0.17870
 33 Ag   -0.23913    0.03878   -0.32838
 34 Ir    0.23060    0.28985   -0.03302
 35 Ru   -0.05026    0.05205   -0.08215
 36 Ir    0.01210   -0.14418   -0.41434
 37 Ir    0.00698   -0.11088   -0.50439
 38 Pt    0.02317   -0.10905    0.00941
 39 Ag   -0.12107    0.11628    0.72466
 40 Ir    0.12454   -0.18763   -0.28091
 41 Pt   -0.13535   -0.28740   -0.11059
 42 Ir    0.16720    0.15300   -0.24548
 43 Ir   -0.14996    0.28190   -0.24083
 44 Ag    0.06465    0.07391    0.64622

System changes: positions 

Initializing position-dependent things.

Density initialized from wave functions
                                             
                                             
                                             
                                             
                                             
                  Ir    Ir     Ag            
            Ag                               
                  AIr     Pt    Ru           
       Ir    IIr    IPt    Pt                
                                             
        Ru     Ir    PIr    Ag     Ir        
                                             
                Ag     Ag     Ag             
           Ir    PPt    RPt    Ir            
                                             
            Ir    IAg    AAg    Pt           
       Ag     Ir     Ir                      
             Ir     Ir     Ir                
        Ag     Ag     Ir                     
                                             
                                             
                                             
                                             
                                             

Positions:
   0 Ag     0.000000    1.621936   10.000000    ( 0.0000,  0.0000,  0.0000)
   1 Ag     2.809275    1.621936   10.000000    ( 0.0000,  0.0000,  0.0000)
   2 Ir     5.618550    1.621936   10.000000    ( 0.0000,  0.0000,  0.0000)
   3 Ir     1.404638    4.054840   10.000000    ( 0.0000,  0.0000,  0.0000)
   4 Ir     4.213913    4.054840   10.000000    ( 0.0000,  0.0000,  0.0000)
   5 Ir     7.023188    4.054840   10.000000    ( 0.0000,  0.0000,  0.0000)
   6 Ir     2.809275    6.487743   10.000000    ( 0.0000,  0.0000,  0.0000)
   7 Ag     5.618550    6.487743   10.000000    ( 0.0000,  0.0000,  0.0000)
   8 Pt     8.427826    6.487743   10.000000    ( 0.0000,  0.0000,  0.0000)
   9 Ag     0.000000    0.000000   12.293764    ( 0.0000,  0.0000,  0.0000)
  10 Ir     2.809275    0.000000   12.293764    ( 0.0000,  0.0000,  0.0000)
  11 Ir     5.618550    0.000000   12.293764    ( 0.0000,  0.0000,  0.0000)
  12 Ir     1.404638    2.432904   12.293764    ( 0.0000,  0.0000,  0.0000)
  13 Ag     4.213913    2.432904   12.293764    ( 0.0000,  0.0000,  0.0000)
  14 Ag     7.023188    2.432904   12.293764    ( 0.0000,  0.0000,  0.0000)
  15 Pt     2.809275    4.865807   12.293764    ( 0.0000,  0.0000,  0.0000)
  16 Ru     5.618550    4.865807   12.293764    ( 0.0000,  0.0000,  0.0000)
  17 Ir     8.427826    4.865807   12.293764    ( 0.0000,  0.0000,  0.0000)
  18 Ir     1.424892    0.806435   14.637124    ( 0.0000,  0.0000,  0.0000)
  19 Pt     4.208316    0.740584   14.618969    ( 0.0000,  0.0000,  0.0000)
  20 Pt     7.021391    0.782053   14.653037    ( 0.0000,  0.0000,  0.0000)
  21 Ag     2.811442    3.251742   14.618704    ( 0.0000,  0.0000,  0.0000)
  22 Ag     5.603867    3.247155   14.623567    ( 0.0000,  0.0000,  0.0000)
  23 Ag     8.447175    3.235903   14.590198    ( 0.0000,  0.0000,  0.0000)
  24 Pt     4.234317    5.678897   14.626640    ( 0.0000,  0.0000,  0.0000)
  25 Ag     7.005470    5.654710   14.595806    ( 0.0000,  0.0000,  0.0000)
  26 Ir     9.811807    5.737764   14.584302    ( 0.0000,  0.0000,  0.0000)
  27 Ru     0.054062    1.634638   16.882999    ( 0.0000,  0.0000,  0.0000)
  28 Ir     2.774372    1.583157   16.872397    ( 0.0000,  0.0000,  0.0000)
  29 Ir     5.576559    1.624649   16.915456    ( 0.0000,  0.0000,  0.0000)
  30 Ir     1.372178    4.033288   16.906634    ( 0.0000,  0.0000,  0.0000)
  31 Ir     4.198933    3.994187   16.990248    ( 0.0000,  0.0000,  0.0000)
  32 Pt     7.093627    4.055840   16.933240    ( 0.0000,  0.0000,  0.0000)
  33 Ag     2.765175    6.498543   16.838925    ( 0.0000,  0.0000,  0.0000)
  34 Ir     5.678607    6.562282   16.950093    ( 0.0000,  0.0000,  0.0000)
  35 Ru     8.405156    6.532975   16.859335    ( 0.0000,  0.0000,  0.0000)
  36 Ir     0.024580   -0.073531   19.053620    ( 0.0000,  0.0000,  0.0000)
  37 Ir     2.780435   -0.017380   19.009687    ( 0.0000,  0.0000,  0.0000)
  38 Pt     5.627245   -0.001348   19.174959    ( 0.0000,  0.0000,  0.0000)
  39 Ag     1.391962    2.438906   19.332576    ( 0.0000,  0.0000,  0.0000)
  40 Ir     4.242659    2.422903   19.037066    ( 0.0000,  0.0000,  0.0000)
  41 Pt     6.957219    2.353675   19.146678    ( 0.0000,  0.0000,  0.0000)
  42 Ir     2.939165    4.900211   19.066260    ( 0.0000,  0.0000,  0.0000)
  43 Ir     5.512764    4.941845   19.076988    ( 0.0000,  0.0000,  0.0000)
  44 Ag     8.437755    4.891489   19.318706    ( 0.0000,  0.0000,  0.0000)

Unit cell:
           periodic     x           y           z      points  spacing
  1. axis:    yes    8.445283    0.000000    0.000000    35     0.2090
  2. axis:    yes    4.222641    7.313829    0.000000    35     0.2090
  3. axis:    no     0.000000    0.000000   29.175054   135     0.2161

  Lengths:   8.445283   8.445283  29.175054
  Angles:   90.000000  90.000000  60.000000

Effective grid spacing dv^(1/3) = 0.2217

                     log10-error:    total        iterations:
           time      wfs    density  energy       fermi  poisson
iter:   1  17:25:51  -1.68   +inf  -276.706832    4             
iter:   2  17:27:22  -0.73  -1.59  -531.899542    37            
iter:   3  17:28:51  -1.32  -1.02  -265.990493    37            
iter:   4  17:30:21  -2.21  -1.80  -260.810642    4             
iter:   5  17:31:51  -3.52  -2.31  -260.444201    3             
iter:   6  17:33:21  -4.03  -2.54  -260.373572    3             
iter:   7  17:34:51  -3.99  -2.68  -260.333372    2             
iter:   8  17:36:21  -3.78  -2.78  -260.308961    3             
iter:   9  17:37:52  -4.22  -2.93  -260.302307    2             
iter:  10  17:39:22  -4.74  -2.97  -260.308631    3             
iter:  11  17:40:52  -5.05  -2.98  -260.293485    2             
iter:  12  17:42:22  -5.16  -3.25  -260.296796    2             
iter:  13  17:43:52  -5.23  -3.23  -260.292466    3             
iter:  14  17:45:22  -5.58  -3.26  -260.291952    2             
iter:  15  17:46:52  -5.62  -3.45  -260.291949    2             
iter:  16  17:48:22  -5.74  -3.36  -260.295247    2             
iter:  17  17:49:52  -5.85  -3.40  -260.291465    2             
iter:  18  17:51:22  -5.93  -3.48  -260.292229    2             
iter:  19  17:52:52  -6.18  -3.71  -260.290940    2             
iter:  20  17:54:23  -6.15  -3.59  -260.291186    2             
iter:  21  17:55:52  -6.50  -3.93  -260.290972    2             
iter:  22  17:57:22  -6.13  -3.95  -260.292980    2             
iter:  23  17:58:52  -6.72  -3.73  -260.291092    2             
iter:  24  18:00:21  -6.87  -4.12  -260.291732    2             
iter:  25  18:01:51  -7.13  -4.10  -260.291099    2             
iter:  26  18:03:21  -7.27  -4.18  -260.291456    2             
iter:  27  18:04:47  -7.58  -4.37  -260.291484    2             

Converged after 27 iterations.

Dipole moment: (22.096891, 18.114372, 0.018749) |e|*Ang

Energy contributions relative to reference atoms: (reference = -16427235.775633)

Kinetic:       -145.879283
Potential:      +89.788982
External:        +0.000000
XC:            -196.589641
Entropy (-ST):   -2.114598
Local:           -6.554243
--------------------------
Free energy:   -261.348782
Extrapolated:  -260.291484

Fermi level: 1.31730

Showing only first 2 kpts
 Kpt  Band  Eigenvalues  Occupancy
  0   354      1.30770    0.13100
  0   355      1.33893    0.11154
  0   356      1.37987    0.08712
  0   357      1.41602    0.06787

  1   354      1.21205    0.18531
  1   355      1.23633    0.17301
  1   356      1.26951    0.15431
  1   357      1.31407    0.12702



Forces in eV/Ang:
  0 Ag   -0.41582    0.15447   -1.05439
  1 Ag    0.24442    0.22509   -0.86071
  2 Ir    0.49692   -0.14728    0.04594
  3 Ir   -0.11064    1.23230    1.42011
  4 Ir    0.42988    0.39631    0.88375
  5 Ir   -0.33554   -0.02589    1.23229
  6 Ir   -1.72127   -0.50800    0.74544
  7 Ag   -0.12258   -0.34043   -0.95180
  8 Pt    1.06996   -0.39442    0.49328
  9 Ag    0.15867    0.01027    0.29968
 10 Ir   -0.01870   -0.40662    1.02452
 11 Ir   -0.66295   -0.84608   -0.48994
 12 Ir    0.43192    0.08646    0.22143
 13 Ag   -0.01677   -0.04309    0.13543
 14 Ag    0.02658    0.02808    0.15225
 15 Pt   -0.16550    0.00739   -0.49962
 16 Ru    0.62011    0.50864   -1.34738
 17 Ir    0.14520    0.36538   -1.21175
 18 Ir    0.00681   -0.04135   -0.16927
 19 Pt   -0.07379   -0.00586   -0.13260
 20 Pt    0.07175    0.17777   -0.15822
 21 Ag   -0.10166    0.04366   -0.08206
 22 Ag    0.07311   -0.11539    0.03010
 23 Ag    0.04180    0.01486   -0.08972
 24 Pt   -0.02025    0.02897   -0.02157
 25 Ag    0.06582   -0.08235   -0.02418
 26 Ir   -0.07606   -0.08331   -0.15163
 27 Ru    0.08801    0.13616    0.15463
 28 Ir   -0.02622    0.28831    0.04016
 29 Ir   -0.03703   -0.03812   -0.11937
 30 Ir    0.00168   -0.03221    0.28592
 31 Ir   -0.05721   -0.00031   -0.20027
 32 Pt    0.08330    0.01564    0.27765
 33 Ag   -0.00205   -0.11398    0.06600
 34 Ir   -0.18705   -0.16033   -0.59656
 35 Ru    0.01589   -0.18413   -0.03833
 36 Ir   -0.17848    0.27472   -0.09607
 37 Ir    0.19534    0.07893    0.39171
 38 Pt    0.03853   -0.16456   -0.07828
 39 Ag    0.03912    0.00321    0.40791
 40 Ir   -0.08759   -0.08863    0.10650
 41 Pt    0.09488   -0.04769   -0.03942
 42 Ir   -0.30806   -0.06182   -0.10720
 43 Ir    0.30429   -0.14744   -0.21668
 44 Ag   -0.02085   -0.01390    0.42939

System changes: positions 

Initializing position-dependent things.

Density initialized from wave functions
                                             
                                             
                                             
                                             
                                             
                  Ir    Ir     Ag            
            Ag                               
                  AIr     Pt    Ru           
             Ir     IPt     Pt               
       Ir     Ir                             
         Ru    Ir    PIr    Ag     Ir        
                                             
                Ag     Ag     Ag             
           Ir    PPt    RPt    Ir            
                                             
            Ir    IAg    AAg    Pt           
                                             
       Ag    IIr    IIr    Ir                
        Ag     Ag     Ir                     
                                             
                                             
                                             
                                             
                                             

Positions:
   0 Ag     0.000000    1.621936   10.000000    ( 0.0000,  0.0000,  0.0000)
   1 Ag     2.809275    1.621936   10.000000    ( 0.0000,  0.0000,  0.0000)
   2 Ir     5.618550    1.621936   10.000000    ( 0.0000,  0.0000,  0.0000)
   3 Ir     1.404638    4.054840   10.000000    ( 0.0000,  0.0000,  0.0000)
   4 Ir     4.213913    4.054840   10.000000    ( 0.0000,  0.0000,  0.0000)
   5 Ir     7.023188    4.054840   10.000000    ( 0.0000,  0.0000,  0.0000)
   6 Ir     2.809275    6.487743   10.000000    ( 0.0000,  0.0000,  0.0000)
   7 Ag     5.618550    6.487743   10.000000    ( 0.0000,  0.0000,  0.0000)
   8 Pt     8.427826    6.487743   10.000000    ( 0.0000,  0.0000,  0.0000)
   9 Ag     0.000000    0.000000   12.293764    ( 0.0000,  0.0000,  0.0000)
  10 Ir     2.809275    0.000000   12.293764    ( 0.0000,  0.0000,  0.0000)
  11 Ir     5.618550    0.000000   12.293764    ( 0.0000,  0.0000,  0.0000)
  12 Ir     1.404638    2.432904   12.293764    ( 0.0000,  0.0000,  0.0000)
  13 Ag     4.213913    2.432904   12.293764    ( 0.0000,  0.0000,  0.0000)
  14 Ag     7.023188    2.432904   12.293764    ( 0.0000,  0.0000,  0.0000)
  15 Pt     2.809275    4.865807   12.293764    ( 0.0000,  0.0000,  0.0000)
  16 Ru     5.618550    4.865807   12.293764    ( 0.0000,  0.0000,  0.0000)
  17 Ir     8.427826    4.865807   12.293764    ( 0.0000,  0.0000,  0.0000)
  18 Ir     1.429566    0.799693   14.630915    ( 0.0000,  0.0000,  0.0000)
  19 Pt     4.198574    0.727639   14.610050    ( 0.0000,  0.0000,  0.0000)
  20 Pt     7.030333    0.797206   14.652536    ( 0.0000,  0.0000,  0.0000)
  21 Ag     2.804409    3.260539   14.620846    ( 0.0000,  0.0000,  0.0000)
  22 Ag     5.606491    3.234494   14.640697    ( 0.0000,  0.0000,  0.0000)
  23 Ag     8.455093    3.235499   14.581200    ( 0.0000,  0.0000,  0.0000)
  24 Pt     4.237848    5.680882   14.637001    ( 0.0000,  0.0000,  0.0000)
  25 Ag     7.004606    5.635910   14.597376    ( 0.0000,  0.0000,  0.0000)
  26 Ir     9.799956    5.741553   14.567256    ( 0.0000,  0.0000,  0.0000)
  27 Ru     0.078999    1.656142   16.901098    ( 0.0000,  0.0000,  0.0000)
  28 Ir     2.757661    1.606937   16.870427    ( 0.0000,  0.0000,  0.0000)
  29 Ir     5.564925    1.620231   16.906454    ( 0.0000,  0.0000,  0.0000)
  30 Ir     1.361084    4.023137   16.946885    ( 0.0000,  0.0000,  0.0000)
  31 Ir     4.187655    3.978062   16.977813    ( 0.0000,  0.0000,  0.0000)
  32 Pt     7.125341    4.057579   16.975935    ( 0.0000,  0.0000,  0.0000)
  33 Ag     2.751358    6.488942   16.829842    ( 0.0000,  0.0000,  0.0000)
  34 Ir     5.673906    6.564315   16.893979    ( 0.0000,  0.0000,  0.0000)
  35 Ru     8.402199    6.520890   16.849607    ( 0.0000,  0.0000,  0.0000)
  36 Ir     0.009033   -0.058438   19.013599    ( 0.0000,  0.0000,  0.0000)
  37 Ir     2.797833   -0.014751   19.013485    ( 0.0000,  0.0000,  0.0000)
  38 Pt     5.633320   -0.022766   19.166798    ( 0.0000,  0.0000,  0.0000)
  39 Ag     1.390608    2.443772   19.421031    ( 0.0000,  0.0000,  0.0000)
  40 Ir     4.241070    2.406003   19.020916    ( 0.0000,  0.0000,  0.0000)
  41 Pt     6.954210    2.328637   19.135056    ( 0.0000,  0.0000,  0.0000)
  42 Ir     2.928840    4.903076   19.032132    ( 0.0000,  0.0000,  0.0000)
  43 Ir     5.526496    4.945218   19.032647    ( 0.0000,  0.0000,  0.0000)
  44 Ag     8.438911    4.895823   19.405100    ( 0.0000,  0.0000,  0.0000)

Unit cell:
           periodic     x           y           z      points  spacing
  1. axis:    yes    8.445283    0.000000    0.000000    35     0.2090
  2. axis:    yes    4.222641    7.313829    0.000000    35     0.2090
  3. axis:    no     0.000000    0.000000   29.175054   135     0.2161

  Lengths:   8.445283   8.445283  29.175054
  Angles:   90.000000  90.000000  60.000000

Effective grid spacing dv^(1/3) = 0.2217

                     log10-error:    total        iterations:
           time      wfs    density  energy       fermi  poisson
iter:   1  18:06:32  -1.98   +inf  -261.604578    3             
iter:   2  18:07:45  -2.17  -2.14  -283.977852    3             
iter:   3  18:08:57  -2.36  -1.50  -260.835658    3             
iter:   4  18:10:10  -3.51  -2.28  -260.596488    3             
iter:   5  18:11:24  -3.98  -2.52  -260.460660    3             
iter:   6  18:12:36  -4.51  -2.75  -260.445920    2             
iter:   7  18:13:50  -4.38  -2.88  -260.432830    2             
iter:   8  18:15:03  -4.14  -3.01  -260.437207    2             
iter:   9  18:16:18  -4.96  -3.06  -260.435812    2             
iter:  10  18:17:31  -4.94  -2.94  -260.424956    2             
iter:  11  18:18:44  -5.43  -3.34  -260.423593    2             
iter:  12  18:19:58  -5.64  -3.37  -260.424043    2             
iter:  13  18:21:11  -5.64  -3.41  -260.422408    2             
iter:  14  18:22:25  -5.74  -3.51  -260.423737    2             
iter:  15  18:23:38  -6.11  -3.55  -260.422226    2             
iter:  16  18:24:52  -6.43  -3.50  -260.422633    2             
iter:  17  18:26:04  -6.06  -3.69  -260.422570    2             
iter:  18  18:27:18  -6.15  -3.75  -260.422856    2             
iter:  19  18:28:31  -6.39  -3.77  -260.421763    2             
iter:  20  18:29:44  -6.59  -3.95  -260.422393    2             
iter:  21  18:30:57  -7.04  -3.96  -260.421727    2             
iter:  22  18:32:11  -7.16  -4.02  -260.422105    2             
iter:  23  18:33:25  -6.84  -4.11  -260.422198    2             
iter:  24  18:34:38  -7.02  -4.15  -260.422296    2             
iter:  25  18:35:51  -7.28  -4.16  -260.421956    2             
iter:  26  18:37:04  -7.71  -4.37  -260.422227    2             

Converged after 26 iterations.

Dipole moment: (23.730581, 17.937131, 0.026788) |e|*Ang

Energy contributions relative to reference atoms: (reference = -16427235.775633)

Kinetic:       -145.147084
Potential:      +89.043341
External:        +0.000000
XC:            -196.711019
Entropy (-ST):   -2.100149
Local:           -6.557389
--------------------------
Free energy:   -261.472301
Extrapolated:  -260.422227

Fermi level: 1.32064

Showing only first 2 kpts
 Kpt  Band  Eigenvalues  Occupancy
  0   354      1.31171    0.13057
  0   355      1.34489    0.10992
  0   356      1.38323    0.08711
  0   357      1.41754    0.06877

  1   354      1.21817    0.18397
  1   355      1.23743    0.17420
  1   356      1.26797    0.15718
  1   357      1.31149    0.13072



Forces in eV/Ang:
  0 Ag   -0.41608    0.15594   -1.05329
  1 Ag    0.24569    0.22548   -0.86133
  2 Ir    0.49769   -0.15567    0.03798
  3 Ir   -0.11246    1.24280    1.40662
  4 Ir    0.42701    0.39705    0.88556
  5 Ir   -0.33486   -0.02383    1.22765
  6 Ir   -1.72547   -0.50885    0.74741
  7 Ag   -0.12170   -0.34275   -0.95126
  8 Pt    1.06572   -0.39618    0.49259
  9 Ag    0.14987   -0.00739    0.30084
 10 Ir   -0.04554   -0.40937    1.02217
 11 Ir   -0.63303   -0.83180   -0.48947
 12 Ir    0.45051    0.10429    0.16735
 13 Ag   -0.01396   -0.02668    0.17234
 14 Ag    0.00885    0.04170    0.14028
 15 Pt   -0.14153    0.00699   -0.47859
 16 Ru    0.60632    0.48198   -1.32475
 17 Ir    0.13653    0.35765   -1.24226
 18 Ir    0.02006   -0.00052   -0.23490
 19 Pt   -0.03656    0.11093   -0.06429
 20 Pt    0.00891    0.04262   -0.11004
 21 Ag   -0.09136    0.02488   -0.14002
 22 Ag    0.06940   -0.02105   -0.06735
 23 Ag    0.00998    0.04146    0.05830
 24 Pt   -0.06545   -0.01051   -0.15120
 25 Ag    0.07597   -0.09732   -0.07891
 26 Ir    0.05789   -0.06302   -0.09865
 27 Ru   -0.01892    0.00981    0.09137
 28 Ir    0.05429    0.10438    0.12528
 29 Ir   -0.00827   -0.11876   -0.14724
 30 Ir    0.05864   -0.03123    0.17302
 31 Ir    0.04019    0.05800   -0.22808
 32 Pt   -0.04889    0.02097    0.04467
 33 Ag    0.01589    0.01609   -0.13353
 34 Ir   -0.03700   -0.04141    0.04561
 35 Ru   -0.02630   -0.13361    0.09057
 36 Ir    0.09014    0.09970    0.01346
 37 Ir   -0.11711    0.00013   -0.11030
 38 Pt   -0.04472   -0.11234   -0.06578
 39 Ag    0.08897   -0.06505    0.23283
 40 Ir   -0.16426   -0.04908    0.20720
 41 Pt    0.15802    0.04842    0.03545
 42 Ir   -0.13555   -0.11790    0.18224
 43 Ir    0.08215   -0.00360    0.01707
 44 Ag   -0.06948   -0.04985    0.27751

System changes: positions 

Initializing position-dependent things.

Density initialized from wave functions
                                             
                                             
                                             
                                             
                                             
                               Ag            
                  Ir    Ir                   
            Ag    AIr     Pt    Ru           
                                             
       Ir    IIr    IPt     Pt               
         Ru    Ir     Ir                     
                     Pt     Ag     Ir        
                Ag     Ag     Ag             
                                             
           Ir    PPt    RPt    Ir            
                                             
            Ir    IAg    AAg    Pt           
       Ag    IIr    IIr    Ir                
                                             
        Ag     Ag     Ir                     
                                             
                                             
                                             
                                             
                                             

Positions:
   0 Ag     0.000000    1.621936   10.000000    ( 0.0000,  0.0000,  0.0000)
   1 Ag     2.809275    1.621936   10.000000    ( 0.0000,  0.0000,  0.0000)
   2 Ir     5.618550    1.621936   10.000000    ( 0.0000,  0.0000,  0.0000)
   3 Ir     1.404638    4.054840   10.000000    ( 0.0000,  0.0000,  0.0000)
   4 Ir     4.213913    4.054840   10.000000    ( 0.0000,  0.0000,  0.0000)
   5 Ir     7.023188    4.054840   10.000000    ( 0.0000,  0.0000,  0.0000)
   6 Ir     2.809275    6.487743   10.000000    ( 0.0000,  0.0000,  0.0000)
   7 Ag     5.618550    6.487743   10.000000    ( 0.0000,  0.0000,  0.0000)
   8 Pt     8.427826    6.487743   10.000000    ( 0.0000,  0.0000,  0.0000)
   9 Ag     0.000000    0.000000   12.293764    ( 0.0000,  0.0000,  0.0000)
  10 Ir     2.809275    0.000000   12.293764    ( 0.0000,  0.0000,  0.0000)
  11 Ir     5.618550    0.000000   12.293764    ( 0.0000,  0.0000,  0.0000)
  12 Ir     1.404638    2.432904   12.293764    ( 0.0000,  0.0000,  0.0000)
  13 Ag     4.213913    2.432904   12.293764    ( 0.0000,  0.0000,  0.0000)
  14 Ag     7.023188    2.432904   12.293764    ( 0.0000,  0.0000,  0.0000)
  15 Pt     2.809275    4.865807   12.293764    ( 0.0000,  0.0000,  0.0000)
  16 Ru     5.618550    4.865807   12.293764    ( 0.0000,  0.0000,  0.0000)
  17 Ir     8.427826    4.865807   12.293764    ( 0.0000,  0.0000,  0.0000)
  18 Ir     1.435859    0.796005   14.601447    ( 0.0000,  0.0000,  0.0000)
  19 Pt     4.188789    0.730828   14.599797    ( 0.0000,  0.0000,  0.0000)
  20 Pt     7.035686    0.807842   14.643215    ( 0.0000,  0.0000,  0.0000)
  21 Ag     2.789725    3.268690   14.606439    ( 0.0000,  0.0000,  0.0000)
  22 Ag     5.615424    3.225989   14.643267    ( 0.0000,  0.0000,  0.0000)
  23 Ag     8.461510    3.240050   14.584730    ( 0.0000,  0.0000,  0.0000)
  24 Pt     4.232687    5.680481   14.625607    ( 0.0000,  0.0000,  0.0000)
  25 Ag     7.012351    5.612369   14.588723    ( 0.0000,  0.0000,  0.0000)
  26 Ir     9.800384    5.739762   14.546225    ( 0.0000,  0.0000,  0.0000)
  27 Ru     0.092681    1.668823   16.921655    ( 0.0000,  0.0000,  0.0000)
  28 Ir     2.753664    1.628781   16.884685    ( 0.0000,  0.0000,  0.0000)
  29 Ir     5.555323    1.602907   16.885453    ( 0.0000,  0.0000,  0.0000)
  30 Ir     1.360648    4.012520   16.990459    ( 0.0000,  0.0000,  0.0000)
  31 Ir     4.186268    3.973149   16.949492    ( 0.0000,  0.0000,  0.0000)
  32 Pt     7.139880    4.061175   17.005852    ( 0.0000,  0.0000,  0.0000)
  33 Ag     2.743240    6.487361   16.804483    ( 0.0000,  0.0000,  0.0000)
  34 Ir     5.671663    6.565824   16.878171    ( 0.0000,  0.0000,  0.0000)
  35 Ru     8.395705    6.501169   16.855028    ( 0.0000,  0.0000,  0.0000)
  36 Ir     0.015127   -0.043892   18.987042    ( 0.0000,  0.0000,  0.0000)
  37 Ir     2.788873   -0.014994   18.988229    ( 0.0000,  0.0000,  0.0000)
  38 Pt     5.631045   -0.047765   19.154462    ( 0.0000,  0.0000,  0.0000)
  39 Ag     1.400296    2.438359   19.505564    ( 0.0000,  0.0000,  0.0000)
  40 Ir     4.221368    2.390514   19.029882    ( 0.0000,  0.0000,  0.0000)
  41 Pt     6.968344    2.316902   19.131930    ( 0.0000,  0.0000,  0.0000)
  42 Ir     2.915847    4.891937   19.031523    ( 0.0000,  0.0000,  0.0000)
  43 Ir     5.535886    4.952337   19.006602    ( 0.0000,  0.0000,  0.0000)
  44 Ag     8.431315    4.893375   19.493285    ( 0.0000,  0.0000,  0.0000)

Unit cell:
           periodic     x           y           z      points  spacing
  1. axis:    yes    8.445283    0.000000    0.000000    35     0.2090
  2. axis:    yes    4.222641    7.313829    0.000000    35     0.2090
  3. axis:    no     0.000000    0.000000   29.175054   135     0.2161

  Lengths:   8.445283   8.445283  29.175054
  Angles:   90.000000  90.000000  60.000000

Effective grid spacing dv^(1/3) = 0.2217

                     log10-error:    total        iterations:
           time      wfs    density  energy       fermi  poisson
iter:   1  18:38:52  -1.95   +inf  -269.711858    3             
iter:   2  18:40:05  -0.80  -1.64  -483.542024    36            
iter:   3  18:41:18  -1.42  -1.07  -271.099329    37            
iter:   4  18:42:32  -2.30  -1.69  -261.222563    4             
iter:   5  18:43:46  -3.20  -2.22  -260.531751    3             
iter:   6  18:44:59  -4.10  -2.72  -260.522722    3             
iter:   7  18:46:12  -4.37  -2.76  -260.493559    2             
iter:   8  18:47:26  -4.11  -2.90  -260.480839    3             
iter:   9  18:48:38  -4.44  -3.01  -260.476062    2             
iter:  10  18:49:51  -5.10  -3.22  -260.475473    2             
iter:  11  18:51:04  -5.44  -3.30  -260.473734    2             
iter:  12  18:52:18  -5.12  -3.31  -260.478899    2             
iter:  13  18:53:32  -5.62  -3.28  -260.473287    2             
iter:  14  18:54:46  -5.90  -3.62  -260.473469    2             
iter:  15  18:56:00  -6.22  -3.68  -260.473556    2             
iter:  16  18:57:14  -6.07  -3.71  -260.472776    2             
iter:  17  18:58:27  -6.38  -3.88  -260.472051    2             
iter:  18  18:59:41  -6.81  -3.94  -260.473011    2             
iter:  19  19:00:56  -6.82  -3.90  -260.472413    2             
iter:  20  19:02:07  -7.13  -4.17  -260.472446    2             
iter:  21  19:03:18  -6.97  -4.23  -260.472640    2             
iter:  22  19:04:20  -7.46  -4.24  -260.472466    2             

Converged after 22 iterations.

Dipole moment: (23.652777, 18.231138, 0.033737) |e|*Ang

Energy contributions relative to reference atoms: (reference = -16427235.775633)

Kinetic:       -147.564201
Potential:      +91.013641
External:        +0.000000
XC:            -196.311095
Entropy (-ST):   -2.098705
Local:           -6.561458
--------------------------
Free energy:   -261.521818
Extrapolated:  -260.472466

Fermi level: 1.32427

Showing only first 2 kpts
 Kpt  Band  Eigenvalues  Occupancy
  0   354      1.31782    0.12903
  0   355      1.34983    0.10911
  0   356      1.39042    0.08510
  0   357      1.41651    0.07112

  1   354      1.22018    0.18476
  1   355      1.23770    0.17596
  1   356      1.26717    0.15975
  1   357      1.30929    0.13434



Forces in eV/Ang:
  0 Ag   -0.41398    0.15723   -1.05363
  1 Ag    0.24835    0.22705   -0.86379
  2 Ir    0.49491   -0.16570    0.02912
  3 Ir   -0.11323    1.23499    1.37984
  4 Ir    0.41903    0.39370    0.87545
  5 Ir   -0.33190   -0.02345    1.21270
  6 Ir   -1.71796   -0.50229    0.74284
  7 Ag   -0.12215   -0.34354   -0.95065
  8 Pt    1.05988   -0.39138    0.48118
  9 Ag    0.13046   -0.01230    0.23428
 10 Ir   -0.04544   -0.42915    1.00103
 11 Ir   -0.62177   -0.80504   -0.50643
 12 Ir    0.41552    0.12579    0.12813
 13 Ag    0.00249   -0.00942    0.16554
 14 Ag    0.01514    0.06454    0.12235
 15 Pt   -0.12547    0.00379   -0.56417
 16 Ru    0.59906    0.46242   -1.33432
 17 Ir    0.12954    0.32530   -1.30014
 18 Ir    0.02782   -0.01906   -0.00108
 19 Pt    0.01453    0.00792    0.06655
 20 Pt   -0.00402   -0.02994   -0.05353
 21 Ag    0.00285   -0.03173   -0.00097
 22 Ag   -0.00897    0.05192   -0.09711
 23 Ag    0.00219   -0.02158    0.13830
 24 Pt    0.04082   -0.03496   -0.13433
 25 Ag   -0.00310    0.08312    0.02356
 26 Ir    0.06227    0.05221   -0.03385
 27 Ru   -0.03593   -0.07606   -0.03612
 28 Ir   -0.01545   -0.01504   -0.07868
 29 Ir   -0.04856    0.01135    0.11340
 30 Ir    0.02147   -0.00718    0.03719
 31 Ir    0.04933   -0.00388    0.22357
 32 Pt   -0.07154   -0.03170   -0.10817
 33 Ag    0.07678   -0.05373    0.03681
 34 Ir   -0.02748    0.01447   -0.10995
 35 Ru    0.02046   -0.05398    0.03797
 36 Ir    0.00727   -0.10886    0.09946
 37 Ir   -0.04160   -0.03118    0.03656
 38 Pt   -0.01839    0.04006   -0.09936
 39 Ag    0.04787   -0.05834    0.11601
 40 Ir    0.07107    0.11510   -0.19052
 41 Pt   -0.06238   -0.01026   -0.01460
 42 Ir    0.15164   -0.03835    0.01722
 43 Ir   -0.17455   -0.01013    0.13905
 44 Ag   -0.09927   -0.06809    0.11008

System changes: positions 

Initializing position-dependent things.

Density initialized from wave functions
                                             
                                             
                                             
                                             
                                             
                               Ag            
                  Ir    Ir                   
            Ag    AIr     Pt    Ru           
                                             
       Ir    IIr    IPt     Pt               
         Ru    Ir     Ir                     
                     Pt     Ag     Ir        
                Ag     Ag     Ag             
                                             
           Ir    PPt    RPt    Ir            
                                             
            Ir    IAg    AAg    Pt           
       Ag    IIr    IIr    Ir                
                                             
        Ag     Ag     Ir                     
                                             
                                             
                                             
                                             
                                             

Positions:
   0 Ag     0.000000    1.621936   10.000000    ( 0.0000,  0.0000,  0.0000)
   1 Ag     2.809275    1.621936   10.000000    ( 0.0000,  0.0000,  0.0000)
   2 Ir     5.618550    1.621936   10.000000    ( 0.0000,  0.0000,  0.0000)
   3 Ir     1.404638    4.054840   10.000000    ( 0.0000,  0.0000,  0.0000)
   4 Ir     4.213913    4.054840   10.000000    ( 0.0000,  0.0000,  0.0000)
   5 Ir     7.023188    4.054840   10.000000    ( 0.0000,  0.0000,  0.0000)
   6 Ir     2.809275    6.487743   10.000000    ( 0.0000,  0.0000,  0.0000)
   7 Ag     5.618550    6.487743   10.000000    ( 0.0000,  0.0000,  0.0000)
   8 Pt     8.427826    6.487743   10.000000    ( 0.0000,  0.0000,  0.0000)
   9 Ag     0.000000    0.000000   12.293764    ( 0.0000,  0.0000,  0.0000)
  10 Ir     2.809275    0.000000   12.293764    ( 0.0000,  0.0000,  0.0000)
  11 Ir     5.618550    0.000000   12.293764    ( 0.0000,  0.0000,  0.0000)
  12 Ir     1.404638    2.432904   12.293764    ( 0.0000,  0.0000,  0.0000)
  13 Ag     4.213913    2.432904   12.293764    ( 0.0000,  0.0000,  0.0000)
  14 Ag     7.023188    2.432904   12.293764    ( 0.0000,  0.0000,  0.0000)
  15 Pt     2.809275    4.865807   12.293764    ( 0.0000,  0.0000,  0.0000)
  16 Ru     5.618550    4.865807   12.293764    ( 0.0000,  0.0000,  0.0000)
  17 Ir     8.427826    4.865807   12.293764    ( 0.0000,  0.0000,  0.0000)
  18 Ir     1.439261    0.793317   14.593980    ( 0.0000,  0.0000,  0.0000)
  19 Pt     4.188037    0.734617   14.602750    ( 0.0000,  0.0000,  0.0000)
  20 Pt     7.036792    0.808380   14.635333    ( 0.0000,  0.0000,  0.0000)
  21 Ag     2.787481    3.267860   14.603332    ( 0.0000,  0.0000,  0.0000)
  22 Ag     5.616433    3.228753   14.635255    ( 0.0000,  0.0000,  0.0000)
  23 Ag     8.462471    3.239210   14.598383    ( 0.0000,  0.0000,  0.0000)
  24 Pt     4.235079    5.676735   14.610604    ( 0.0000,  0.0000,  0.0000)
  25 Ag     7.013288    5.614255   14.589257    ( 0.0000,  0.0000,  0.0000)
  26 Ir     9.807020    5.742731   14.538646    ( 0.0000,  0.0000,  0.0000)
  27 Ru     0.091813    1.665022   16.922934    ( 0.0000,  0.0000,  0.0000)
  28 Ir     2.750898    1.633058   16.879923    ( 0.0000,  0.0000,  0.0000)
  29 Ir     5.550046    1.599811   16.889742    ( 0.0000,  0.0000,  0.0000)
  30 Ir     1.362423    4.009594   17.003546    ( 0.0000,  0.0000,  0.0000)
  31 Ir     4.190566    3.972525   16.958298    ( 0.0000,  0.0000,  0.0000)
  32 Pt     7.136320    4.058990   17.001296    ( 0.0000,  0.0000,  0.0000)
  33 Ag     2.748688    6.482057   16.801535    ( 0.0000,  0.0000,  0.0000)
  34 Ir     5.667996    6.566628   16.862382    ( 0.0000,  0.0000,  0.0000)
  35 Ru     8.396680    6.490488   16.860184    ( 0.0000,  0.0000,  0.0000)
  36 Ir     0.016554   -0.048990   18.992553    ( 0.0000,  0.0000,  0.0000)
  37 Ir     2.783905   -0.018077   18.988634    ( 0.0000,  0.0000,  0.0000)
  38 Pt     5.628564   -0.050172   19.142695    ( 0.0000,  0.0000,  0.0000)
  39 Ag     1.406565    2.432273   19.533181    ( 0.0000,  0.0000,  0.0000)
  40 Ir     4.223211    2.396892   19.018020    ( 0.0000,  0.0000,  0.0000)
  41 Pt     6.967482    2.314712   19.130372    ( 0.0000,  0.0000,  0.0000)
  42 Ir     2.923124    4.885568   19.036003    ( 0.0000,  0.0000,  0.0000)
  43 Ir     5.524803    4.952019   19.016272    ( 0.0000,  0.0000,  0.0000)
  44 Ag     8.420495    4.886001   19.521201    ( 0.0000,  0.0000,  0.0000)

Unit cell:
           periodic     x           y           z      points  spacing
  1. axis:    yes    8.445283    0.000000    0.000000    35     0.2090
  2. axis:    yes    4.222641    7.313829    0.000000    35     0.2090
  3. axis:    no     0.000000    0.000000   29.175054   135     0.2161

  Lengths:   8.445283   8.445283  29.175054
  Angles:   90.000000  90.000000  60.000000

Effective grid spacing dv^(1/3) = 0.2217

                     log10-error:    total        iterations:
           time      wfs    density  energy       fermi  poisson
iter:   1  19:05:39  -2.80   +inf  -261.230295    3             
iter:   2  19:06:34  -2.15  -2.19  -285.278322    4             
iter:   3  19:07:30  -2.48  -1.51  -260.718695    4             
iter:   4  19:08:56  -3.58  -2.52  -260.523700    3             
iter:   5  19:10:21  -4.63  -2.96  -260.502935    3             
iter:   6  19:11:47  -4.94  -3.18  -260.497459    2             
iter:   7  19:13:12  -5.21  -3.18  -260.497835    2             
iter:   8  19:14:38  -5.01  -3.32  -260.493991    2             
iter:   9  19:16:09  -5.28  -3.31  -260.493299    2             
iter:  10  19:17:39  -5.90  -3.71  -260.493289    2             
iter:  11  19:19:10  -6.16  -3.76  -260.493805    2             
iter:  12  19:20:41  -6.05  -3.85  -260.494327    2             
iter:  13  19:22:11  -6.46  -3.84  -260.493028    2             
iter:  14  19:23:42  -6.71  -3.95  -260.494040    2             
iter:  15  19:25:12  -6.90  -3.95  -260.493419    1             
iter:  16  19:26:43  -6.95  -4.27  -260.493168    2             
iter:  17  19:28:14  -7.30  -4.30  -260.493278    2             
iter:  18  19:29:45  -7.32  -4.51  -260.493203    2             
iter:  19  19:31:15  -7.73  -4.57  -260.493207    2             

Converged after 19 iterations.

Dipole moment: (23.039808, 18.536864, 0.036546) |e|*Ang

Energy contributions relative to reference atoms: (reference = -16427235.775633)

Kinetic:       -148.195917
Potential:      +91.478373
External:        +0.000000
XC:            -196.169546
Entropy (-ST):   -2.096184
Local:           -6.558026
--------------------------
Free energy:   -261.541299
Extrapolated:  -260.493207

Fermi level: 1.32532

Showing only first 2 kpts
 Kpt  Band  Eigenvalues  Occupancy
  0   354      1.32001    0.12832
  0   355      1.35296    0.10784
  0   356      1.39233    0.08462
  0   357      1.41779    0.07100

  1   354      1.22312    0.18384
  1   355      1.23825    0.17622
  1   356      1.26899    0.15930
  1   357      1.30832    0.13560



Forces in eV/Ang:
  0 Ag   -0.41600    0.15910   -1.05335
  1 Ag    0.25068    0.22713   -0.86443
  2 Ir    0.49408   -0.16964    0.02725
  3 Ir   -0.11025    1.23978    1.37990
  4 Ir    0.41629    0.39617    0.87855
  5 Ir   -0.32879   -0.02335    1.21415
  6 Ir   -1.71928   -0.50545    0.74195
  7 Ag   -0.12066   -0.34539   -0.95273
  8 Pt    1.06102   -0.39145    0.48243
  9 Ag    0.12877   -0.00287    0.17947
 10 Ir   -0.03018   -0.42742    0.98669
 11 Ir   -0.63152   -0.79610   -0.52401
 12 Ir    0.39057    0.15153    0.13503
 13 Ag   -0.00339   -0.01748    0.14374
 14 Ag    0.03751    0.08207    0.11530
 15 Pt   -0.13431   -0.01303   -0.60526
 16 Ru    0.61416    0.46536   -1.36965
 17 Ir    0.12622    0.30182   -1.28514
 18 Ir    0.00905   -0.00823    0.02490
 19 Pt    0.04878   -0.05208    0.06430
 20 Pt   -0.02185   -0.04782    0.03237
 21 Ag    0.02911   -0.00298    0.05455
 22 Ag   -0.02581    0.00954   -0.01478
 23 Ag    0.01484    0.00405    0.03658
 24 Pt    0.01076   -0.00141   -0.03561
 25 Ag    0.04992    0.07530   -0.00343
 26 Ir    0.00763    0.04710   -0.00535
 27 Ru   -0.02063   -0.06451    0.01480
 28 Ir   -0.03683   -0.06917   -0.02451
 29 Ir    0.03255   -0.00728   -0.01780
 30 Ir   -0.03936   -0.01065    0.03114
 31 Ir    0.05027    0.04218   -0.03467
 32 Pt   -0.07312   -0.01518   -0.01361
 33 Ag    0.06683   -0.03520    0.00473
 34 Ir   -0.01097   -0.01825    0.09363
 35 Ru    0.01785   -0.01820    0.03697
 36 Ir   -0.00070   -0.05117    0.02131
 37 Ir   -0.05337   -0.05282   -0.06625
 38 Pt   -0.03123   -0.00734   -0.04280
 39 Ag    0.01441   -0.04187    0.05063
 40 Ir    0.03890    0.02819    0.03875
 41 Pt   -0.02454   -0.00401   -0.00998
 42 Ir   -0.03215    0.02233    0.05092
 43 Ir    0.02493   -0.00421    0.05630
 44 Ag   -0.07239   -0.05164    0.02822

System changes: positions 

Initializing position-dependent things.

Density initialized from wave functions
                                             
                                             
                                             
                                             
                                             
                               Ag            
                  Ir    Ir                   
            Ag    AIr     Pt    Ru           
                                             
       Ir    IIr    IPt    Pt                
         Ru    Ir     Ir                     
                     Pt     Ag     Ir        
                Ag     Ag     Ag             
                                             
           Ir    PPt    RPt    Ir            
                                             
            Ir    IAg    AAg    Pt           
       Ag    IIr    IIr    Ir                
                                             
        Ag     Ag     Ir                     
                                             
                                             
                                             
                                             
                                             

Positions:
   0 Ag     0.000000    1.621936   10.000000    ( 0.0000,  0.0000,  0.0000)
   1 Ag     2.809275    1.621936   10.000000    ( 0.0000,  0.0000,  0.0000)
   2 Ir     5.618550    1.621936   10.000000    ( 0.0000,  0.0000,  0.0000)
   3 Ir     1.404638    4.054840   10.000000    ( 0.0000,  0.0000,  0.0000)
   4 Ir     4.213913    4.054840   10.000000    ( 0.0000,  0.0000,  0.0000)
   5 Ir     7.023188    4.054840   10.000000    ( 0.0000,  0.0000,  0.0000)
   6 Ir     2.809275    6.487743   10.000000    ( 0.0000,  0.0000,  0.0000)
   7 Ag     5.618550    6.487743   10.000000    ( 0.0000,  0.0000,  0.0000)
   8 Pt     8.427826    6.487743   10.000000    ( 0.0000,  0.0000,  0.0000)
   9 Ag     0.000000    0.000000   12.293764    ( 0.0000,  0.0000,  0.0000)
  10 Ir     2.809275    0.000000   12.293764    ( 0.0000,  0.0000,  0.0000)
  11 Ir     5.618550    0.000000   12.293764    ( 0.0000,  0.0000,  0.0000)
  12 Ir     1.404638    2.432904   12.293764    ( 0.0000,  0.0000,  0.0000)
  13 Ag     4.213913    2.432904   12.293764    ( 0.0000,  0.0000,  0.0000)
  14 Ag     7.023188    2.432904   12.293764    ( 0.0000,  0.0000,  0.0000)
  15 Pt     2.809275    4.865807   12.293764    ( 0.0000,  0.0000,  0.0000)
  16 Ru     5.618550    4.865807   12.293764    ( 0.0000,  0.0000,  0.0000)
  17 Ir     8.427826    4.865807   12.293764    ( 0.0000,  0.0000,  0.0000)
  18 Ir     1.441638    0.791118   14.593247    ( 0.0000,  0.0000,  0.0000)
  19 Pt     4.193480    0.729862   14.611205    ( 0.0000,  0.0000,  0.0000)
  20 Pt     7.034823    0.803600   14.634811    ( 0.0000,  0.0000,  0.0000)
  21 Ag     2.789574    3.267050   14.608106    ( 0.0000,  0.0000,  0.0000)
  22 Ag     5.614143    3.230616   14.629701    ( 0.0000,  0.0000,  0.0000)
  23 Ag     8.464759    3.239382   14.607930    ( 0.0000,  0.0000,  0.0000)
  24 Pt     4.237230    5.675263   14.599690    ( 0.0000,  0.0000,  0.0000)
  25 Ag     7.020289    5.624637   14.588938    ( 0.0000,  0.0000,  0.0000)
  26 Ir     9.810296    5.749034   14.534386    ( 0.0000,  0.0000,  0.0000)
  27 Ru     0.088724    1.655821   16.925664    ( 0.0000,  0.0000,  0.0000)
  28 Ir     2.745717    1.627778   16.875164    ( 0.0000,  0.0000,  0.0000)
  29 Ir     5.551846    1.597836   16.889230    ( 0.0000,  0.0000,  0.0000)
  30 Ir     1.358794    4.007324   17.013226    ( 0.0000,  0.0000,  0.0000)
  31 Ir     4.198339    3.977911   16.957702    ( 0.0000,  0.0000,  0.0000)
  32 Pt     7.125382    4.056246   16.998429    ( 0.0000,  0.0000,  0.0000)
  33 Ag     2.759687    6.474835   16.802442    ( 0.0000,  0.0000,  0.0000)
  34 Ir     5.663661    6.563267   16.864024    ( 0.0000,  0.0000,  0.0000)
  35 Ru     8.399575    6.483077   16.866623    ( 0.0000,  0.0000,  0.0000)
  36 Ir     0.015859   -0.055829   18.998154    ( 0.0000,  0.0000,  0.0000)
  37 Ir     2.776668   -0.025110   18.984491    ( 0.0000,  0.0000,  0.0000)
  38 Pt     5.623976   -0.052286   19.132338    ( 0.0000,  0.0000,  0.0000)
  39 Ag     1.411190    2.424549   19.550242    ( 0.0000,  0.0000,  0.0000)
  40 Ir     4.228423    2.403175   19.018562    ( 0.0000,  0.0000,  0.0000)
  41 Pt     6.964575    2.313754   19.128521    ( 0.0000,  0.0000,  0.0000)
  42 Ir     2.920544    4.885225   19.043791    ( 0.0000,  0.0000,  0.0000)
  43 Ir     5.524960    4.949858   19.026821    ( 0.0000,  0.0000,  0.0000)
  44 Ag     8.407084    4.876484   19.535850    ( 0.0000,  0.0000,  0.0000)

Unit cell:
           periodic     x           y           z      points  spacing
  1. axis:    yes    8.445283    0.000000    0.000000    35     0.2090
  2. axis:    yes    4.222641    7.313829    0.000000    35     0.2090
  3. axis:    no     0.000000    0.000000   29.175054   135     0.2161

  Lengths:   8.445283   8.445283  29.175054
  Angles:   90.000000  90.000000  60.000000

Effective grid spacing dv^(1/3) = 0.2217

                     log10-error:    total        iterations:
           time      wfs    density  energy       fermi  poisson
iter:   1  19:33:26  -2.97   +inf  -260.624447    3             
iter:   2  19:34:56  -3.65  -2.72  -260.597408    3             
iter:   3  19:36:27  -3.66  -2.62  -261.233149    3             
iter:   4  19:37:58  -4.03  -2.20  -260.513017    3             
iter:   5  19:39:29  -4.91  -3.04  -260.505646    3             
iter:   6  19:40:59  -5.44  -3.28  -260.502170    2             
iter:   7  19:42:30  -5.10  -3.42  -260.500390    2             
iter:   8  19:44:01  -5.35  -3.61  -260.499598    2             
iter:   9  19:45:32  -5.81  -3.70  -260.505888    2             
iter:  10  19:47:02  -6.03  -3.33  -260.499743    2             
iter:  11  19:48:33  -6.42  -3.80  -260.500085    2             
iter:  12  19:50:03  -6.50  -3.86  -260.499989    2             
iter:  13  19:51:34  -6.58  -3.97  -260.500599    2             
iter:  14  19:53:05  -6.84  -4.02  -260.500282    2             
iter:  15  19:54:35  -7.15  -4.20  -260.500520    2             
iter:  16  19:56:06  -7.14  -4.16  -260.499937    2             
iter:  17  19:57:35  -7.25  -4.09  -260.500181    2             
iter:  18  19:58:44  -7.41  -4.38  -260.500169    2             

Converged after 18 iterations.

Dipole moment: (23.117372, 18.827824, 0.037821) |e|*Ang

Energy contributions relative to reference atoms: (reference = -16427235.775633)

Kinetic:       -149.612572
Potential:      +92.661819
External:        +0.000000
XC:            -195.943058
Entropy (-ST):   -2.098371
Local:           -6.557173
--------------------------
Free energy:   -261.549355
Extrapolated:  -260.500169

Fermi level: 1.32573

Showing only first 2 kpts
 Kpt  Band  Eigenvalues  Occupancy
  0   354      1.32105    0.12793
  0   355      1.35292    0.10811
  0   356      1.39310    0.08442
  0   357      1.41886    0.07067

  1   354      1.22415    0.18354
  1   355      1.23857    0.17627
  1   356      1.27041    0.15872
  1   357      1.30773    0.13622



Forces in eV/Ang:
  0 Ag   -0.41590    0.15907   -1.05291
  1 Ag    0.24995    0.22781   -0.86590
  2 Ir    0.49484   -0.17090    0.02120
  3 Ir   -0.10741    1.23771    1.38046
  4 Ir    0.41585    0.39869    0.87546
  5 Ir   -0.32653   -0.02529    1.20709
  6 Ir   -1.71731   -0.50569    0.73418
  7 Ag   -0.12126   -0.34413   -0.95401
  8 Pt    1.06139   -0.38928    0.48174
  9 Ag    0.13003    0.01878    0.15243
 10 Ir   -0.02282   -0.40929    0.97970
 11 Ir   -0.63588   -0.77861   -0.54349
 12 Ir    0.38206    0.15550    0.16811
 13 Ag   -0.01496   -0.03782    0.15628
 14 Ag    0.05483    0.08493    0.13624
 15 Pt   -0.14763   -0.03601   -0.62197
 16 Ru    0.63619    0.46757   -1.38044
 17 Ir    0.12194    0.28034   -1.27408
 18 Ir   -0.00941    0.01604    0.01509
 19 Pt   -0.00155    0.04834    0.00697
 20 Pt    0.02710    0.02455    0.04255
 21 Ag    0.00346    0.01061    0.04359
 22 Ag    0.02665   -0.00215    0.01131
 23 Ag   -0.00257    0.01362   -0.01423
 24 Pt    0.02138    0.00674    0.03221
 25 Ag   -0.00522   -0.04706    0.00924
 26 Ir    0.01994   -0.07218    0.03510
 27 Ru   -0.00196    0.01132    0.03104
 28 Ir    0.03381    0.00830    0.08314
 29 Ir   -0.00748   -0.01182   -0.01477
 30 Ir   -0.04658   -0.02224    0.04532
 31 Ir   -0.02965   -0.02148    0.02812
 32 Pt    0.02383    0.00502   -0.00803
 33 Ag   -0.01675   -0.03986   -0.03580
 34 Ir    0.00820   -0.05920    0.04010
 35 Ru    0.01960   -0.03603    0.03390
 36 Ir   -0.02637    0.01567    0.02041
 37 Ir    0.03596   -0.00053    0.00022
 38 Pt   -0.05029   -0.03058    0.02218
 39 Ag    0.00456   -0.02901   -0.00108
 40 Ir   -0.03163   -0.01875   -0.00907
 41 Pt    0.02424   -0.03877    0.02470
 42 Ir   -0.03749   -0.02666   -0.02314
 43 Ir   -0.01235   -0.01807    0.00371
 44 Ag   -0.01867   -0.02799   -0.00493

Timing:                                      incl.     excl.
-------------------------------------------------------------------
Density initialized from wave functions:    27.235    27.235   0.2% |
 Symmetrize density:                         0.000     0.000   0.0% |
Forces:                                    139.442   139.442   0.8% |
Hamiltonian:                                22.924     0.073   0.0% |
 Atomic:                                     8.015     4.789   0.0% |
  XC Correction:                             3.225     3.225   0.0% |
 Calculate atomic Hamiltonians:              6.672     6.672   0.0% |
 Communicate:                                0.298     0.298   0.0% |
 Initialize Hamiltonian:                     0.001     0.001   0.0% |
 Poisson:                                    0.045     0.045   0.0% |
 XC 3D grid:                                 7.821     7.821   0.0% |
LCAO initialization:                        58.618     2.989   0.0% |
 LCAO eigensolver:                           7.297     0.004   0.0% |
  Calculate projections:                     0.085     0.085   0.0% |
  DenseAtomicCorrection:                     0.102     0.102   0.0% |
  Distribute overlap matrix:                 0.098     0.098   0.0% |
  Orbital Layouts:                           0.580     0.580   0.0% |
  Potential matrix:                          6.347     6.347   0.0% |
  Sum over cells:                            0.080     0.080   0.0% |
 LCAO to grid:                              45.559    45.559   0.3% |
 Set positions (LCAO WFS):                   2.774     1.192   0.0% |
  Basic WFS set positions:                   0.003     0.003   0.0% |
  Basis functions set positions:             0.001     0.001   0.0% |
  P tci:                                     0.685     0.685   0.0% |
  ST tci:                                    0.673     0.673   0.0% |
  mktci:                                     0.221     0.221   0.0% |
PWDescriptor:                                0.055     0.055   0.0% |
Redistribute:                                0.041     0.041   0.0% |
SCF-cycle:                               17002.081  1477.348   8.5% |--|
 Davidson:                               14166.185  3182.256  18.4% |------|
  Apply H:                                2365.415  2288.659  13.2% |----|
   HMM T:                                   76.757    76.757   0.4% |
  Subspace diag:                          2029.191     0.079   0.0% |
   calc_h_matrix:                         1208.528   426.982   2.5% ||
    Apply H:                               781.546   755.929   4.4% |-|
     HMM T:                                 25.617    25.617   0.1% |
   diagonalize:                             29.732    29.732   0.2% |
   rotate_psi:                             790.853   790.853   4.6% |-|
  calc. matrices:                         4411.744  2847.971  16.4% |------|
   Apply H:                               1563.773  1512.996   8.7% |--|
    HMM T:                                  50.777    50.777   0.3% |
  diagonalize:                             592.319   592.319   3.4% ||
  rotate_psi:                             1585.259  1585.259   9.2% |---|
 Density:                                  711.488     0.012   0.0% |
  Atomic density matrices:                   5.425     5.425   0.0% |
  Mix:                                     227.894   227.894   1.3% ||
  Multipole moments:                         0.309     0.309   0.0% |
  Pseudo density:                          477.847   477.836   2.8% ||
   Symmetrize density:                       0.012     0.012   0.0% |
 Hamiltonian:                              597.022     1.991   0.0% |
  Atomic:                                  188.290   104.211   0.6% |
   XC Correction:                           84.079    84.079   0.5% |
  Calculate atomic Hamiltonians:           176.804   176.804   1.0% |
  Communicate:                              25.261    25.261   0.1% |
  Poisson:                                   1.318     1.318   0.0% |
  XC 3D grid:                              203.358   203.358   1.2% |
 Orthonormalize:                            50.039     0.004   0.0% |
  calc_s_matrix:                             7.692     7.692   0.0% |
  inverse-cholesky:                          0.621     0.621   0.0% |
  projections:                              27.107    27.107   0.2% |
  rotate_psi_s:                             14.615    14.615   0.1% |
Set symmetry:                                0.002     0.002   0.0% |
Other:                                      69.642    69.642   0.4% |
-------------------------------------------------------------------
Total:                                             17320.041 100.0%

Date: Wed Mar  2 19:59:01 2022
