
  ___ ___ ___ _ _ _  
 |   |   |_  | | | | 
 | | | | | . | | | | 
 |__ |  _|___|_____|  1.5.1
 |___|_|             

User:   clausen@node500.cluster
Date:   Thu Mar  3 14:35:18 2022
Arch:   x86_64
Pid:    11508
Python: 3.6.12
gpaw:   /software/kemi/gpaw/1.5.1/gpaw
_gpaw:  /software/kemi/gpaw/1.5.1/bin/gpaw-python
ase:    /software/kemi/ase/3.17.0/ase (version 3.17.0)
numpy:  /opt/rh/rh-python36/root/usr/lib64/python3.6/site-packages/numpy (version 1.13.1)
scipy:  /opt/rh/rh-python36/root/usr/lib64/python3.6/site-packages/scipy (version 0.19.1)
units:  Angstrom and eV
cores:  16

Input parameters:
  kpts: [4 4 1]
  mode: {ecut: 400.0,
         gammacentered: False,
         name: pw}
  xc: RPBE

System changes: positions, numbers, cell, pbc, initial_charges, initial_magmoms 

Initialize ...

Pd-setup:
  name: Palladium
  id: 6da19bfba079f22767af9506641940b9
  Z: 46
  valence: 16
  core: 30
  charge: 0.0
  file: /software/kemi/gpaw-setups/0.9.20000/Pd.RPBE.gz
  cutoffs: 1.19(comp), 2.38(filt), 2.28(core), lmax=2
  valence states:
                energy  radius
    5s(0.00)    -3.225   1.228
    4p(6.00)   -51.131   1.360
    5p(0.00)    -0.373   1.360
    4d(10.00)    -3.964   1.228
    *s          23.987   1.228
    *d          23.247   1.228

  Using partial waves for Pd as LCAO basis

Ir-setup:
  name: Iridium
  id: 73b603359d1d5397a85ae3c2440f9033
  Z: 77
  valence: 15
  core: 62
  charge: 0.0
  file: /software/kemi/gpaw-setups/0.9.20000/Ir.RPBE.gz
  cutoffs: 1.26(comp), 2.40(filt), 2.36(core), lmax=2
  valence states:
                energy  radius
    6s(2.00)    -6.219   1.296
    5p(6.00)   -54.684   1.328
    6p(0.00)    -1.215   1.328
    5d(7.00)    -7.118   1.286
    *s          20.992   1.296
    *d          20.093   1.286

  Using partial waves for Ir as LCAO basis

Ru-setup:
  name: Ruthenium
  id: 76477906e28f51dc1b29884d53556fe9
  Z: 44
  valence: 16
  core: 28
  charge: 0.0
  file: /software/kemi/gpaw-setups/0.9.20000/Ru.RPBE.gz
  cutoffs: 1.23(comp), 2.16(filt), 1.30(core), lmax=2
  valence states:
                energy  radius
    4s(2.00)   -76.255   1.281
    5s(1.00)    -4.126   1.281
    4p(6.00)   -46.371   1.286
    5p(0.00)    -0.913   1.286
    4d(7.00)    -5.146   1.254
    *d          22.066   1.254

  Using partial waves for Ru as LCAO basis

Pt-setup:
  name: Platinum
  id: f04f522592575c47ad794f6b4a415b4b
  Z: 78
  valence: 16
  core: 62
  charge: 0.0
  file: /software/kemi/gpaw-setups/0.9.20000/Pt.RPBE.gz
  cutoffs: 1.29(comp), 2.26(filt), 2.26(core), lmax=2
  valence states:
                energy  radius
    6s(1.00)    -5.516   1.307
    5p(6.00)   -55.971   1.371
    6p(0.00)    -0.856   1.371
    5d(9.00)    -6.087   1.307
    *s          21.695   1.307
    *d          21.125   1.307

  Using partial waves for Pt as LCAO basis

Ag-setup:
  name: Silver
  id: c05e55bab2c3858b3f9398f6d75cb77c
  Z: 47
  valence: 17
  core: 30
  charge: 0.0
  file: /software/kemi/gpaw-setups/0.9.20000/Ag.RPBE.gz
  cutoffs: 1.25(comp), 2.35(filt), 2.19(core), lmax=2
  valence states:
                energy  radius
    5s(1.00)    -4.277   1.286
    4p(6.00)   -58.523   1.328
    5p(0.00)    -0.755   1.328
    4d(10.00)    -7.386   1.180
    *s          22.934   1.286
    *d          19.826   1.180

  Using partial waves for Ag as LCAO basis

O-setup:
  name: Oxygen
  id: 08071ca1eed670e7821b24b7eb4d558c
  Z: 8
  valence: 6
  core: 2
  charge: 0.0
  file: /software/kemi/gpaw-setups/0.9.20000/O.RPBE.gz
  cutoffs: 0.67(comp), 1.17(filt), 0.83(core), lmax=2
  valence states:
                energy  radius
    2s(2.00)   -24.041   0.688
    2p(4.00)    -8.984   0.598
    *s           3.170   0.688
    *p          18.228   0.598
    *d           0.000   0.619

  Using partial waves for O as LCAO basis

Reference energy: -12877847.605335

Spin-paired calculation

Occupation numbers:
  Fermi-Dirac: width=0.1000 eV

Convergence criteria:
  Maximum total energy change: 0.0005 eV / electron
  Maximum integral of absolute density change: 0.0001 electrons
  Maximum integral of absolute eigenstate change: 4e-08 eV^2
  Maximum number of iterations: 333

Symmetries present (total): 1

  ( 1  0  0)
  ( 0  1  0)
  ( 0  0  1)

16 k-points: 4 x 4 x 1 Monkhorst-Pack grid
8 k-points in the irreducible part of the Brillouin zone
       k-points in crystal coordinates                weights
   0:     0.12500000   -0.37500000    0.00000000          2/16
   1:     0.12500000   -0.12500000    0.00000000          2/16
   2:     0.12500000    0.12500000    0.00000000          2/16
   3:     0.12500000    0.37500000    0.00000000          2/16
   4:     0.37500000   -0.37500000    0.00000000          2/16
   5:     0.37500000   -0.12500000    0.00000000          2/16
   6:     0.37500000    0.12500000    0.00000000          2/16
   7:     0.37500000    0.37500000    0.00000000          2/16

Wave functions: Plane wave expansion
  Cutoff energy: 400.000 eV
  Number of coefficients (min, max): 32894, 32940
  Pulay-stress correction: 0.000000 eV/Ang^3 (de/decut=0.000000)
  Using FFTW library
  ScaLapack parameters: grid=1x1, blocksize=None
  Wavefunction extrapolation:
    Improved wavefunction reuse through dual PAW basis 

Eigensolver
   Davidson(niter=2, smin=None, normalize=True) 

Densities:
  Coarse grid: 35*35*135 grid
  Fine grid: 70*70*270 grid
  Total Charge: 0.000000 

Density mixing:
  Method: separate
  Backend: pulay
  Linear mixing parameter: 0.05
  Mixing with 5 old densities
  Damping of long wave oscillations: 50 

Hamiltonian:
  XC and Coulomb potentials evaluated on a 70*70*270 grid
  Using the RPBE Exchange-Correlation functional
 

XC parameters: RPBE with 2 nearest neighbor stencil

Memory estimate:
  Process memory now: 153.17 MiB
  Calculator: 549.89 MiB
    Density: 51.27 MiB
      Arrays: 16.41 MiB
      Localized functions: 28.50 MiB
      Mixer: 6.36 MiB
    Hamiltonian: 11.63 MiB
      Arrays: 10.73 MiB
      XC: 0.00 MiB
      Poisson: 0.00 MiB
      vbar: 0.90 MiB
    Wavefunctions: 487.00 MiB
      Arrays psit_nG: 220.15 MiB
      Eigensolver: 251.95 MiB
      Projections: 2.75 MiB
      Projectors: 5.53 MiB
      PW-descriptor: 6.62 MiB

Total number of cores used: 16
Parallelization over k-points: 8
Domain decomposition: 1 x 1 x 2

Number of atoms: 46
Number of atomic orbitals: 550
Number of bands in calculation: 438
Bands to converge: occupied states only
Number of valence electrons: 723

... initialized

Initializing position-dependent things.

Density initialized from atomic densities
Creating initial wave functions:
  438 bands from LCAO basis set

                                             
                                             
                                             
                                             
                            O                
                                             
                  Ag                         
                         Ir    Ir            
            Pd      Pd     Ir                
                   Ru     Pd     Ir          
        Ir    Pt    PAg    Pd                
                                             
        Ir     Pd    IAg    Ir     Pt        
                Ag     Ru     Pd             
                                             
           Pt     Ag    PPd    Ir            
                                             
            Pt     Pt    PPt    Ru           
       Ag     Ag     Ag                      
              Ru    Ir     Pt                
         Pd    Ir     Ru                     
                                             
                                             
                                             
                                             
                                             

Positions:
   0 Pd     0.000000    1.624086   10.000000    ( 0.0000,  0.0000,  0.0000)
   1 Ir     2.812999    1.624086   10.000000    ( 0.0000,  0.0000,  0.0000)
   2 Ru     5.625998    1.624086   10.000000    ( 0.0000,  0.0000,  0.0000)
   3 Ru     1.406500    4.060215   10.000000    ( 0.0000,  0.0000,  0.0000)
   4 Ir     4.219499    4.060215   10.000000    ( 0.0000,  0.0000,  0.0000)
   5 Pt     7.032498    4.060215   10.000000    ( 0.0000,  0.0000,  0.0000)
   6 Pd     2.812999    6.496343   10.000000    ( 0.0000,  0.0000,  0.0000)
   7 Pd     5.625998    6.496343   10.000000    ( 0.0000,  0.0000,  0.0000)
   8 Ru     8.438997    6.496343   10.000000    ( 0.0000,  0.0000,  0.0000)
   9 Ag     0.000000    0.000000   12.296804    ( 0.0000,  0.0000,  0.0000)
  10 Ag     2.812999    0.000000   12.296804    ( 0.0000,  0.0000,  0.0000)
  11 Ag     5.625998    0.000000   12.296804    ( 0.0000,  0.0000,  0.0000)
  12 Pt     1.406500    2.436129   12.296804    ( 0.0000,  0.0000,  0.0000)
  13 Pt     4.219499    2.436129   12.296804    ( 0.0000,  0.0000,  0.0000)
  14 Pt     7.032498    2.436129   12.296804    ( 0.0000,  0.0000,  0.0000)
  15 Ru     2.812999    4.872257   12.296804    ( 0.0000,  0.0000,  0.0000)
  16 Pt     5.625998    4.872257   12.296804    ( 0.0000,  0.0000,  0.0000)
  17 Ir     8.438997    4.872257   12.296804    ( 0.0000,  0.0000,  0.0000)
  18 Pt     1.331112    0.739375   14.657283    ( 0.0000,  0.0000,  0.0000)
  19 Ag     4.181622    0.793852   14.645499    ( 0.0000,  0.0000,  0.0000)
  20 Pd     7.001587    0.862206   14.620346    ( 0.0000,  0.0000,  0.0000)
  21 Ag     2.800841    3.198617   14.645984    ( 0.0000,  0.0000,  0.0000)
  22 Ru     5.661352    3.374873   14.464570    ( 0.0000,  0.0000,  0.0000)
  23 Pd     8.454364    3.209063   14.568969    ( 0.0000,  0.0000,  0.0000)
  24 Ir     4.203312    5.613553   14.568997    ( 0.0000,  0.0000,  0.0000)
  25 Ir     7.031881    5.578044   14.561300    ( 0.0000,  0.0000,  0.0000)
  26 Pt     9.857688    5.665883   14.596939    ( 0.0000,  0.0000,  0.0000)
  27 Ir    -0.077764    1.506761   16.938800    ( 0.0000,  0.0000,  0.0000)
  28 Pd     2.746751    1.593087   16.991368    ( 0.0000,  0.0000,  0.0000)
  29 Ag     5.532334    1.594992   16.918159    ( 0.0000,  0.0000,  0.0000)
  30 Pd     1.401555    4.031321   16.973309    ( 0.0000,  0.0000,  0.0000)
  31 Pd     4.186062    4.107308   16.892321    ( 0.0000,  0.0000,  0.0000)
  32 Pd     7.007491    3.969527   16.736476    ( 0.0000,  0.0000,  0.0000)
  33 Ru     2.845276    6.541012   16.753610    ( 0.0000,  0.0000,  0.0000)
  34 Pd     5.662228    6.450069   16.794393    ( 0.0000,  0.0000,  0.0000)
  35 Ir     8.552515    6.378355   16.920371    ( 0.0000,  0.0000,  0.0000)
  36 Ir     0.061963   -0.029589   18.981657    ( 0.0000,  0.0000,  0.0000)
  37 Pt     2.802470   -0.097062   19.141410    ( 0.0000,  0.0000,  0.0000)
  38 Ag     5.661265    0.013033   19.406409    ( 0.0000,  0.0000,  0.0000)
  39 Pd     1.350042    2.376862   19.278970    ( 0.0000,  0.0000,  0.0000)
  40 Pd     4.315258    2.518491   19.256067    ( 0.0000,  0.0000,  0.0000)
  41 Ir     7.173708    2.513849   19.018418    ( 0.0000,  0.0000,  0.0000)
  42 Ag     2.809713    4.893314   19.379442    ( 0.0000,  0.0000,  0.0000)
  43 Ir     5.700233    4.913916   19.039342    ( 0.0000,  0.0000,  0.0000)
  44 Ir     8.278779    4.849064   19.000358    ( 0.0000,  0.0000,  0.0000)
  45 O      7.004718    5.665706   20.706409    ( 0.0000,  0.0000,  0.0000)

Unit cell:
           periodic     x           y           z      points  spacing
  1. axis:    yes    8.465341    0.000000    0.000000    35     0.2095
  2. axis:    yes    4.232670    7.331200    0.000000    35     0.2095
  3. axis:    no     0.000000    0.000000   29.187217   135     0.2162

  Lengths:   8.465341   8.465341  29.187217
  Angles:   90.000000  90.000000  60.000000

Effective grid spacing dv^(1/3) = 0.2221

                     log10-error:    total        iterations:
           time      wfs    density  energy       fermi  poisson
iter:   1  14:37:54  +0.32   +inf  -320.667558    3             
iter:   2  14:39:05  -0.55  -1.17  -405.145477    35            
iter:   3  14:40:16  -0.66  -1.08  -340.733143    36            
iter:   4  14:41:28  -1.30  -1.16  -265.982807    36            
iter:   5  14:42:41  -1.78  -1.35  -245.941511    32            
iter:   6  14:43:52  -2.06  -1.46  -242.190618    3             
iter:   7  14:45:04  -2.14  -1.51  -239.372490    3             
iter:   8  14:46:16  -2.23  -1.58  -236.811951    3             
iter:   9  14:47:27  -1.73  -1.71  -235.871034    2             
iter:  10  14:48:39  -2.31  -1.96  -240.334602    2             
iter:  11  14:49:51  -2.92  -1.77  -235.364477    3             
iter:  12  14:51:02  -3.38  -2.11  -235.078492    3             
iter:  13  14:52:13  -3.38  -2.21  -235.175052    3             
iter:  14  14:53:26  -3.07  -2.24  -234.977981    2             
iter:  15  14:54:38  -3.56  -2.50  -234.936591    3             
iter:  16  14:55:50  -3.71  -2.61  -234.885785    2             
iter:  17  14:57:02  -4.15  -2.76  -234.888568    2             
iter:  18  14:58:15  -4.32  -2.78  -234.918190    2             
iter:  19  14:59:27  -4.30  -2.68  -234.866392    2             
iter:  20  15:00:37  -4.35  -3.00  -234.865377    2             
iter:  21  15:01:49  -4.85  -3.08  -234.868291    2             
iter:  22  15:03:01  -4.77  -3.08  -234.863822    2             
iter:  23  15:04:12  -5.30  -3.20  -234.863886    2             
iter:  24  15:05:24  -5.33  -3.25  -234.867867    2             
iter:  25  15:06:36  -5.56  -3.11  -234.863408    2             
iter:  26  15:07:48  -5.46  -3.29  -234.862637    2             
iter:  27  15:08:59  -5.63  -3.35  -234.864193    2             
iter:  28  15:10:12  -5.86  -3.33  -234.862180    2             
iter:  29  15:11:21  -5.97  -3.42  -234.862456    2             
iter:  30  15:12:33  -6.29  -3.46  -234.862423    2             
iter:  31  15:13:44  -6.35  -3.42  -234.862149    2             
iter:  32  15:14:56  -6.40  -3.49  -234.861853    2             
iter:  33  15:16:06  -6.04  -3.52  -234.862320    2             
iter:  34  15:17:18  -6.24  -3.53  -234.861520    2             
iter:  35  15:18:29  -6.38  -3.54  -234.861648    2             
iter:  36  15:19:41  -6.59  -3.60  -234.861244    2             
iter:  37  15:20:52  -6.74  -3.61  -234.861285    2             
iter:  38  15:22:04  -6.79  -3.68  -234.861352    2             
iter:  39  15:23:16  -6.42  -3.73  -234.861907    2             
iter:  40  15:24:25  -6.66  -3.67  -234.861283    2             
iter:  41  15:25:37  -6.88  -3.76  -234.861534    2             
iter:  42  15:26:50  -6.90  -3.83  -234.861413    2             
iter:  43  15:28:02  -7.05  -3.78  -234.861477    2             
iter:  44  15:29:12  -7.09  -3.90  -234.861530    2             
iter:  45  15:30:24  -6.80  -3.95  -234.861615    2             
iter:  46  15:31:36  -6.52  -3.90  -234.861730    2             
iter:  47  15:32:48  -6.63  -3.71  -234.861494    2             
iter:  48  15:34:00  -7.02  -4.05  -234.861298    2             
iter:  49  15:35:12  -7.55  -4.11  -234.861385    2             

Converged after 49 iterations.

Dipole moment: (24.006894, 16.121834, -0.159828) |e|*Ang

Energy contributions relative to reference atoms: (reference = -12877847.605335)

Kinetic:       -239.471392
Potential:     +114.232169
External:        +0.000000
XC:            -101.696463
Entropy (-ST):   -2.203233
Local:           -6.824082
--------------------------
Free energy:   -235.963002
Extrapolated:  -234.861385

Fermi level: 0.98394

Showing only first 2 kpts
 Kpt  Band  Eigenvalues  Occupancy
  0   359      0.96992    0.13375
  0   360      0.98419    0.12484
  0   361      1.02311    0.10083
  0   362      1.06118    0.07899

  1   359      0.87681    0.18621
  1   360      0.89315    0.17814
  1   361      0.93601    0.15439
  1   362      0.96885    0.13441



Forces in eV/Ang:
  0 Pd   -0.13468    0.32330   -0.35511
  1 Ir    0.94836    0.70070    0.62625
  2 Ru   -1.06686    0.28568    0.68373
  3 Ru    0.42838    0.28405    1.61931
  4 Ir   -0.57185   -0.79252    1.15815
  5 Pt    0.15460    0.15500    0.06442
  6 Pd   -0.49842   -0.41213   -0.24265
  7 Pd    0.38446   -0.26452   -0.57732
  8 Ru    0.34971   -0.14806    0.54351
  9 Ag   -0.24474   -0.09827    0.05976
 10 Ag   -0.02788   -0.11108    0.05014
 11 Ag    0.08166   -0.17002   -0.14163
 12 Pt    0.10851    0.75906   -0.54860
 13 Pt    0.10197    0.57256   -0.73798
 14 Pt   -0.11084    0.18793   -0.18519
 15 Ru   -0.38800   -0.74978   -0.99329
 16 Pt   -0.42788    0.19272   -0.13802
 17 Ir    0.89182   -0.08694   -1.04769
 18 Pt    0.01347    0.04677    0.01339
 19 Ag   -0.00404   -0.03839    0.02402
 20 Pd   -0.01298   -0.04139    0.01914
 21 Ag   -0.03071   -0.02412   -0.06140
 22 Ru   -0.01260   -0.08797   -0.01668
 23 Pd   -0.03820   -0.03146    0.05950
 24 Ir   -0.00296   -0.01582    0.00408
 25 Ir    0.00724   -0.01322    0.08276
 26 Pt    0.02915   -0.00737    0.01584
 27 Ir    0.00870   -0.03239    0.00055
 28 Pd    0.03029   -0.31817    0.29669
 29 Ag   -0.02308    0.01420   -0.01585
 30 Pd   -0.22970    0.06046    0.19194
 31 Pd    0.20803   -0.00941    0.19548
 32 Pd   -0.04396    0.02752    0.06301
 33 Ru    0.00697    0.00049    0.03178
 34 Pd    0.00891    0.05766   -0.11767
 35 Ir    0.10219   -0.09799   -0.34123
 36 Ir   -0.35193    0.11668   -0.09221
 37 Pt    0.26241    0.53987    0.46831
 38 Ag    0.15719    0.06718   -0.04561
 39 Pd   -0.01208   -0.02075   -0.01066
 40 Pd   -0.03898    0.04551   -0.15103
 41 Ir    0.01382   -0.42189   -0.04680
 42 Ag   -0.01520   -0.03810   -0.06594
 43 Ir   -0.18712   -0.08822    1.17004
 44 Ir    0.27887    0.23036    1.16402
 45 O    -0.07960   -0.52882   -2.51754

System changes: positions 

Initializing position-dependent things.

Density initialized from wave functions
                                             
                                             
                                             
                                             
                            O                
                                             
                  Ag                         
                         Ir    Ir            
            Pd     RPd    PIr    Ir          
                     Ag                      
       Ir    PPt    Pd     Pd                
               Pd                            
        Ir           IAg    Ir     Pt        
                Ag     Ru     Pd             
                                             
           Pt     Ag    PPd    Ir            
                                             
            Pt     Pt    PPt    Ru           
       Ag     Ag    IAg    Pt                
                                             
        Pd     Ir     Ru                     
                                             
                                             
                                             
                                             
                                             

Positions:
   0 Pd     0.000000    1.624086   10.000000    ( 0.0000,  0.0000,  0.0000)
   1 Ir     2.812999    1.624086   10.000000    ( 0.0000,  0.0000,  0.0000)
   2 Ru     5.625998    1.624086   10.000000    ( 0.0000,  0.0000,  0.0000)
   3 Ru     1.406500    4.060215   10.000000    ( 0.0000,  0.0000,  0.0000)
   4 Ir     4.219499    4.060215   10.000000    ( 0.0000,  0.0000,  0.0000)
   5 Pt     7.032498    4.060215   10.000000    ( 0.0000,  0.0000,  0.0000)
   6 Pd     2.812999    6.496343   10.000000    ( 0.0000,  0.0000,  0.0000)
   7 Pd     5.625998    6.496343   10.000000    ( 0.0000,  0.0000,  0.0000)
   8 Ru     8.438997    6.496343   10.000000    ( 0.0000,  0.0000,  0.0000)
   9 Ag     0.000000    0.000000   12.296804    ( 0.0000,  0.0000,  0.0000)
  10 Ag     2.812999    0.000000   12.296804    ( 0.0000,  0.0000,  0.0000)
  11 Ag     5.625998    0.000000   12.296804    ( 0.0000,  0.0000,  0.0000)
  12 Pt     1.406500    2.436129   12.296804    ( 0.0000,  0.0000,  0.0000)
  13 Pt     4.219499    2.436129   12.296804    ( 0.0000,  0.0000,  0.0000)
  14 Pt     7.032498    2.436129   12.296804    ( 0.0000,  0.0000,  0.0000)
  15 Ru     2.812999    4.872257   12.296804    ( 0.0000,  0.0000,  0.0000)
  16 Pt     5.625998    4.872257   12.296804    ( 0.0000,  0.0000,  0.0000)
  17 Ir     8.438997    4.872257   12.296804    ( 0.0000,  0.0000,  0.0000)
  18 Pt     1.332159    0.743009   14.658324    ( 0.0000,  0.0000,  0.0000)
  19 Ag     4.181309    0.790869   14.647366    ( 0.0000,  0.0000,  0.0000)
  20 Pd     7.000578    0.858990   14.621834    ( 0.0000,  0.0000,  0.0000)
  21 Ag     2.798454    3.196743   14.641212    ( 0.0000,  0.0000,  0.0000)
  22 Ru     5.660373    3.368037   14.463273    ( 0.0000,  0.0000,  0.0000)
  23 Pd     8.451395    3.206618   14.573592    ( 0.0000,  0.0000,  0.0000)
  24 Ir     4.203082    5.612324   14.569313    ( 0.0000,  0.0000,  0.0000)
  25 Ir     7.032444    5.577017   14.567731    ( 0.0000,  0.0000,  0.0000)
  26 Pt     9.859954    5.665310   14.598170    ( 0.0000,  0.0000,  0.0000)
  27 Ir    -0.077088    1.504244   16.938843    ( 0.0000,  0.0000,  0.0000)
  28 Pd     2.749105    1.568362   17.014424    ( 0.0000,  0.0000,  0.0000)
  29 Ag     5.530541    1.596095   16.916928    ( 0.0000,  0.0000,  0.0000)
  30 Pd     1.383706    4.036019   16.988225    ( 0.0000,  0.0000,  0.0000)
  31 Pd     4.202228    4.106577   16.907511    ( 0.0000,  0.0000,  0.0000)
  32 Pd     7.004075    3.971665   16.741373    ( 0.0000,  0.0000,  0.0000)
  33 Ru     2.845818    6.541051   16.756080    ( 0.0000,  0.0000,  0.0000)
  34 Pd     5.662920    6.454549   16.785249    ( 0.0000,  0.0000,  0.0000)
  35 Ir     8.560456    6.370741   16.893854    ( 0.0000,  0.0000,  0.0000)
  36 Ir     0.034615   -0.020522   18.974492    ( 0.0000,  0.0000,  0.0000)
  37 Pt     2.822862   -0.055109   19.177802    ( 0.0000,  0.0000,  0.0000)
  38 Ag     5.673480    0.018253   19.402865    ( 0.0000,  0.0000,  0.0000)
  39 Pd     1.349104    2.375250   19.278142    ( 0.0000,  0.0000,  0.0000)
  40 Pd     4.312229    2.522028   19.244330    ( 0.0000,  0.0000,  0.0000)
  41 Ir     7.174782    2.481065   19.014781    ( 0.0000,  0.0000,  0.0000)
  42 Ag     2.808531    4.890354   19.374318    ( 0.0000,  0.0000,  0.0000)
  43 Ir     5.685692    4.907061   19.130264    ( 0.0000,  0.0000,  0.0000)
  44 Ir     8.300450    4.866965   19.090813    ( 0.0000,  0.0000,  0.0000)
  45 O      6.998532    5.624612   20.510775    ( 0.0000,  0.0000,  0.0000)

Unit cell:
           periodic     x           y           z      points  spacing
  1. axis:    yes    8.465341    0.000000    0.000000    35     0.2095
  2. axis:    yes    4.232670    7.331200    0.000000    35     0.2095
  3. axis:    no     0.000000    0.000000   29.187217   135     0.2162

  Lengths:   8.465341   8.465341  29.187217
  Angles:   90.000000  90.000000  60.000000

Effective grid spacing dv^(1/3) = 0.2221

                     log10-error:    total        iterations:
           time      wfs    density  energy       fermi  poisson
iter:   1  15:36:54  -1.78   +inf  -242.552121    37            
iter:   2  15:38:07  -1.20  -1.79  -323.446380    38            
iter:   3  15:39:18  -1.42  -1.29  -259.364182    36            
iter:   4  15:40:29  -2.29  -1.56  -237.075782    37            
iter:   5  15:41:42  -2.98  -2.10  -237.363566    3             
iter:   6  15:42:53  -3.07  -2.02  -235.876667    3             
iter:   7  15:44:05  -3.70  -2.36  -235.654800    2             
iter:   8  15:45:16  -3.59  -2.52  -235.540224    2             
iter:   9  15:46:28  -4.07  -2.61  -235.469597    2             
iter:  10  15:47:40  -4.35  -2.76  -235.515165    2             
iter:  11  15:48:52  -4.19  -2.63  -235.445469    2             
iter:  12  15:50:04  -4.00  -2.87  -235.425221    3             
iter:  13  15:51:16  -4.43  -2.95  -235.447133    2             
iter:  14  15:52:28  -4.79  -2.83  -235.411371    2             
iter:  15  15:53:41  -4.95  -3.20  -235.412690    2             
iter:  16  15:54:51  -5.35  -3.17  -235.414007    2             
iter:  17  15:56:04  -5.51  -3.09  -235.406650    2             
iter:  18  15:57:15  -5.41  -3.43  -235.405502    2             
iter:  19  15:58:28  -5.64  -3.47  -235.407554    2             
iter:  20  15:59:39  -5.56  -3.37  -235.405499    2             
iter:  21  16:00:51  -5.49  -3.53  -235.404912    2             
iter:  22  16:02:03  -5.79  -3.62  -235.406344    2             
iter:  23  16:03:14  -5.92  -3.47  -235.404804    2             
iter:  24  16:04:26  -6.63  -3.70  -235.404237    2             
iter:  25  16:05:37  -6.20  -3.91  -235.405227    2             
iter:  26  16:06:49  -6.67  -3.79  -235.404315    2             
iter:  27  16:08:01  -6.80  -3.97  -235.404262    2             
iter:  28  16:09:11  -6.79  -4.27  -235.404301    2             
iter:  29  16:10:23  -7.42  -4.28  -235.404385    2             

Converged after 29 iterations.

Dipole moment: (23.892387, 13.729328, -0.053247) |e|*Ang

Energy contributions relative to reference atoms: (reference = -12877847.605335)

Kinetic:       -227.216571
Potential:     +102.754491
External:        +0.000000
XC:            -102.959963
Entropy (-ST):   -2.181109
Local:           -6.891787
--------------------------
Free energy:   -236.494939
Extrapolated:  -235.404385

Fermi level: 1.04026

Showing only first 2 kpts
 Kpt  Band  Eigenvalues  Occupancy
  0   359      1.02686    0.13336
  0   360      1.05753    0.11423
  0   361      1.07579    0.10303
  0   362      1.10735    0.08457

  1   359      0.93341    0.18608
  1   360      0.94032    0.18274
  1   361      0.98434    0.15907
  1   362      1.02075    0.13716



Forces in eV/Ang:
  0 Pd   -0.13452    0.31991   -0.35410
  1 Ir    0.94478    0.69932    0.62791
  2 Ru   -1.06835    0.28534    0.69282
  3 Ru    0.43234    0.28210    1.62304
  4 Ir   -0.57095   -0.80090    1.16293
  5 Pt    0.15764    0.15524    0.06996
  6 Pd   -0.49464   -0.41268   -0.23461
  7 Pd    0.38273   -0.25834   -0.56857
  8 Ru    0.34838   -0.14454    0.55529
  9 Ag   -0.24632   -0.10034    0.06717
 10 Ag   -0.02574   -0.11975    0.07114
 11 Ag    0.08442   -0.17283   -0.13137
 12 Pt    0.08738    0.75207   -0.53137
 13 Pt    0.10219    0.55769   -0.72305
 14 Pt   -0.10027    0.17870   -0.16399
 15 Ru   -0.38733   -0.72922   -0.97934
 16 Pt   -0.41982    0.19254   -0.10460
 17 Ir    0.88506   -0.10096   -1.04199
 18 Pt    0.00510    0.05729   -0.02226
 19 Ag   -0.01445   -0.00357    0.00393
 20 Pd   -0.00367   -0.02715   -0.00587
 21 Ag   -0.01699   -0.02515    0.09343
 22 Ru   -0.00244   -0.00940    0.00431
 23 Pd   -0.02075   -0.01492    0.04667
 24 Ir    0.01268   -0.05335    0.02259
 25 Ir    0.00944   -0.03386    0.07814
 26 Pt    0.07925   -0.06521   -0.02311
 27 Ir    0.03961    0.01763   -0.16252
 28 Pd    0.03086   -0.09041    0.10037
 29 Ag   -0.01840   -0.00472   -0.05936
 30 Pd   -0.05748   -0.04613    0.16527
 31 Pd    0.02022   -0.00409    0.12565
 32 Pd    0.07910    0.13503    0.30935
 33 Ru   -0.04060   -0.06481   -0.03500
 34 Pd    0.04324   -0.09019    0.20949
 35 Ir   -0.04974   -0.13011   -0.04380
 36 Ir   -0.19400    0.05318    0.06555
 37 Pt    0.07190    0.68764   -0.28919
 38 Ag    0.09058    0.05766   -0.04795
 39 Pd   -0.01542    0.05190    0.03320
 40 Pd   -0.01899    0.06097   -0.07487
 41 Ir    0.13146   -0.15063    0.06936
 42 Ag   -0.02497   -0.04586   -0.07274
 43 Ir   -0.36258   -0.12957   -0.07673
 44 Ir    0.23681   -0.26140   -0.15672
 45 O    -0.05914   -0.45189   -0.11509

System changes: positions 

Initializing position-dependent things.

Density initialized from wave functions
                                            
                                            
                                            
                                            
                           O                
                                            
                 Ag     Ir    Ir            
            Pd     Pd                       
                  Ru     PIr    Ir          
       Ir    PPt    PAg                     
                           Pd               
        Ir     Pd    IAg    Ir    Pt        
                                            
                Ag     Ru     Pd            
           Pt     Ag     Pd                 
                 Ru     Pt     Ir           
            Pt     Pt     Pt                
                  Pd     Pd    Ru           
       Ag    RAg    IAg    Pt               
        Pd     Ir     Ru                    
                                            
                                            
                                            
                                            
                                            

Positions:
   0 Pd     0.000000    1.624086   10.000000    ( 0.0000,  0.0000,  0.0000)
   1 Ir     2.812999    1.624086   10.000000    ( 0.0000,  0.0000,  0.0000)
   2 Ru     5.625998    1.624086   10.000000    ( 0.0000,  0.0000,  0.0000)
   3 Ru     1.406500    4.060215   10.000000    ( 0.0000,  0.0000,  0.0000)
   4 Ir     4.219499    4.060215   10.000000    ( 0.0000,  0.0000,  0.0000)
   5 Pt     7.032498    4.060215   10.000000    ( 0.0000,  0.0000,  0.0000)
   6 Pd     2.812999    6.496343   10.000000    ( 0.0000,  0.0000,  0.0000)
   7 Pd     5.625998    6.496343   10.000000    ( 0.0000,  0.0000,  0.0000)
   8 Ru     8.438997    6.496343   10.000000    ( 0.0000,  0.0000,  0.0000)
   9 Ag     0.000000    0.000000   12.296804    ( 0.0000,  0.0000,  0.0000)
  10 Ag     2.812999    0.000000   12.296804    ( 0.0000,  0.0000,  0.0000)
  11 Ag     5.625998    0.000000   12.296804    ( 0.0000,  0.0000,  0.0000)
  12 Pt     1.406500    2.436129   12.296804    ( 0.0000,  0.0000,  0.0000)
  13 Pt     4.219499    2.436129   12.296804    ( 0.0000,  0.0000,  0.0000)
  14 Pt     7.032498    2.436129   12.296804    ( 0.0000,  0.0000,  0.0000)
  15 Ru     2.812999    4.872257   12.296804    ( 0.0000,  0.0000,  0.0000)
  16 Pt     5.625998    4.872257   12.296804    ( 0.0000,  0.0000,  0.0000)
  17 Ir     8.438997    4.872257   12.296804    ( 0.0000,  0.0000,  0.0000)
  18 Pt     1.332902    0.749912   14.656079    ( 0.0000,  0.0000,  0.0000)
  19 Ag     4.179675    0.789947   14.648128    ( 0.0000,  0.0000,  0.0000)
  20 Pd     6.999998    0.855453   14.621458    ( 0.0000,  0.0000,  0.0000)
  21 Ag     2.796174    3.193663   14.650562    ( 0.0000,  0.0000,  0.0000)
  22 Ru     5.659932    3.365791   14.463513    ( 0.0000,  0.0000,  0.0000)
  23 Pd     8.448600    3.204554   14.579512    ( 0.0000,  0.0000,  0.0000)
  24 Ir     4.204425    5.606280   14.571836    ( 0.0000,  0.0000,  0.0000)
  25 Ir     7.033574    5.573137   14.577408    ( 0.0000,  0.0000,  0.0000)
  26 Pt     9.869010    5.658089   14.595866    ( 0.0000,  0.0000,  0.0000)
  27 Ir    -0.072643    1.505720   16.921106    ( 0.0000,  0.0000,  0.0000)
  28 Pd     2.752894    1.554083   17.029493    ( 0.0000,  0.0000,  0.0000)
  29 Ag     5.528213    1.595776   16.910228    ( 0.0000,  0.0000,  0.0000)
  30 Pd     1.374248    4.031820   17.008929    ( 0.0000,  0.0000,  0.0000)
  31 Pd     4.207317    4.106001   16.923938    ( 0.0000,  0.0000,  0.0000)
  32 Pd     7.012102    3.986789   16.776020    ( 0.0000,  0.0000,  0.0000)
  33 Ru     2.841482    6.533982   16.752699    ( 0.0000,  0.0000,  0.0000)
  34 Pd     5.667764    6.445501   16.806490    ( 0.0000,  0.0000,  0.0000)
  35 Ir     8.556441    6.355178   16.884344    ( 0.0000,  0.0000,  0.0000)
  36 Ir     0.008558   -0.013099   18.980371    ( 0.0000,  0.0000,  0.0000)
  37 Pt     2.834347    0.027448   19.152718    ( 0.0000,  0.0000,  0.0000)
  38 Ag     5.685548    0.025480   19.396998    ( 0.0000,  0.0000,  0.0000)
  39 Pd     1.347253    2.380628   19.281619    ( 0.0000,  0.0000,  0.0000)
  40 Pd     4.309616    2.529315   19.234063    ( 0.0000,  0.0000,  0.0000)
  41 Ir     7.189326    2.458773   19.021706    ( 0.0000,  0.0000,  0.0000)
  42 Ag     2.805595    4.884818   19.365463    ( 0.0000,  0.0000,  0.0000)
  43 Ir     5.643513    4.891691   19.138098    ( 0.0000,  0.0000,  0.0000)
  44 Ir     8.330169    4.841616   19.089830    ( 0.0000,  0.0000,  0.0000)
  45 O      6.990972    5.567948   20.463327    ( 0.0000,  0.0000,  0.0000)

Unit cell:
           periodic     x           y           z      points  spacing
  1. axis:    yes    8.465341    0.000000    0.000000    35     0.2095
  2. axis:    yes    4.232670    7.331200    0.000000    35     0.2095
  3. axis:    no     0.000000    0.000000   29.187217   135     0.2162

  Lengths:   8.465341   8.465341  29.187217
  Angles:   90.000000  90.000000  60.000000

Effective grid spacing dv^(1/3) = 0.2221

                     log10-error:    total        iterations:
           time      wfs    density  energy       fermi  poisson
iter:   1  16:12:07  -2.02   +inf  -237.577986    4             
iter:   2  16:13:19  -1.69  -2.02  -277.175598    37            
iter:   3  16:14:32  -2.25  -1.43  -238.356650    36            
iter:   4  16:15:43  -2.72  -1.99  -236.091565    3             
iter:   5  16:16:55  -3.40  -2.29  -235.543742    3             
iter:   6  16:18:07  -4.18  -2.69  -235.532757    3             
iter:   7  16:19:19  -4.15  -2.68  -235.524683    2             
iter:   8  16:20:30  -4.10  -2.77  -235.485369    2             
iter:   9  16:21:41  -4.53  -2.91  -235.469059    2             
iter:  10  16:22:53  -4.87  -3.15  -235.461897    2             
iter:  11  16:24:04  -5.08  -3.34  -235.460640    2             
iter:  12  16:25:15  -5.13  -3.45  -235.459640    2             
iter:  13  16:26:27  -5.46  -3.52  -235.460709    2             
iter:  14  16:27:38  -5.97  -3.48  -235.459903    2             
iter:  15  16:28:49  -5.87  -3.58  -235.460195    2             
iter:  16  16:30:00  -6.19  -3.53  -235.459139    2             
iter:  17  16:31:11  -6.14  -3.85  -235.459856    2             
iter:  18  16:32:23  -6.37  -3.85  -235.458931    2             
iter:  19  16:33:35  -6.80  -4.04  -235.459166    2             
iter:  20  16:34:46  -6.80  -4.13  -235.459166    2             
iter:  21  16:35:57  -7.01  -3.98  -235.459065    2             
iter:  22  16:37:09  -6.92  -4.08  -235.459009    2             
iter:  23  16:38:21  -7.30  -4.18  -235.459089    2             
iter:  24  16:39:33  -7.27  -4.32  -235.458944    2             
iter:  25  16:40:44  -7.57  -4.15  -235.459044    2             

Converged after 25 iterations.

Dipole moment: (22.911112, 9.114765, -0.053418) |e|*Ang

Energy contributions relative to reference atoms: (reference = -12877847.605335)

Kinetic:       -229.623000
Potential:     +104.895482
External:        +0.000000
XC:            -102.750246
Entropy (-ST):   -2.183116
Local:           -6.889722
--------------------------
Free energy:   -236.550602
Extrapolated:  -235.459044

Fermi level: 1.03792

Showing only first 2 kpts
 Kpt  Band  Eigenvalues  Occupancy
  0   359      1.01932    0.13659
  0   360      1.06084    0.11074
  0   361      1.07208    0.10385
  0   362      1.09426    0.09069

  1   359      0.93287    0.18522
  1   360      0.93694    0.18324
  1   361      0.97989    0.16028
  1   362      1.02137    0.13532



Forces in eV/Ang:
  0 Pd   -0.13549    0.32299   -0.35607
  1 Ir    0.95522    0.70515    0.62368
  2 Ru   -1.07411    0.28424    0.68781
  3 Ru    0.43528    0.28217    1.63260
  4 Ir   -0.57589   -0.80858    1.15397
  5 Pt    0.15319    0.15426    0.06900
  6 Pd   -0.49947   -0.41643   -0.23584
  7 Pd    0.38546   -0.26060   -0.57001
  8 Ru    0.35095   -0.13826    0.55348
  9 Ag   -0.24473   -0.11083    0.07666
 10 Ag   -0.02316   -0.13857    0.08803
 11 Ag    0.07867   -0.17575   -0.13143
 12 Pt    0.08643    0.76945   -0.52214
 13 Pt    0.09685    0.56498   -0.71568
 14 Pt   -0.09599    0.18659   -0.15911
 15 Ru   -0.38444   -0.74578   -0.96599
 16 Pt   -0.39468    0.18921   -0.07631
 17 Ir    0.87379   -0.12026   -1.03536
 18 Pt    0.00658   -0.07353    0.09424
 19 Ag   -0.00972   -0.03340   -0.00907
 20 Pd   -0.00725   -0.02753   -0.03000
 21 Ag    0.00797   -0.02504    0.10209
 22 Ru    0.02866    0.03162    0.08061
 23 Pd   -0.04890    0.01475    0.09064
 24 Ir    0.05202   -0.02640    0.04929
 25 Ir   -0.01397   -0.02712    0.04714
 26 Pt    0.03855   -0.05503   -0.03000
 27 Ir   -0.00147   -0.06923   -0.05051
 28 Pd   -0.01128    0.19519   -0.29683
 29 Ag    0.05191    0.00240   -0.03428
 30 Pd    0.13617   -0.12326   -0.05042
 31 Pd   -0.07855   -0.01764   -0.06049
 32 Pd   -0.00917   -0.00381    0.03542
 33 Ru   -0.00774   -0.00811   -0.02136
 34 Pd   -0.03821   -0.01870    0.06617
 35 Ir   -0.03519    0.00471    0.01498
 36 Ir    0.03624    0.05306   -0.06064
 37 Pt    0.07504   -0.46555    0.19214
 38 Ag   -0.05055    0.00167   -0.03448
 39 Pd    0.00290    0.08730    0.10657
 40 Pd    0.02237   -0.00149    0.01998
 41 Ir    0.05283   -0.10957    0.02469
 42 Ag   -0.06451    0.00900   -0.00372
 43 Ir    0.21868    0.22153   -0.05672
 44 Ir   -0.37238    0.06504   -0.05616
 45 O    -0.06718   -0.07860   -0.02630

System changes: positions 

Initializing position-dependent things.

Density initialized from wave functions
                                            
                                            
                                            
                                            
                           O                
                                            
                 Ag     Ir    Ir            
            Pd     Pd                       
                  Ru     PIr    Ir          
       Ir    PPt    PAg                     
                           Pd               
        Ir     Pd    IAg    Ir    Pt        
                                            
                Ag     Ru     Pd            
           Pt     Ag     Pd                 
                 Ru     Pt     Ir           
            Pt     Pt     Pt                
                  Pd     Pd    Ru           
       Ag    RAg    IAg    Pt               
        Pd     Ir     Ru                    
                                            
                                            
                                            
                                            
                                            

Positions:
   0 Pd     0.000000    1.624086   10.000000    ( 0.0000,  0.0000,  0.0000)
   1 Ir     2.812999    1.624086   10.000000    ( 0.0000,  0.0000,  0.0000)
   2 Ru     5.625998    1.624086   10.000000    ( 0.0000,  0.0000,  0.0000)
   3 Ru     1.406500    4.060215   10.000000    ( 0.0000,  0.0000,  0.0000)
   4 Ir     4.219499    4.060215   10.000000    ( 0.0000,  0.0000,  0.0000)
   5 Pt     7.032498    4.060215   10.000000    ( 0.0000,  0.0000,  0.0000)
   6 Pd     2.812999    6.496343   10.000000    ( 0.0000,  0.0000,  0.0000)
   7 Pd     5.625998    6.496343   10.000000    ( 0.0000,  0.0000,  0.0000)
   8 Ru     8.438997    6.496343   10.000000    ( 0.0000,  0.0000,  0.0000)
   9 Ag     0.000000    0.000000   12.296804    ( 0.0000,  0.0000,  0.0000)
  10 Ag     2.812999    0.000000   12.296804    ( 0.0000,  0.0000,  0.0000)
  11 Ag     5.625998    0.000000   12.296804    ( 0.0000,  0.0000,  0.0000)
  12 Pt     1.406500    2.436129   12.296804    ( 0.0000,  0.0000,  0.0000)
  13 Pt     4.219499    2.436129   12.296804    ( 0.0000,  0.0000,  0.0000)
  14 Pt     7.032498    2.436129   12.296804    ( 0.0000,  0.0000,  0.0000)
  15 Ru     2.812999    4.872257   12.296804    ( 0.0000,  0.0000,  0.0000)
  16 Pt     5.625998    4.872257   12.296804    ( 0.0000,  0.0000,  0.0000)
  17 Ir     8.438997    4.872257   12.296804    ( 0.0000,  0.0000,  0.0000)
  18 Pt     1.333474    0.745448   14.662674    ( 0.0000,  0.0000,  0.0000)
  19 Ag     4.178700    0.787422   14.647514    ( 0.0000,  0.0000,  0.0000)
  20 Pd     6.999401    0.852947   14.619119    ( 0.0000,  0.0000,  0.0000)
  21 Ag     2.796478    3.191370   14.659817    ( 0.0000,  0.0000,  0.0000)
  22 Ru     5.662022    3.368010   14.469579    ( 0.0000,  0.0000,  0.0000)
  23 Pd     8.444621    3.205398   14.587038    ( 0.0000,  0.0000,  0.0000)
  24 Ir     4.208511    5.603384   14.575892    ( 0.0000,  0.0000,  0.0000)
  25 Ir     7.032701    5.570531   14.582253    ( 0.0000,  0.0000,  0.0000)
  26 Pt     9.873260    5.652855   14.593224    ( 0.0000,  0.0000,  0.0000)
  27 Ir    -0.072055    1.500908   16.914483    ( 0.0000,  0.0000,  0.0000)
  28 Pd     2.752589    1.567109   17.009110    ( 0.0000,  0.0000,  0.0000)
  29 Ag     5.531750    1.595865   16.906641    ( 0.0000,  0.0000,  0.0000)
  30 Pd     1.383437    4.021830   17.008027    ( 0.0000,  0.0000,  0.0000)
  31 Pd     4.201755    4.104624   16.921585    ( 0.0000,  0.0000,  0.0000)
  32 Pd     7.012839    3.988883   16.784093    ( 0.0000,  0.0000,  0.0000)
  33 Ru     2.840186    6.532233   16.750481    ( 0.0000,  0.0000,  0.0000)
  34 Pd     5.665689    6.442493   16.815158    ( 0.0000,  0.0000,  0.0000)
  35 Ir     8.552905    6.353270   16.884831    ( 0.0000,  0.0000,  0.0000)
  36 Ir     0.007970   -0.008272   18.977071    ( 0.0000,  0.0000,  0.0000)
  37 Pt     2.841073    0.004824   19.161657    ( 0.0000,  0.0000,  0.0000)
  38 Ag     5.683330    0.026595   19.393611    ( 0.0000,  0.0000,  0.0000)
  39 Pd     1.347201    2.388034   19.290119    ( 0.0000,  0.0000,  0.0000)
  40 Pd     4.310957    2.530264   19.234288    ( 0.0000,  0.0000,  0.0000)
  41 Ir     7.195566    2.448162   19.024786    ( 0.0000,  0.0000,  0.0000)
  42 Ag     2.800372    4.884692   19.363929    ( 0.0000,  0.0000,  0.0000)
  43 Ir     5.653412    4.905879   19.132021    ( 0.0000,  0.0000,  0.0000)
  44 Ir     8.306600    4.841719   19.082382    ( 0.0000,  0.0000,  0.0000)
  45 O      6.984975    5.554353   20.460440    ( 0.0000,  0.0000,  0.0000)

Unit cell:
           periodic     x           y           z      points  spacing
  1. axis:    yes    8.465341    0.000000    0.000000    35     0.2095
  2. axis:    yes    4.232670    7.331200    0.000000    35     0.2095
  3. axis:    no     0.000000    0.000000   29.187217   135     0.2162

  Lengths:   8.465341   8.465341  29.187217
  Angles:   90.000000  90.000000  60.000000

Effective grid spacing dv^(1/3) = 0.2221

                     log10-error:    total        iterations:
           time      wfs    density  energy       fermi  poisson
iter:   1  16:42:26  -2.80   +inf  -235.658261    3             
iter:   2  16:43:39  -3.09  -2.62  -238.253119    3             
iter:   3  16:44:51  -3.29  -1.94  -235.639655    3             
iter:   4  16:46:03  -4.22  -2.56  -235.534966    3             
iter:   5  16:47:16  -4.63  -2.82  -235.501726    3             
iter:   6  16:48:26  -4.95  -3.14  -235.493841    2             
iter:   7  16:49:38  -5.14  -3.34  -235.492194    2             
iter:   8  16:50:50  -5.49  -3.47  -235.491600    2             
iter:   9  16:51:59  -5.40  -3.54  -235.491110    2             
iter:  10  16:53:11  -5.71  -3.58  -235.493155    2             
iter:  11  16:54:22  -5.84  -3.39  -235.491324    2             
iter:  12  16:55:35  -6.01  -3.77  -235.490317    2             
iter:  13  16:56:46  -6.55  -3.76  -235.490507    2             
iter:  14  16:57:57  -6.86  -3.95  -235.490455    2             
iter:  15  16:59:09  -6.70  -4.01  -235.490499    2             
iter:  16  17:00:20  -7.01  -3.91  -235.490422    2             
iter:  17  17:01:32  -7.04  -3.99  -235.490511    2             
iter:  18  17:02:44  -6.99  -4.13  -235.490332    2             
iter:  19  17:03:56  -6.93  -4.04  -235.490556    2             
iter:  20  17:05:08  -7.13  -4.27  -235.490438    2             
iter:  21  17:06:20  -7.41  -4.44  -235.490399    2             

Converged after 21 iterations.

Dipole moment: (24.147360, 9.613795, -0.041572) |e|*Ang

Energy contributions relative to reference atoms: (reference = -12877847.605335)

Kinetic:       -227.052560
Potential:     +102.644644
External:        +0.000000
XC:            -103.093209
Entropy (-ST):   -2.180599
Local:           -6.898974
--------------------------
Free energy:   -236.580699
Extrapolated:  -235.490399

Fermi level: 1.04353

Showing only first 2 kpts
 Kpt  Band  Eigenvalues  Occupancy
  0   359      1.02471    0.13673
  0   360      1.06602    0.11101
  0   361      1.07799    0.10368
  0   362      1.10180    0.08958

  1   359      0.94043    0.18428
  1   360      0.94436    0.18236
  1   361      0.98747    0.15915
  1   362      1.02693    0.13535



Forces in eV/Ang:
  0 Pd   -0.13470    0.32412   -0.35730
  1 Ir    0.95615    0.70551    0.62439
  2 Ru   -1.07545    0.28458    0.69307
  3 Ru    0.43538    0.28408    1.63922
  4 Ir   -0.57629   -0.80800    1.15108
  5 Pt    0.15286    0.15404    0.06983
  6 Pd   -0.50020   -0.41691   -0.23527
  7 Pd    0.38574   -0.26011   -0.57124
  8 Ru    0.35186   -0.13754    0.55323
  9 Ag   -0.23423   -0.11243    0.09447
 10 Ag   -0.03088   -0.14423    0.10315
 11 Ag    0.07417   -0.17952   -0.13511
 12 Pt    0.08573    0.77645   -0.48166
 13 Pt    0.09147    0.58053   -0.68696
 14 Pt   -0.09202    0.19997   -0.14179
 15 Ru   -0.38207   -0.76954   -0.95575
 16 Pt   -0.38768    0.17824   -0.05249
 17 Ir    0.87082   -0.13293   -1.02188
 18 Pt   -0.01615   -0.07290    0.02376
 19 Ag    0.02212   -0.04608   -0.02931
 20 Pd   -0.00709   -0.02754   -0.03484
 21 Ag    0.00459   -0.01494   -0.03315
 22 Ru    0.00897   -0.01263    0.02394
 23 Pd   -0.01413   -0.01353    0.03780
 24 Ir    0.02487   -0.00365    0.02072
 25 Ir    0.00564    0.01116    0.02272
 26 Pt   -0.00005   -0.02015   -0.00022
 27 Ir   -0.00859   -0.02978   -0.01796
 28 Pd   -0.01851   -0.01690    0.00535
 29 Ag    0.03298    0.00677   -0.00518
 30 Pd   -0.00183    0.00149   -0.01969
 31 Pd    0.01054   -0.00013   -0.02042
 32 Pd   -0.05031   -0.06204   -0.03294
 33 Ru   -0.00816   -0.00072   -0.01553
 34 Pd   -0.00380    0.03108    0.01169
 35 Ir    0.02086   -0.02567   -0.02397
 36 Ir    0.04567    0.04093    0.00389
 37 Pt    0.00746   -0.06166   -0.05922
 38 Ag   -0.05527   -0.02531   -0.03041
 39 Pd    0.07527   -0.03071    0.04481
 40 Pd    0.03039   -0.01105   -0.01279
 41 Ir    0.00899   -0.12175   -0.02823
 42 Ag   -0.03331    0.04233   -0.00172
 43 Ir   -0.18218    0.03441   -0.13123
 44 Ir    0.02428   -0.05754   -0.10233
 45 O    -0.00696   -0.12860    0.36378

System changes: positions 

Initializing position-dependent things.

Density initialized from wave functions
                                            
                                            
                                            
                                            
                           O                
                                            
                 Ag     Ir    Ir            
            Pd     Pd                       
                  Ru     PIr    Ir          
       Ir    PPt    PAg                     
                           Pd               
        Ir     Pd    IAg          Pt        
                            Ir              
                Ag     Ru     Pd            
           Pt     Ag     Pd                 
                 Ru     Pt     Ir           
            Pt     Pt     Pt                
                  Pd     Pd    Ru           
       Ag    RAg    IAg    Pt               
        Pd     Ir     Ru                    
                                            
                                            
                                            
                                            
                                            

Positions:
   0 Pd     0.000000    1.624086   10.000000    ( 0.0000,  0.0000,  0.0000)
   1 Ir     2.812999    1.624086   10.000000    ( 0.0000,  0.0000,  0.0000)
   2 Ru     5.625998    1.624086   10.000000    ( 0.0000,  0.0000,  0.0000)
   3 Ru     1.406500    4.060215   10.000000    ( 0.0000,  0.0000,  0.0000)
   4 Ir     4.219499    4.060215   10.000000    ( 0.0000,  0.0000,  0.0000)
   5 Pt     7.032498    4.060215   10.000000    ( 0.0000,  0.0000,  0.0000)
   6 Pd     2.812999    6.496343   10.000000    ( 0.0000,  0.0000,  0.0000)
   7 Pd     5.625998    6.496343   10.000000    ( 0.0000,  0.0000,  0.0000)
   8 Ru     8.438997    6.496343   10.000000    ( 0.0000,  0.0000,  0.0000)
   9 Ag     0.000000    0.000000   12.296804    ( 0.0000,  0.0000,  0.0000)
  10 Ag     2.812999    0.000000   12.296804    ( 0.0000,  0.0000,  0.0000)
  11 Ag     5.625998    0.000000   12.296804    ( 0.0000,  0.0000,  0.0000)
  12 Pt     1.406500    2.436129   12.296804    ( 0.0000,  0.0000,  0.0000)
  13 Pt     4.219499    2.436129   12.296804    ( 0.0000,  0.0000,  0.0000)
  14 Pt     7.032498    2.436129   12.296804    ( 0.0000,  0.0000,  0.0000)
  15 Ru     2.812999    4.872257   12.296804    ( 0.0000,  0.0000,  0.0000)
  16 Pt     5.625998    4.872257   12.296804    ( 0.0000,  0.0000,  0.0000)
  17 Ir     8.438997    4.872257   12.296804    ( 0.0000,  0.0000,  0.0000)
  18 Pt     1.332011    0.734785   14.668965    ( 0.0000,  0.0000,  0.0000)
  19 Ag     4.180720    0.780997   14.644041    ( 0.0000,  0.0000,  0.0000)
  20 Pd     6.998311    0.848763   14.614216    ( 0.0000,  0.0000,  0.0000)
  21 Ag     2.797201    3.188704   14.659993    ( 0.0000,  0.0000,  0.0000)
  22 Ru     5.664076    3.367612   14.475270    ( 0.0000,  0.0000,  0.0000)
  23 Pd     8.441074    3.204410   14.594843    ( 0.0000,  0.0000,  0.0000)
  24 Ir     4.213231    5.601919   14.580073    ( 0.0000,  0.0000,  0.0000)
  25 Ir     7.032792    5.570656   14.586790    ( 0.0000,  0.0000,  0.0000)
  26 Pt     9.874830    5.648507   14.592082    ( 0.0000,  0.0000,  0.0000)
  27 Ir    -0.073026    1.494880   16.910582    ( 0.0000,  0.0000,  0.0000)
  28 Pd     2.750221    1.571950   16.998996    ( 0.0000,  0.0000,  0.0000)
  29 Ag     5.537292    1.596737   16.904705    ( 0.0000,  0.0000,  0.0000)
  30 Pd     1.387876    4.017378   17.004462    ( 0.0000,  0.0000,  0.0000)
  31 Pd     4.200447    4.103897   16.917563    ( 0.0000,  0.0000,  0.0000)
  32 Pd     7.006873    3.982050   16.782037    ( 0.0000,  0.0000,  0.0000)
  33 Ru     2.839021    6.531847   16.748056    ( 0.0000,  0.0000,  0.0000)
  34 Pd     5.663811    6.445323   16.818643    ( 0.0000,  0.0000,  0.0000)
  35 Ir     8.554107    6.350389   16.881824    ( 0.0000,  0.0000,  0.0000)
  36 Ir     0.013351   -0.001423   18.974863    ( 0.0000,  0.0000,  0.0000)
  37 Pt     2.845554   -0.018499   19.164065    ( 0.0000,  0.0000,  0.0000)
  38 Ag     5.675795    0.024094   19.388833    ( 0.0000,  0.0000,  0.0000)
  39 Pd     1.355472    2.388022   19.299106    ( 0.0000,  0.0000,  0.0000)
  40 Pd     4.315024    2.529128   19.233244    ( 0.0000,  0.0000,  0.0000)
  41 Ir     7.198625    2.429447   19.022532    ( 0.0000,  0.0000,  0.0000)
  42 Ag     2.794198    4.889544   19.363413    ( 0.0000,  0.0000,  0.0000)
  43 Ir     5.641585    4.917996   19.118921    ( 0.0000,  0.0000,  0.0000)
  44 Ir     8.295543    4.838677   19.072439    ( 0.0000,  0.0000,  0.0000)
  45 O      6.981381    5.535818   20.491746    ( 0.0000,  0.0000,  0.0000)

Unit cell:
           periodic     x           y           z      points  spacing
  1. axis:    yes    8.465341    0.000000    0.000000    35     0.2095
  2. axis:    yes    4.232670    7.331200    0.000000    35     0.2095
  3. axis:    no     0.000000    0.000000   29.187217   135     0.2162

  Lengths:   8.465341   8.465341  29.187217
  Angles:   90.000000  90.000000  60.000000

Effective grid spacing dv^(1/3) = 0.2221

                     log10-error:    total        iterations:
           time      wfs    density  energy       fermi  poisson
iter:   1  17:08:04  -2.70   +inf  -236.670404    3             
iter:   2  17:09:16  -2.03  -2.17  -271.634468    3             
iter:   3  17:10:28  -2.23  -1.43  -235.685925    3             
iter:   4  17:11:41  -3.72  -2.55  -235.632165    2             
iter:   5  17:12:48  -4.18  -2.61  -235.512588    3             
iter:   6  17:13:59  -4.86  -3.12  -235.507502    2             
iter:   7  17:15:11  -5.13  -3.22  -235.503283    2             
iter:   8  17:16:22  -5.35  -3.35  -235.501701    2             
iter:   9  17:17:33  -5.34  -3.42  -235.506545    2             
iter:  10  17:18:44  -5.44  -3.25  -235.504323    2             
iter:  11  17:19:55  -5.54  -3.26  -235.499864    2             
iter:  12  17:21:06  -5.92  -3.59  -235.500294    2             
iter:  13  17:22:17  -6.02  -3.64  -235.499694    2             
iter:  14  17:23:23  -6.27  -3.72  -235.499430    2             
iter:  15  17:24:34  -6.31  -3.82  -235.500282    2             
iter:  16  17:25:46  -6.73  -3.70  -235.499524    2             
iter:  17  17:26:58  -7.09  -3.88  -235.499292    2             
iter:  18  17:28:09  -6.62  -4.00  -235.499740    2             
iter:  19  17:29:21  -6.84  -4.01  -235.499418    2             
iter:  20  17:30:33  -6.91  -4.22  -235.499395    2             
iter:  21  17:31:44  -6.93  -4.26  -235.499475    2             
iter:  22  17:32:55  -6.69  -4.20  -235.500001    2             
iter:  23  17:34:07  -6.86  -3.71  -235.499206    2             
iter:  24  17:35:18  -7.71  -4.46  -235.499353    2             

Converged after 24 iterations.

Dipole moment: (24.661700, 10.065106, -0.054068) |e|*Ang

Energy contributions relative to reference atoms: (reference = -12877847.605335)

Kinetic:       -228.843406
Potential:     +104.206893
External:        +0.000000
XC:            -102.865706
Entropy (-ST):   -2.182848
Local:           -6.905711
--------------------------
Free energy:   -236.590777
Extrapolated:  -235.499353

Fermi level: 1.03618

Showing only first 2 kpts
 Kpt  Band  Eigenvalues  Occupancy
  0   359      1.01682    0.13706
  0   360      1.05753    0.11171
  0   361      1.07139    0.10322
  0   362      1.09662    0.08833

  1   359      0.93425    0.18371
  1   360      0.93927    0.18124
  1   361      0.98160    0.15829
  1   362      1.02130    0.13428



Forces in eV/Ang:
  0 Pd   -0.13453    0.32251   -0.36103
  1 Ir    0.95495    0.70390    0.61752
  2 Ru   -1.07396    0.28506    0.68525
  3 Ru    0.43640    0.28615    1.63995
  4 Ir   -0.57612   -0.80715    1.14471
  5 Pt    0.15090    0.15229    0.06754
  6 Pd   -0.49881   -0.41467   -0.23943
  7 Pd    0.38434   -0.25765   -0.57273
  8 Ru    0.35286   -0.13549    0.54870
  9 Ag   -0.22648   -0.11756    0.09414
 10 Ag   -0.04029   -0.14822    0.10143
 11 Ag    0.07347   -0.18886   -0.15262
 12 Pt    0.07515    0.77259   -0.46908
 13 Pt    0.09760    0.58240   -0.68846
 14 Pt   -0.08943    0.20863   -0.13487
 15 Ru   -0.37936   -0.77342   -0.96299
 16 Pt   -0.38176    0.16635   -0.02912
 17 Ir    0.86911   -0.14129   -1.01183
 18 Pt    0.00065    0.00347   -0.05528
 19 Ag    0.01600   -0.00594   -0.00853
 20 Pd   -0.00007   -0.01327   -0.01284
 21 Ag    0.00128   -0.02687   -0.07086
 22 Ru   -0.01268   -0.02873   -0.04688
 23 Pd    0.02982   -0.04178   -0.03593
 24 Ir   -0.00575   -0.00582   -0.01441
 25 Ir    0.00599    0.00595   -0.01211
 26 Pt   -0.00428   -0.00420   -0.00531
 27 Ir   -0.00614    0.01464   -0.04832
 28 Pd    0.02016   -0.11771    0.16085
 29 Ag   -0.04392   -0.03235   -0.03022
 30 Pd   -0.07192    0.03838    0.03961
 31 Pd    0.01638    0.00207    0.02992
 32 Pd   -0.02067   -0.00825    0.02637
 33 Ru    0.00031   -0.01593   -0.01056
 34 Pd    0.03223   -0.01399   -0.01126
 35 Ir    0.00904   -0.05534    0.01320
 36 Ir    0.00014   -0.00557    0.06593
 37 Pt   -0.03993    0.07830   -0.07892
 38 Ag   -0.01438   -0.02945   -0.02068
 39 Pd    0.05127   -0.04684   -0.01306
 40 Pd   -0.00645    0.01700   -0.03546
 41 Ir    0.07548   -0.05738   -0.00860
 42 Ag   -0.01155    0.00971   -0.00965
 43 Ir    0.00560    0.06795    0.14319
 44 Ir   -0.05848   -0.07796    0.07569
 45 O    -0.03742   -0.19826   -0.21688

System changes: positions 

Initializing position-dependent things.

Density initialized from wave functions
                                            
                                            
                                            
                                            
                           O                
                                            
                 Ag     Ir    Ir            
            Pd     Pd                       
                  Ru     PIr    Ir          
       Ir    PPt    PAg                     
                           Pd               
        Ir     Pd    IAg    Ir    Pt        
                                            
                Ag     Ru     Pd            
           Pt     Ag     Pd                 
                 Ru     Pt     Ir           
            Pt     Pt     Pt                
                  Pd     Pd    Ru           
       Ag    RAg    IAg    Pt               
        Pd     Ir     Ru                    
                                            
                                            
                                            
                                            
                                            

Positions:
   0 Pd     0.000000    1.624086   10.000000    ( 0.0000,  0.0000,  0.0000)
   1 Ir     2.812999    1.624086   10.000000    ( 0.0000,  0.0000,  0.0000)
   2 Ru     5.625998    1.624086   10.000000    ( 0.0000,  0.0000,  0.0000)
   3 Ru     1.406500    4.060215   10.000000    ( 0.0000,  0.0000,  0.0000)
   4 Ir     4.219499    4.060215   10.000000    ( 0.0000,  0.0000,  0.0000)
   5 Pt     7.032498    4.060215   10.000000    ( 0.0000,  0.0000,  0.0000)
   6 Pd     2.812999    6.496343   10.000000    ( 0.0000,  0.0000,  0.0000)
   7 Pd     5.625998    6.496343   10.000000    ( 0.0000,  0.0000,  0.0000)
   8 Ru     8.438997    6.496343   10.000000    ( 0.0000,  0.0000,  0.0000)
   9 Ag     0.000000    0.000000   12.296804    ( 0.0000,  0.0000,  0.0000)
  10 Ag     2.812999    0.000000   12.296804    ( 0.0000,  0.0000,  0.0000)
  11 Ag     5.625998    0.000000   12.296804    ( 0.0000,  0.0000,  0.0000)
  12 Pt     1.406500    2.436129   12.296804    ( 0.0000,  0.0000,  0.0000)
  13 Pt     4.219499    2.436129   12.296804    ( 0.0000,  0.0000,  0.0000)
  14 Pt     7.032498    2.436129   12.296804    ( 0.0000,  0.0000,  0.0000)
  15 Ru     2.812999    4.872257   12.296804    ( 0.0000,  0.0000,  0.0000)
  16 Pt     5.625998    4.872257   12.296804    ( 0.0000,  0.0000,  0.0000)
  17 Ir     8.438997    4.872257   12.296804    ( 0.0000,  0.0000,  0.0000)
  18 Pt     1.331523    0.730352   14.667904    ( 0.0000,  0.0000,  0.0000)
  19 Ag     4.182658    0.777434   14.641832    ( 0.0000,  0.0000,  0.0000)
  20 Pd     6.997740    0.845445   14.610802    ( 0.0000,  0.0000,  0.0000)
  21 Ag     2.797522    3.185022   14.656049    ( 0.0000,  0.0000,  0.0000)
  22 Ru     5.664169    3.365312   14.474714    ( 0.0000,  0.0000,  0.0000)
  23 Pd     8.441308    3.200676   14.596529    ( 0.0000,  0.0000,  0.0000)
  24 Ir     4.215337    5.600169   14.581331    ( 0.0000,  0.0000,  0.0000)
  25 Ir     7.033278    5.570680   14.588864    ( 0.0000,  0.0000,  0.0000)
  26 Pt     9.876149    5.645314   14.590751    ( 0.0000,  0.0000,  0.0000)
  27 Ir    -0.073606    1.493011   16.903340    ( 0.0000,  0.0000,  0.0000)
  28 Pd     2.750957    1.565429   17.005907    ( 0.0000,  0.0000,  0.0000)
  29 Ag     5.536491    1.594561   16.900723    ( 0.0000,  0.0000,  0.0000)
  30 Pd     1.384633    4.017145   17.007096    ( 0.0000,  0.0000,  0.0000)
  31 Pd     4.200813    4.103570   16.918829    ( 0.0000,  0.0000,  0.0000)
  32 Pd     7.003231    3.979543   16.786106    ( 0.0000,  0.0000,  0.0000)
  33 Ru     2.838141    6.529823   16.745726    ( 0.0000,  0.0000,  0.0000)
  34 Pd     5.665598    6.444579   16.821497    ( 0.0000,  0.0000,  0.0000)
  35 Ir     8.554693    6.343697   16.881166    ( 0.0000,  0.0000,  0.0000)
  36 Ir     0.014216    0.002019   18.979128    ( 0.0000,  0.0000,  0.0000)
  37 Pt     2.845650   -0.020080   19.158140    ( 0.0000,  0.0000,  0.0000)
  38 Ag     5.671822    0.021217   19.384447    ( 0.0000,  0.0000,  0.0000)
  39 Pd     1.362985    2.385436   19.303083    ( 0.0000,  0.0000,  0.0000)
  40 Pd     4.316284    2.530487   19.229472    ( 0.0000,  0.0000,  0.0000)
  41 Ir     7.207395    2.414531   19.021629    ( 0.0000,  0.0000,  0.0000)
  42 Ag     2.789894    4.892087   19.361767    ( 0.0000,  0.0000,  0.0000)
  43 Ir     5.635431    4.929176   19.123832    ( 0.0000,  0.0000,  0.0000)
  44 Ir     8.285390    4.829625   19.072757    ( 0.0000,  0.0000,  0.0000)
  45 O      6.975838    5.507588   20.486209    ( 0.0000,  0.0000,  0.0000)

Unit cell:
           periodic     x           y           z      points  spacing
  1. axis:    yes    8.465341    0.000000    0.000000    35     0.2095
  2. axis:    yes    4.232670    7.331200    0.000000    35     0.2095
  3. axis:    no     0.000000    0.000000   29.187217   135     0.2162

  Lengths:   8.465341   8.465341  29.187217
  Angles:   90.000000  90.000000  60.000000

Effective grid spacing dv^(1/3) = 0.2221

                     log10-error:    total        iterations:
           time      wfs    density  energy       fermi  poisson
iter:   1  17:37:03  -3.20   +inf  -235.803396    3             
iter:   2  17:38:15  -2.47  -2.42  -248.541821    4             
iter:   3  17:39:27  -2.79  -1.62  -235.650982    3             
iter:   4  17:40:36  -3.79  -2.63  -235.529693    3             
iter:   5  17:41:47  -4.83  -3.08  -235.523702    2             
iter:   6  17:42:58  -5.20  -3.14  -235.514666    2             
iter:   7  17:44:09  -5.44  -3.50  -235.513306    2             
iter:   8  17:45:22  -5.92  -3.58  -235.514964    2             
iter:   9  17:46:33  -5.71  -3.38  -235.512575    2             
iter:  10  17:47:45  -5.88  -3.63  -235.513984    2             
iter:  11  17:48:53  -6.05  -3.60  -235.511824    2             
iter:  12  17:50:05  -6.21  -3.89  -235.512432    2             
iter:  13  17:51:17  -6.59  -3.82  -235.512136    2             
iter:  14  17:52:29  -6.19  -3.92  -235.513657    2             
iter:  15  17:53:41  -6.53  -3.50  -235.511897    2             
iter:  16  17:54:53  -7.36  -4.14  -235.512043    2             
iter:  17  17:56:06  -6.99  -4.16  -235.511721    2             
iter:  18  17:57:17  -7.48  -4.21  -235.511894    2             

Converged after 18 iterations.

Dipole moment: (24.518963, 9.787891, -0.050101) |e|*Ang

Energy contributions relative to reference atoms: (reference = -12877847.605335)

Kinetic:       -227.018484
Potential:     +102.604009
External:        +0.000000
XC:            -103.115974
Entropy (-ST):   -2.180679
Local:           -6.891105
--------------------------
Free energy:   -236.602233
Extrapolated:  -235.511894

Fermi level: 1.03865

Showing only first 2 kpts
 Kpt  Band  Eigenvalues  Occupancy
  0   359      1.01928    0.13706
  0   360      1.06080    0.11121
  0   361      1.07302    0.10372
  0   362      1.09800    0.08896

  1   359      0.93667    0.18373
  1   360      0.94191    0.18115
  1   361      0.98283    0.15901
  1   362      1.02404    0.13411



Forces in eV/Ang:
  0 Pd   -0.13433    0.32430   -0.35839
  1 Ir    0.95704    0.70395    0.61914
  2 Ru   -1.07555    0.28650    0.68515
  3 Ru    0.43706    0.28726    1.64437
  4 Ir   -0.57646   -0.81000    1.14611
  5 Pt    0.14986    0.15212    0.06866
  6 Pd   -0.50008   -0.41496   -0.23831
  7 Pd    0.38612   -0.25852   -0.57080
  8 Ru    0.35220   -0.13452    0.55106
  9 Ag   -0.22585   -0.12251    0.08713
 10 Ag   -0.04075   -0.15441    0.09645
 11 Ag    0.07293   -0.19419   -0.16706
 12 Pt    0.06788    0.76678   -0.47350
 13 Pt    0.10210    0.58062   -0.70051
 14 Pt   -0.08601    0.21478   -0.13683
 15 Ru   -0.37404   -0.77473   -0.96349
 16 Pt   -0.37138    0.16146   -0.01825
 17 Ir    0.85864   -0.15032   -0.99880
 18 Pt    0.03091    0.03075   -0.03981
 19 Ag   -0.01031    0.00292    0.01550
 20 Pd    0.00298   -0.00893   -0.00731
 21 Ag   -0.00154   -0.02788   -0.00698
 22 Ru   -0.00198   -0.00886   -0.04654
 23 Pd    0.02448   -0.01477   -0.03614
 24 Ir   -0.02147   -0.01935   -0.02328
 25 Ir    0.00725   -0.02762   -0.03501
 26 Pt   -0.00555   -0.01000    0.00027
 27 Ir    0.01993   -0.00708   -0.00859
 28 Pd    0.00955   -0.03545    0.04081
 29 Ag   -0.04445   -0.02345   -0.00623
 30 Pd   -0.01356   -0.03109    0.01329
 31 Pd   -0.01740   -0.02190    0.00652
 32 Pd   -0.02139   -0.03020    0.01167
 33 Ru    0.00891   -0.01577    0.00956
 34 Pd   -0.00117   -0.01459   -0.03926
 35 Ir    0.00056   -0.00880    0.01718
 36 Ir    0.00272   -0.02467    0.00718
 37 Pt   -0.00381    0.04152    0.01306
 38 Ag   -0.02848   -0.03433   -0.01010
 39 Pd    0.03893   -0.00457   -0.01793
 40 Pd    0.04656    0.05190   -0.01438
 41 Ir    0.00233   -0.00790   -0.02252
 42 Ag   -0.01177   -0.00940   -0.00456
 43 Ir   -0.12887   -0.04542    0.04251
 44 Ir    0.06230   -0.10588    0.01357
 45 O     0.07724   -0.02727   -0.01136

System changes: positions 

Initializing position-dependent things.

Density initialized from wave functions
                                            
                                            
                                            
                                            
                           O                
                                            
                 Ag     Ir    Ir            
            Pd     Pd                       
                  Ru     PIr    Ir          
       Ir    PPt    PAg                     
                           Pd               
        Ir     Pd    IAg    Ir    Pt        
                                            
                Ag     Ru     Pd            
           Pt     Ag     Pd                 
                 Ru     Pt     Ir           
            Pt     Pt     Pt                
                  Pd     Pd    Ru           
       Ag    RAg    IAg    Pt               
        Pd     Ir     Ru                    
                                            
                                            
                                            
                                            
                                            

Positions:
   0 Pd     0.000000    1.624086   10.000000    ( 0.0000,  0.0000,  0.0000)
   1 Ir     2.812999    1.624086   10.000000    ( 0.0000,  0.0000,  0.0000)
   2 Ru     5.625998    1.624086   10.000000    ( 0.0000,  0.0000,  0.0000)
   3 Ru     1.406500    4.060215   10.000000    ( 0.0000,  0.0000,  0.0000)
   4 Ir     4.219499    4.060215   10.000000    ( 0.0000,  0.0000,  0.0000)
   5 Pt     7.032498    4.060215   10.000000    ( 0.0000,  0.0000,  0.0000)
   6 Pd     2.812999    6.496343   10.000000    ( 0.0000,  0.0000,  0.0000)
   7 Pd     5.625998    6.496343   10.000000    ( 0.0000,  0.0000,  0.0000)
   8 Ru     8.438997    6.496343   10.000000    ( 0.0000,  0.0000,  0.0000)
   9 Ag     0.000000    0.000000   12.296804    ( 0.0000,  0.0000,  0.0000)
  10 Ag     2.812999    0.000000   12.296804    ( 0.0000,  0.0000,  0.0000)
  11 Ag     5.625998    0.000000   12.296804    ( 0.0000,  0.0000,  0.0000)
  12 Pt     1.406500    2.436129   12.296804    ( 0.0000,  0.0000,  0.0000)
  13 Pt     4.219499    2.436129   12.296804    ( 0.0000,  0.0000,  0.0000)
  14 Pt     7.032498    2.436129   12.296804    ( 0.0000,  0.0000,  0.0000)
  15 Ru     2.812999    4.872257   12.296804    ( 0.0000,  0.0000,  0.0000)
  16 Pt     5.625998    4.872257   12.296804    ( 0.0000,  0.0000,  0.0000)
  17 Ir     8.438997    4.872257   12.296804    ( 0.0000,  0.0000,  0.0000)
  18 Pt     1.335137    0.731610   14.663646    ( 0.0000,  0.0000,  0.0000)
  19 Ag     4.182068    0.776029   14.642752    ( 0.0000,  0.0000,  0.0000)
  20 Pd     6.997790    0.842733   14.608270    ( 0.0000,  0.0000,  0.0000)
  21 Ag     2.797525    3.179894   14.654741    ( 0.0000,  0.0000,  0.0000)
  22 Ru     5.664249    3.363615   14.469710    ( 0.0000,  0.0000,  0.0000)
  23 Pd     8.443821    3.197518   14.593830    ( 0.0000,  0.0000,  0.0000)
  24 Ir     4.214148    5.596822   14.579557    ( 0.0000,  0.0000,  0.0000)
  25 Ir     7.034191    5.567049   14.586055    ( 0.0000,  0.0000,  0.0000)
  26 Pt     9.876490    5.642217   14.589905    ( 0.0000,  0.0000,  0.0000)
  27 Ir    -0.071441    1.490702   16.898735    ( 0.0000,  0.0000,  0.0000)
  28 Pd     2.752355    1.560411   17.010660    ( 0.0000,  0.0000,  0.0000)
  29 Ag     5.531294    1.590860   16.897932    ( 0.0000,  0.0000,  0.0000)
  30 Pd     1.382989    4.012015   17.009441    ( 0.0000,  0.0000,  0.0000)
  31 Pd     4.198121    4.100617   16.919674    ( 0.0000,  0.0000,  0.0000)
  32 Pd     6.999177    3.975046   16.789794    ( 0.0000,  0.0000,  0.0000)
  33 Ru     2.838767    6.526983   16.745709    ( 0.0000,  0.0000,  0.0000)
  34 Pd     5.665822    6.442243   16.818682    ( 0.0000,  0.0000,  0.0000)
  35 Ir     8.554609    6.339871   16.882988    ( 0.0000,  0.0000,  0.0000)
  36 Ir     0.014949    0.001046   18.981088    ( 0.0000,  0.0000,  0.0000)
  37 Pt     2.846169   -0.020129   19.159562    ( 0.0000,  0.0000,  0.0000)
  38 Ag     5.666449    0.016035   19.381071    ( 0.0000,  0.0000,  0.0000)
  39 Pd     1.370623    2.384826   19.303638    ( 0.0000,  0.0000,  0.0000)
  40 Pd     4.322527    2.537320   19.226322    ( 0.0000,  0.0000,  0.0000)
  41 Ir     7.211932    2.406222   19.018889    ( 0.0000,  0.0000,  0.0000)
  42 Ag     2.786061    4.891985   19.360442    ( 0.0000,  0.0000,  0.0000)
  43 Ir     5.620010    4.930616   19.131220    ( 0.0000,  0.0000,  0.0000)
  44 Ir     8.284766    4.814029   19.074667    ( 0.0000,  0.0000,  0.0000)
  45 O      6.982008    5.491594   20.480128    ( 0.0000,  0.0000,  0.0000)

Unit cell:
           periodic     x           y           z      points  spacing
  1. axis:    yes    8.465341    0.000000    0.000000    35     0.2095
  2. axis:    yes    4.232670    7.331200    0.000000    35     0.2095
  3. axis:    no     0.000000    0.000000   29.187217   135     0.2162

  Lengths:   8.465341   8.465341  29.187217
  Angles:   90.000000  90.000000  60.000000

Effective grid spacing dv^(1/3) = 0.2221

                     log10-error:    total        iterations:
           time      wfs    density  energy       fermi  poisson
iter:   1  17:58:59  -3.22   +inf  -235.592389    3             
iter:   2  18:00:11  -3.28  -2.73  -237.469375    3             
iter:   3  18:01:22  -3.53  -2.01  -235.562879    2             
iter:   4  18:02:35  -4.55  -2.90  -235.523809    3             
iter:   5  18:03:46  -5.28  -3.28  -235.522301    2             
iter:   6  18:04:58  -5.52  -3.45  -235.520272    2             
iter:   7  18:06:07  -5.56  -3.57  -235.520049    2             
iter:   8  18:07:17  -5.64  -3.69  -235.519613    2             
iter:   9  18:08:28  -5.82  -3.85  -235.519919    2             
iter:  10  18:09:40  -6.20  -3.75  -235.520166    2             
iter:  11  18:10:53  -6.25  -3.58  -235.519438    2             
iter:  12  18:12:05  -6.68  -4.01  -235.519081    2             
iter:  13  18:13:16  -6.97  -4.07  -235.519356    2             
iter:  14  18:14:28  -7.05  -4.18  -235.519124    2             
iter:  15  18:15:35  -7.34  -4.26  -235.519206    2             
iter:  16  18:16:47  -7.27  -4.34  -235.519166    2             
iter:  17  18:17:59  -7.41  -4.10  -235.519188    2             

Converged after 17 iterations.

Dipole moment: (24.540458, 9.862223, -0.049357) |e|*Ang

Energy contributions relative to reference atoms: (reference = -12877847.605335)

Kinetic:       -227.163858
Potential:     +102.761259
External:        +0.000000
XC:            -103.122052
Entropy (-ST):   -2.180167
Local:           -6.904454
--------------------------
Free energy:   -236.609272
Extrapolated:  -235.519188

Fermi level: 1.03848

Showing only first 2 kpts
 Kpt  Band  Eigenvalues  Occupancy
  0   359      1.01937    0.13690
  0   360      1.06053    0.11127
  0   361      1.07243    0.10398
  0   362      1.09673    0.08959

  1   359      0.93687    0.18355
  1   360      0.94113    0.18145
  1   361      0.98182    0.15949
  1   362      1.02512    0.13333



Forces in eV/Ang:
  0 Pd   -0.13460    0.32334   -0.36383
  1 Ir    0.95353    0.70387    0.61410
  2 Ru   -1.07378    0.28657    0.67826
  3 Ru    0.43695    0.28451    1.63321
  4 Ir   -0.57718   -0.80649    1.13878
  5 Pt    0.15089    0.15342    0.06415
  6 Pd   -0.49812   -0.41547   -0.24065
  7 Pd    0.38552   -0.25802   -0.57332
  8 Ru    0.35166   -0.13600    0.54852
  9 Ag   -0.22643   -0.12799    0.07917
 10 Ag   -0.03327   -0.15814    0.08390
 11 Ag    0.06774   -0.19721   -0.16900
 12 Pt    0.07262    0.76865   -0.50408
 13 Pt    0.09895    0.57020   -0.71863
 14 Pt   -0.08210    0.20395   -0.15758
 15 Ru   -0.37783   -0.77778   -0.97234
 16 Pt   -0.37772    0.17329   -0.05216
 17 Ir    0.86814   -0.14836   -1.01350
 18 Pt   -0.00743   -0.03297    0.00146
 19 Ag    0.00504   -0.02751    0.00132
 20 Pd    0.00721   -0.01303    0.01840
 21 Ag    0.00859    0.00663    0.01240
 22 Ru    0.00345   -0.01761    0.01965
 23 Pd   -0.00940   -0.00342    0.00880
 24 Ir   -0.00583    0.00383    0.00299
 25 Ir    0.00162   -0.00797    0.02041
 26 Pt   -0.01048    0.00217    0.02385
 27 Ir   -0.01071   -0.03635    0.00460
 28 Pd   -0.00953   -0.03260    0.00764
 29 Ag    0.02088   -0.02368   -0.00089
 30 Pd   -0.00976   -0.01837   -0.03904
 31 Pd   -0.00813    0.00621   -0.03248
 32 Pd   -0.01078    0.00057   -0.04337
 33 Ru   -0.00758   -0.00061   -0.01748
 34 Pd    0.01928   -0.03152   -0.02322
 35 Ir   -0.01840   -0.04142    0.01801
 36 Ir   -0.00079   -0.01570   -0.02039
 37 Pt   -0.00667   -0.05235   -0.00590
 38 Ag   -0.00552   -0.01475   -0.00796
 39 Pd    0.01484   -0.03339    0.00741
 40 Pd    0.02908   -0.01313    0.02036
 41 Ir   -0.00139   -0.07009   -0.00415
 42 Ag   -0.03400   -0.00112    0.01379
 43 Ir    0.05987    0.06048    0.03259
 44 Ir   -0.02336   -0.01544   -0.03166
 45 O    -0.00842   -0.02988    0.03727

Timing:                                      incl.     excl.
-------------------------------------------------------------------
Density initialized from wave functions:    21.302    21.302   0.2% |
 Symmetrize density:                         0.000     0.000   0.0% |
Forces:                                    111.501   111.501   0.8% |
Hamiltonian:                                19.319     0.048   0.0% |
 Atomic:                                     5.267     2.933   0.0% |
  XC Correction:                             2.334     2.334   0.0% |
 Calculate atomic Hamiltonians:              4.656     4.656   0.0% |
 Communicate:                                2.918     2.918   0.0% |
 Initialize Hamiltonian:                     0.000     0.000   0.0% |
 Poisson:                                    0.031     0.031   0.0% |
 XC 3D grid:                                 6.400     6.400   0.0% |
LCAO initialization:                        55.244     4.857   0.0% |
 LCAO eigensolver:                           6.696     0.002   0.0% |
  Calculate projections:                     0.079     0.079   0.0% |
  DenseAtomicCorrection:                     0.081     0.081   0.0% |
  Distribute overlap matrix:                 0.018     0.018   0.0% |
  Orbital Layouts:                           0.495     0.495   0.0% |
  Potential matrix:                          5.954     5.954   0.0% |
  Sum over cells:                            0.067     0.067   0.0% |
 LCAO to grid:                              41.382    41.382   0.3% |
 Set positions (LCAO WFS):                   2.310     0.687   0.0% |
  Basic WFS set positions:                   0.003     0.003   0.0% |
  Basis functions set positions:             0.001     0.001   0.0% |
  P tci:                                     0.744     0.744   0.0% |
  ST tci:                                    0.654     0.654   0.0% |
  mktci:                                     0.222     0.222   0.0% |
PWDescriptor:                                0.042     0.042   0.0% |
Redistribute:                                0.037     0.037   0.0% |
SCF-cycle:                               13097.497  1637.854  12.2% |----|
 Davidson:                               10433.269  2447.638  18.3% |------|
  Apply H:                                1580.203  1534.405  11.5% |----|
   HMM T:                                   45.798    45.798   0.3% |
  Subspace diag:                          1492.110     0.048   0.0% |
   calc_h_matrix:                          855.026   325.692   2.4% ||
    Apply H:                               529.334   514.114   3.8% |-|
     HMM T:                                 15.220    15.220   0.1% |
   diagonalize:                             23.977    23.977   0.2% |
   rotate_psi:                             613.059   613.059   4.6% |-|
  calc. matrices:                         3253.582  2195.380  16.4% |------|
   Apply H:                               1058.202  1027.517   7.7% |--|
    HMM T:                                  30.686    30.686   0.2% |
  diagonalize:                             437.062   437.062   3.3% ||
  rotate_psi:                             1222.673  1222.673   9.1% |---|
 Density:                                  515.947     0.008   0.0% |
  Atomic density matrices:                   3.042     3.042   0.0% |
  Mix:                                     149.913   149.913   1.1% |
  Multipole moments:                         0.219     0.219   0.0% |
  Pseudo density:                          362.766   362.758   2.7% ||
   Symmetrize density:                       0.008     0.008   0.0% |
 Hamiltonian:                              469.012     1.275   0.0% |
  Atomic:                                  138.511    78.299   0.6% |
   XC Correction:                           60.212    60.212   0.5% |
  Calculate atomic Hamiltonians:           119.099   119.099   0.9% |
  Communicate:                              45.891    45.891   0.3% |
  Poisson:                                   0.786     0.786   0.0% |
  XC 3D grid:                              163.451   163.451   1.2% |
 Orthonormalize:                            41.416     0.002   0.0% |
  calc_s_matrix:                             6.392     6.392   0.0% |
  inverse-cholesky:                          0.437     0.437   0.0% |
  projections:                              22.731    22.731   0.2% |
  rotate_psi_s:                             11.853    11.853   0.1% |
Set symmetry:                                0.002     0.002   0.0% |
Other:                                      73.287    73.287   0.5% |
-------------------------------------------------------------------
Total:                                             13378.232 100.0%

Date: Thu Mar  3 18:18:16 2022
