
  ___ ___ ___ _ _ _  
 |   |   |_  | | | | 
 | | | | | . | | | | 
 |__ |  _|___|_____|  1.5.1
 |___|_|             

User:   clausen@node050.cluster
Date:   Thu Mar  3 19:37:24 2022
Arch:   x86_64
Pid:    19795
Python: 3.6.12
gpaw:   /software/kemi/gpaw/1.5.1/gpaw
_gpaw:  /software/kemi/gpaw/1.5.1/bin/gpaw-python
ase:    /software/kemi/ase/3.17.0/ase (version 3.17.0)
numpy:  /opt/rh/rh-python36/root/usr/lib64/python3.6/site-packages/numpy (version 1.13.1)
scipy:  /opt/rh/rh-python36/root/usr/lib64/python3.6/site-packages/scipy (version 0.19.1)
units:  Angstrom and eV
cores:  16

Input parameters:
  kpts: [4 4 1]
  mode: {ecut: 400.0,
         gammacentered: False,
         name: pw}
  xc: RPBE

System changes: positions, numbers, cell, pbc, initial_charges, initial_magmoms 

Initialize ...

Ag-setup:
  name: Silver
  id: c05e55bab2c3858b3f9398f6d75cb77c
  Z: 47
  valence: 17
  core: 30
  charge: 0.0
  file: /software/kemi/gpaw-setups/0.9.20000/Ag.RPBE.gz
  cutoffs: 1.25(comp), 2.35(filt), 2.19(core), lmax=2
  valence states:
                energy  radius
    5s(1.00)    -4.277   1.286
    4p(6.00)   -58.523   1.328
    5p(0.00)    -0.755   1.328
    4d(10.00)    -7.386   1.180
    *s          22.934   1.286
    *d          19.826   1.180

  Using partial waves for Ag as LCAO basis

Ir-setup:
  name: Iridium
  id: 73b603359d1d5397a85ae3c2440f9033
  Z: 77
  valence: 15
  core: 62
  charge: 0.0
  file: /software/kemi/gpaw-setups/0.9.20000/Ir.RPBE.gz
  cutoffs: 1.26(comp), 2.40(filt), 2.36(core), lmax=2
  valence states:
                energy  radius
    6s(2.00)    -6.219   1.296
    5p(6.00)   -54.684   1.328
    6p(0.00)    -1.215   1.328
    5d(7.00)    -7.118   1.286
    *s          20.992   1.296
    *d          20.093   1.286

  Using partial waves for Ir as LCAO basis

Pt-setup:
  name: Platinum
  id: f04f522592575c47ad794f6b4a415b4b
  Z: 78
  valence: 16
  core: 62
  charge: 0.0
  file: /software/kemi/gpaw-setups/0.9.20000/Pt.RPBE.gz
  cutoffs: 1.29(comp), 2.26(filt), 2.26(core), lmax=2
  valence states:
                energy  radius
    6s(1.00)    -5.516   1.307
    5p(6.00)   -55.971   1.371
    6p(0.00)    -0.856   1.371
    5d(9.00)    -6.087   1.307
    *s          21.695   1.307
    *d          21.125   1.307

  Using partial waves for Pt as LCAO basis

Ru-setup:
  name: Ruthenium
  id: 76477906e28f51dc1b29884d53556fe9
  Z: 44
  valence: 16
  core: 28
  charge: 0.0
  file: /software/kemi/gpaw-setups/0.9.20000/Ru.RPBE.gz
  cutoffs: 1.23(comp), 2.16(filt), 1.30(core), lmax=2
  valence states:
                energy  radius
    4s(2.00)   -76.255   1.281
    5s(1.00)    -4.126   1.281
    4p(6.00)   -46.371   1.286
    5p(0.00)    -0.913   1.286
    4d(7.00)    -5.146   1.254
    *d          22.066   1.254

  Using partial waves for Ru as LCAO basis

O-setup:
  name: Oxygen
  id: 08071ca1eed670e7821b24b7eb4d558c
  Z: 8
  valence: 6
  core: 2
  charge: 0.0
  file: /software/kemi/gpaw-setups/0.9.20000/O.RPBE.gz
  cutoffs: 0.67(comp), 1.17(filt), 0.83(core), lmax=2
  valence states:
                energy  radius
    2s(2.00)   -24.041   0.688
    2p(4.00)    -8.984   0.598
    *s           3.170   0.688
    *p          18.228   0.598
    *d           0.000   0.619

  Using partial waves for O as LCAO basis

H-setup:
  name: Hydrogen
  id: ea3f9156a1dc40d47a60fdce8f8bd75d
  Z: 1
  valence: 1
  core: 0
  charge: 0.0
  file: /software/kemi/gpaw-setups/0.9.20000/H.RPBE.gz
  cutoffs: 0.48(comp), 0.85(filt), 0.53(core), lmax=2
  valence states:
                energy  radius
    1s(1.00)    -6.572   0.476
    *s          20.639   0.476
    *p           0.000   0.476

  Using partial waves for H as LCAO basis

Reference energy: -16429291.423757

Spin-paired calculation

Occupation numbers:
  Fermi-Dirac: width=0.1000 eV

Convergence criteria:
  Maximum total energy change: 0.0005 eV / electron
  Maximum integral of absolute density change: 0.0001 electrons
  Maximum integral of absolute eigenstate change: 4e-08 eV^2
  Maximum number of iterations: 333

Symmetries present (total): 1

  ( 1  0  0)
  ( 0  1  0)
  ( 0  0  1)

16 k-points: 4 x 4 x 1 Monkhorst-Pack grid
8 k-points in the irreducible part of the Brillouin zone
       k-points in crystal coordinates                weights
   0:     0.12500000   -0.37500000    0.00000000          2/16
   1:     0.12500000   -0.12500000    0.00000000          2/16
   2:     0.12500000    0.12500000    0.00000000          2/16
   3:     0.12500000    0.37500000    0.00000000          2/16
   4:     0.37500000   -0.37500000    0.00000000          2/16
   5:     0.37500000   -0.12500000    0.00000000          2/16
   6:     0.37500000    0.12500000    0.00000000          2/16
   7:     0.37500000    0.37500000    0.00000000          2/16

Wave functions: Plane wave expansion
  Cutoff energy: 400.000 eV
  Number of coefficients (min, max): 32722, 32776
  Pulay-stress correction: 0.000000 eV/Ang^3 (de/decut=0.000000)
  Using FFTW library
  ScaLapack parameters: grid=1x1, blocksize=None
  Wavefunction extrapolation:
    Improved wavefunction reuse through dual PAW basis 

Eigensolver
   Davidson(niter=2, smin=None, normalize=True) 

Densities:
  Coarse grid: 35*35*135 grid
  Fine grid: 70*70*270 grid
  Total Charge: 0.000000 

Density mixing:
  Method: separate
  Backend: pulay
  Linear mixing parameter: 0.05
  Mixing with 5 old densities
  Damping of long wave oscillations: 50 

Hamiltonian:
  XC and Coulomb potentials evaluated on a 70*70*270 grid
  Using the RPBE Exchange-Correlation functional
 

XC parameters: RPBE with 2 nearest neighbor stencil

Memory estimate:
  Process memory now: 148.99 MiB
  Calculator: 545.08 MiB
    Density: 51.32 MiB
      Arrays: 16.41 MiB
      Localized functions: 28.56 MiB
      Mixer: 6.36 MiB
    Hamiltonian: 11.63 MiB
      Arrays: 10.73 MiB
      XC: 0.00 MiB
      Poisson: 0.00 MiB
      vbar: 0.90 MiB
    Wavefunctions: 482.13 MiB
      Arrays psit_nG: 218.05 MiB
      Eigensolver: 249.57 MiB
      Projections: 2.75 MiB
      Projectors: 5.13 MiB
      PW-descriptor: 6.62 MiB

Total number of cores used: 16
Parallelization over k-points: 8
Domain decomposition: 1 x 1 x 2

Number of atoms: 47
Number of atomic orbitals: 548
Number of bands in calculation: 436
Bands to converge: occupied states only
Number of valence electrons: 719

... initialized

Initializing position-dependent things.

Density initialized from atomic densities
Creating initial wave functions:
  436 bands from LCAO basis set

                                             
                                             
                                             
                                             
                                             
                                             
                                             
                                             
                       H       Ag            
                  Ir O  Ir                   
            Ag    AIr     Pt    Ru           
                                             
       Ir    IIr    IPt    Pt                
         Ru    Ir     Ir                     
                     Pt     Ag     Ir        
                Ag     Ag     Ag             
                                             
           Ir    PPt    RPt    Ir            
                                             
            Ir    IAg    AAg    Pt           
       Ag    IIr    IIr    Ir                
                                             
        Ag     Ag     Ir                     
                                             
                                             
                                             
                                             
                                             

Positions:
   0 Ag     0.000000    1.621936   10.000000    ( 0.0000,  0.0000,  0.0000)
   1 Ag     2.809275    1.621936   10.000000    ( 0.0000,  0.0000,  0.0000)
   2 Ir     5.618550    1.621936   10.000000    ( 0.0000,  0.0000,  0.0000)
   3 Ir     1.404638    4.054840   10.000000    ( 0.0000,  0.0000,  0.0000)
   4 Ir     4.213913    4.054840   10.000000    ( 0.0000,  0.0000,  0.0000)
   5 Ir     7.023188    4.054840   10.000000    ( 0.0000,  0.0000,  0.0000)
   6 Ir     2.809275    6.487743   10.000000    ( 0.0000,  0.0000,  0.0000)
   7 Ag     5.618550    6.487743   10.000000    ( 0.0000,  0.0000,  0.0000)
   8 Pt     8.427826    6.487743   10.000000    ( 0.0000,  0.0000,  0.0000)
   9 Ag     0.000000    0.000000   12.293764    ( 0.0000,  0.0000,  0.0000)
  10 Ir     2.809275    0.000000   12.293764    ( 0.0000,  0.0000,  0.0000)
  11 Ir     5.618550    0.000000   12.293764    ( 0.0000,  0.0000,  0.0000)
  12 Ir     1.404638    2.432904   12.293764    ( 0.0000,  0.0000,  0.0000)
  13 Ag     4.213913    2.432904   12.293764    ( 0.0000,  0.0000,  0.0000)
  14 Ag     7.023188    2.432904   12.293764    ( 0.0000,  0.0000,  0.0000)
  15 Pt     2.809275    4.865807   12.293764    ( 0.0000,  0.0000,  0.0000)
  16 Ru     5.618550    4.865807   12.293764    ( 0.0000,  0.0000,  0.0000)
  17 Ir     8.427826    4.865807   12.293764    ( 0.0000,  0.0000,  0.0000)
  18 Ir     1.441638    0.791118   14.593247    ( 0.0000,  0.0000,  0.0000)
  19 Pt     4.193480    0.729862   14.611205    ( 0.0000,  0.0000,  0.0000)
  20 Pt     7.034823    0.803600   14.634811    ( 0.0000,  0.0000,  0.0000)
  21 Ag     2.789574    3.267050   14.608106    ( 0.0000,  0.0000,  0.0000)
  22 Ag     5.614143    3.230616   14.629701    ( 0.0000,  0.0000,  0.0000)
  23 Ag     8.464759    3.239382   14.607930    ( 0.0000,  0.0000,  0.0000)
  24 Pt     4.237230    5.675263   14.599690    ( 0.0000,  0.0000,  0.0000)
  25 Ag     7.020289    5.624637   14.588938    ( 0.0000,  0.0000,  0.0000)
  26 Ir     9.810296    5.749034   14.534386    ( 0.0000,  0.0000,  0.0000)
  27 Ru     0.088724    1.655821   16.925664    ( 0.0000,  0.0000,  0.0000)
  28 Ir     2.745717    1.627778   16.875164    ( 0.0000,  0.0000,  0.0000)
  29 Ir     5.551846    1.597836   16.889230    ( 0.0000,  0.0000,  0.0000)
  30 Ir     1.358794    4.007324   17.013226    ( 0.0000,  0.0000,  0.0000)
  31 Ir     4.198339    3.977911   16.957702    ( 0.0000,  0.0000,  0.0000)
  32 Pt     7.125382    4.056246   16.998429    ( 0.0000,  0.0000,  0.0000)
  33 Ag     2.759687    6.474835   16.802442    ( 0.0000,  0.0000,  0.0000)
  34 Ir     5.663661    6.563267   16.864024    ( 0.0000,  0.0000,  0.0000)
  35 Ru     8.399575    6.483077   16.866623    ( 0.0000,  0.0000,  0.0000)
  36 Ir     0.015859   -0.055829   18.998154    ( 0.0000,  0.0000,  0.0000)
  37 Ir     2.776668   -0.025110   18.984491    ( 0.0000,  0.0000,  0.0000)
  38 Pt     5.623976   -0.052286   19.132338    ( 0.0000,  0.0000,  0.0000)
  39 Ag     1.411190    2.424549   19.550242    ( 0.0000,  0.0000,  0.0000)
  40 Ir     4.228423    2.403175   19.018562    ( 0.0000,  0.0000,  0.0000)
  41 Pt     6.964575    2.313754   19.128521    ( 0.0000,  0.0000,  0.0000)
  42 Ir     2.920544    4.885225   19.043791    ( 0.0000,  0.0000,  0.0000)
  43 Ir     5.524960    4.949858   19.026821    ( 0.0000,  0.0000,  0.0000)
  44 Ag     8.407084    4.876484   19.535850    ( 0.0000,  0.0000,  0.0000)
  45 O      5.623976   -0.052286   21.550242    ( 0.0000,  0.0000,  0.0000)
  46 H      6.273976    0.597714   21.950242    ( 0.0000,  0.0000,  0.0000)

Unit cell:
           periodic     x           y           z      points  spacing
  1. axis:    yes    8.445283    0.000000    0.000000    35     0.2090
  2. axis:    yes    4.222641    7.313829    0.000000    35     0.2090
  3. axis:    no     0.000000    0.000000   29.175054   135     0.2161

  Lengths:   8.445283   8.445283  29.175054
  Angles:   90.000000  90.000000  60.000000

Effective grid spacing dv^(1/3) = 0.2217

                     log10-error:    total        iterations:
           time      wfs    density  energy       fermi  poisson
iter:   1  19:39:26  +0.19   +inf  -300.312775    3             
iter:   2  19:40:27  -1.11  -1.37  -295.932836    35            
iter:   3  19:41:29  -1.37  -1.33  -333.407920    34            
iter:   4  19:42:31  -1.82  -1.24  -278.969041    3             
iter:   5  19:43:33  -2.23  -1.49  -273.961493    35            
iter:   6  19:44:34  -2.36  -1.53  -272.118131    2             
iter:   7  19:45:36  -2.28  -1.58  -269.018619    3             
iter:   8  19:46:38  -2.58  -1.72  -268.257142    3             
iter:   9  19:47:39  -3.29  -1.84  -268.213808    3             
iter:  10  19:48:41  -2.36  -1.85  -269.144178    3             
iter:  11  19:49:43  -2.84  -1.95  -268.119941    3             
iter:  12  19:50:44  -3.39  -2.21  -268.195747    3             
iter:  13  19:51:45  -3.38  -2.25  -268.548234    3             
iter:  14  19:52:47  -3.46  -2.13  -268.076690    3             
iter:  15  19:53:48  -3.82  -2.33  -268.117795    3             
iter:  16  19:54:53  -3.41  -2.38  -268.006860    3             
iter:  17  19:55:59  -3.87  -2.53  -267.944614    3             
iter:  18  19:57:00  -3.96  -2.74  -267.943052    3             
iter:  19  19:58:00  -4.34  -2.81  -267.941036    3             
iter:  20  19:59:01  -4.40  -2.89  -267.941152    2             
iter:  21  20:00:02  -4.44  -2.83  -267.941085    3             
iter:  22  20:01:04  -5.02  -2.91  -267.931606    3             
iter:  23  20:02:06  -4.90  -2.93  -267.928021    2             
iter:  24  20:03:08  -4.81  -3.04  -267.928301    3             
iter:  25  20:04:09  -4.93  -3.13  -267.937657    3             
iter:  26  20:05:11  -5.37  -3.07  -267.928575    3             
iter:  27  20:06:13  -5.23  -3.25  -267.932428    3             
iter:  28  20:07:14  -5.17  -3.21  -267.934004    3             
iter:  29  20:08:17  -5.24  -3.03  -267.925847    3             
iter:  30  20:09:19  -6.12  -3.48  -267.926542    2             
iter:  31  20:10:21  -5.92  -3.49  -267.927495    2             
iter:  32  20:11:23  -6.00  -3.54  -267.925316    2             
iter:  33  20:12:25  -5.81  -3.49  -267.926542    2             
iter:  34  20:13:26  -6.34  -3.72  -267.925549    2             
iter:  35  20:14:27  -6.82  -3.75  -267.926017    2             
iter:  36  20:15:30  -6.70  -3.86  -267.926385    2             
iter:  37  20:16:32  -6.39  -3.86  -267.926110    2             
iter:  38  20:17:34  -6.75  -4.06  -267.925460    2             
iter:  39  20:18:36  -7.06  -4.06  -267.926063    2             
iter:  40  20:19:38  -7.03  -4.14  -267.925503    2             
iter:  41  20:20:40  -7.48  -4.24  -267.925822    2             

Converged after 41 iterations.

Dipole moment: (24.403883, 21.195270, -0.277196) |e|*Ang

Energy contributions relative to reference atoms: (reference = -16429291.423757)

Kinetic:       -153.183374
Potential:      +95.624528
External:        +0.000000
XC:            -202.951697
Entropy (-ST):   -2.084893
Local:           -6.372833
--------------------------
Free energy:   -268.968268
Extrapolated:  -267.925822

Fermi level: 1.23204

Showing only first 2 kpts
 Kpt  Band  Eigenvalues  Occupancy
  0   357      1.21398    0.13626
  0   358      1.25614    0.11001
  0   359      1.29044    0.08950
  0   360      1.31809    0.07431

  1   357      1.09188    0.20061
  1   358      1.14337    0.17705
  1   359      1.16909    0.16309
  1   360      1.18937    0.15127



Forces in eV/Ang:
  0 Ag   -0.41778    0.16283   -1.04816
  1 Ag    0.25044    0.22844   -0.86051
  2 Ir    0.49662   -0.17570    0.03276
  3 Ir   -0.11502    1.23674    1.38282
  4 Ir    0.42011    0.40351    0.89352
  5 Ir   -0.31820   -0.02214    1.21762
  6 Ir   -1.71928   -0.50821    0.74265
  7 Ag   -0.11766   -0.34400   -0.95029
  8 Pt    1.06355   -0.38723    0.49466
  9 Ag    0.12727    0.01161    0.15882
 10 Ir   -0.01866   -0.41713    0.98907
 11 Ir   -0.63496   -0.78841   -0.54034
 12 Ir    0.38339    0.15788    0.16855
 13 Ag   -0.01266   -0.03274    0.14783
 14 Ag    0.05253    0.08643    0.12735
 15 Pt   -0.15087   -0.02732   -0.61676
 16 Ru    0.61201    0.45872   -1.42375
 17 Ir    0.12279    0.29144   -1.25899
 18 Ir   -0.01143    0.01248    0.02562
 19 Pt    0.00891    0.03123    0.05089
 20 Pt    0.01760    0.01537    0.04942
 21 Ag    0.00490    0.00296    0.03769
 22 Ag    0.02005    0.01725    0.02238
 23 Ag   -0.00594    0.01177   -0.01351
 24 Pt    0.04214   -0.00665    0.08005
 25 Ag   -0.02106   -0.05145   -0.00508
 26 Ir    0.02404   -0.04625    0.02287
 27 Ru   -0.01996   -0.01131    0.02904
 28 Ir    0.02863    0.00296    0.03258
 29 Ir   -0.03756   -0.11939   -0.00157
 30 Ir   -0.06323    0.00414    0.07863
 31 Ir   -0.04956   -0.00768    0.14396
 32 Pt    0.01671    0.00358   -0.02104
 33 Ag   -0.03956   -0.02955   -0.01768
 34 Ir    0.02767   -0.02762    0.14367
 35 Ru    0.12955    0.02216    0.03666
 36 Ir    0.20291    0.01697   -0.06104
 37 Ir   -0.13097   -0.03967   -0.11140
 38 Pt   -0.13816    0.23433    1.88037
 39 Ag    0.00202   -0.03242   -0.01441
 40 Ir   -0.05020    0.10435   -0.10863
 41 Pt    0.09460    0.09242   -0.05040
 42 Ir    0.10177   -0.21480   -0.08242
 43 Ir   -0.00659   -0.01053   -0.00522
 44 Ag   -0.06016   -0.09272   -0.02882
 45 O     0.04642    0.08977   -0.97979
 46 H    -0.26972   -0.31374   -0.59394

System changes: positions 

Initializing position-dependent things.

Density initialized from wave functions
                                             
                                             
                                             
                                             
                                             
                                             
                                             
                                             
                       H       Ag            
                  Ir O  Ir                   
            Ag    AIr     Pt    Ru           
                     Pt                      
       Ir    IIr    Ir     Pt                
         Ru    Ir     Ir                     
                     Pt     Ag     Ir        
                Ag     Ag     Ag             
                                             
           Ir    PPt    RPt    Ir            
                                             
            Ir    IAg    AAg    Pt           
       Ag    IIr    IIr    Ir                
                                             
        Ag     Ag     Ir                     
                                             
                                             
                                             
                                             
                                             

Positions:
   0 Ag     0.000000    1.621936   10.000000    ( 0.0000,  0.0000,  0.0000)
   1 Ag     2.809275    1.621936   10.000000    ( 0.0000,  0.0000,  0.0000)
   2 Ir     5.618550    1.621936   10.000000    ( 0.0000,  0.0000,  0.0000)
   3 Ir     1.404638    4.054840   10.000000    ( 0.0000,  0.0000,  0.0000)
   4 Ir     4.213913    4.054840   10.000000    ( 0.0000,  0.0000,  0.0000)
   5 Ir     7.023188    4.054840   10.000000    ( 0.0000,  0.0000,  0.0000)
   6 Ir     2.809275    6.487743   10.000000    ( 0.0000,  0.0000,  0.0000)
   7 Ag     5.618550    6.487743   10.000000    ( 0.0000,  0.0000,  0.0000)
   8 Pt     8.427826    6.487743   10.000000    ( 0.0000,  0.0000,  0.0000)
   9 Ag     0.000000    0.000000   12.293764    ( 0.0000,  0.0000,  0.0000)
  10 Ir     2.809275    0.000000   12.293764    ( 0.0000,  0.0000,  0.0000)
  11 Ir     5.618550    0.000000   12.293764    ( 0.0000,  0.0000,  0.0000)
  12 Ir     1.404638    2.432904   12.293764    ( 0.0000,  0.0000,  0.0000)
  13 Ag     4.213913    2.432904   12.293764    ( 0.0000,  0.0000,  0.0000)
  14 Ag     7.023188    2.432904   12.293764    ( 0.0000,  0.0000,  0.0000)
  15 Pt     2.809275    4.865807   12.293764    ( 0.0000,  0.0000,  0.0000)
  16 Ru     5.618550    4.865807   12.293764    ( 0.0000,  0.0000,  0.0000)
  17 Ir     8.427826    4.865807   12.293764    ( 0.0000,  0.0000,  0.0000)
  18 Ir     1.440495    0.792366   14.595809    ( 0.0000,  0.0000,  0.0000)
  19 Pt     4.194371    0.732985   14.616294    ( 0.0000,  0.0000,  0.0000)
  20 Pt     7.036583    0.805136   14.639753    ( 0.0000,  0.0000,  0.0000)
  21 Ag     2.790065    3.267346   14.611874    ( 0.0000,  0.0000,  0.0000)
  22 Ag     5.616149    3.232341   14.631939    ( 0.0000,  0.0000,  0.0000)
  23 Ag     8.464165    3.240559   14.606579    ( 0.0000,  0.0000,  0.0000)
  24 Pt     4.241444    5.674598   14.607695    ( 0.0000,  0.0000,  0.0000)
  25 Ag     7.018183    5.619492   14.588430    ( 0.0000,  0.0000,  0.0000)
  26 Ir     9.812700    5.744409   14.536673    ( 0.0000,  0.0000,  0.0000)
  27 Ru     0.086728    1.654690   16.928567    ( 0.0000,  0.0000,  0.0000)
  28 Ir     2.748580    1.628074   16.878422    ( 0.0000,  0.0000,  0.0000)
  29 Ir     5.548090    1.585897   16.889073    ( 0.0000,  0.0000,  0.0000)
  30 Ir     1.352471    4.007738   17.021090    ( 0.0000,  0.0000,  0.0000)
  31 Ir     4.193383    3.977143   16.972098    ( 0.0000,  0.0000,  0.0000)
  32 Pt     7.127053    4.056604   16.996326    ( 0.0000,  0.0000,  0.0000)
  33 Ag     2.755731    6.471880   16.800674    ( 0.0000,  0.0000,  0.0000)
  34 Ir     5.666429    6.560505   16.878390    ( 0.0000,  0.0000,  0.0000)
  35 Ru     8.412530    6.485293   16.870290    ( 0.0000,  0.0000,  0.0000)
  36 Ir     0.036149   -0.054132   18.992050    ( 0.0000,  0.0000,  0.0000)
  37 Ir     2.763572   -0.029077   18.973351    ( 0.0000,  0.0000,  0.0000)
  38 Pt     5.610159   -0.028853   19.320375    ( 0.0000,  0.0000,  0.0000)
  39 Ag     1.411392    2.421307   19.548801    ( 0.0000,  0.0000,  0.0000)
  40 Ir     4.223403    2.413610   19.007700    ( 0.0000,  0.0000,  0.0000)
  41 Pt     6.974036    2.322996   19.123481    ( 0.0000,  0.0000,  0.0000)
  42 Ir     2.930721    4.863744   19.035549    ( 0.0000,  0.0000,  0.0000)
  43 Ir     5.524301    4.948805   19.026299    ( 0.0000,  0.0000,  0.0000)
  44 Ag     8.401068    4.867212   19.532968    ( 0.0000,  0.0000,  0.0000)
  45 O      5.628617   -0.043309   21.452263    ( 0.0000,  0.0000,  0.0000)
  46 H      6.247003    0.566340   21.890848    ( 0.0000,  0.0000,  0.0000)

Unit cell:
           periodic     x           y           z      points  spacing
  1. axis:    yes    8.445283    0.000000    0.000000    35     0.2090
  2. axis:    yes    4.222641    7.313829    0.000000    35     0.2090
  3. axis:    no     0.000000    0.000000   29.175054   135     0.2161

  Lengths:   8.445283   8.445283  29.175054
  Angles:   90.000000  90.000000  60.000000

Effective grid spacing dv^(1/3) = 0.2217

                     log10-error:    total        iterations:
           time      wfs    density  energy       fermi  poisson
iter:   1  20:22:09  -2.01   +inf  -271.405863    4             
iter:   2  20:23:03  -1.82  -1.98  -290.306509    36            
iter:   3  20:23:53  -1.57  -1.50  -317.198909    3             
iter:   4  20:24:42  -2.22  -1.38  -269.247589    35            
iter:   5  20:25:31  -2.97  -2.19  -268.546118    3             
iter:   6  20:26:21  -3.87  -2.50  -268.512124    3             
iter:   7  20:27:10  -4.22  -2.57  -268.410416    3             
iter:   8  20:27:59  -4.04  -2.80  -268.381641    3             
iter:   9  20:28:48  -3.95  -2.81  -268.386100    2             
iter:  10  20:29:38  -4.27  -2.66  -268.377950    3             
iter:  11  20:30:27  -4.51  -2.79  -268.332551    2             
iter:  12  20:31:16  -4.76  -3.20  -268.332869    3             
iter:  13  20:32:05  -4.92  -3.13  -268.326961    3             
iter:  14  20:32:55  -5.42  -3.28  -268.329421    2             
iter:  15  20:33:54  -5.56  -3.29  -268.324894    2             
iter:  16  20:34:56  -5.86  -3.32  -268.325785    2             
iter:  17  20:36:02  -6.02  -3.51  -268.324580    2             
iter:  18  20:37:07  -5.52  -3.66  -268.324525    2             
iter:  19  20:38:11  -6.02  -3.66  -268.324011    2             
iter:  20  20:39:17  -6.16  -3.71  -268.324881    2             
iter:  21  20:40:22  -6.58  -3.83  -268.323862    2             
iter:  22  20:41:29  -6.41  -3.82  -268.324697    2             
iter:  23  20:42:35  -6.45  -3.91  -268.324345    2             
iter:  24  20:43:41  -6.51  -4.10  -268.324000    2             
iter:  25  20:44:48  -6.62  -4.11  -268.324014    2             
iter:  26  20:45:54  -7.05  -4.03  -268.324403    2             
iter:  27  20:47:01  -7.34  -4.13  -268.323842    2             
iter:  28  20:48:07  -7.40  -4.14  -268.324077    2             

Converged after 28 iterations.

Dipole moment: (21.537290, 19.633728, -0.127067) |e|*Ang

Energy contributions relative to reference atoms: (reference = -16429291.423757)

Kinetic:       -150.070855
Potential:      +92.878059
External:        +0.000000
XC:            -203.730199
Entropy (-ST):   -2.069731
Local:           -6.366217
--------------------------
Free energy:   -269.358943
Extrapolated:  -268.324077

Fermi level: 1.30221

Showing only first 2 kpts
 Kpt  Band  Eigenvalues  Occupancy
  0   357      1.28466    0.13594
  0   358      1.32818    0.10886
  0   359      1.35410    0.09328
  0   360      1.38839    0.07424

  1   357      1.16093    0.20105
  1   358      1.21086    0.17843
  1   359      1.23955    0.16293
  1   360      1.25564    0.15359



Forces in eV/Ang:
  0 Ag   -0.41547    0.15818   -1.05322
  1 Ag    0.24893    0.22648   -0.86871
  2 Ir    0.49496   -0.17350    0.03677
  3 Ir   -0.11941    1.23461    1.37576
  4 Ir    0.42167    0.40383    0.88886
  5 Ir   -0.31881   -0.02386    1.21176
  6 Ir   -1.71340   -0.50895    0.74357
  7 Ag   -0.12003   -0.33748   -0.95406
  8 Pt    1.06103   -0.38641    0.48835
  9 Ag    0.12487    0.00865    0.18506
 10 Ir   -0.01652   -0.41444    1.01519
 11 Ir   -0.63834   -0.79314   -0.51346
 12 Ir    0.39490    0.15017    0.19238
 13 Ag   -0.01239   -0.02971    0.16920
 14 Ag    0.04911    0.07679    0.14006
 15 Pt   -0.13686   -0.02873   -0.60079
 16 Ru    0.60437    0.44827   -1.40535
 17 Ir    0.13158    0.29972   -1.25304
 18 Ir   -0.01785   -0.00778    0.01043
 19 Pt    0.00907   -0.04118    0.04014
 20 Pt    0.04045   -0.01641    0.00725
 21 Ag    0.01049    0.01585    0.02867
 22 Ag   -0.00810   -0.01286    0.03610
 23 Ag    0.01272   -0.00638   -0.00107
 24 Pt    0.00617    0.00234    0.00164
 25 Ag    0.03289    0.03614    0.03804
 26 Ir    0.01426    0.00738   -0.00294
 27 Ru   -0.02125   -0.03017    0.00028
 28 Ir   -0.02682   -0.03659   -0.04418
 29 Ir    0.02490   -0.21427    0.15968
 30 Ir    0.00350    0.04024    0.02239
 31 Ir    0.04323    0.02639   -0.29517
 32 Pt   -0.02774   -0.00853   -0.00663
 33 Ag   -0.14374    0.08009    0.37288
 34 Ir   -0.00230   -0.05757   -0.19630
 35 Ru    0.09177    0.08745    0.08324
 36 Ir   -0.06117    0.07715    0.02755
 37 Ir    0.11251    0.00562    0.18599
 38 Pt    0.12454    0.21889    0.73211
 39 Ag   -0.00334   -0.01241    0.01983
 40 Ir   -0.00460   -0.05096    0.16826
 41 Pt   -0.01279   -0.02419   -0.05926
 42 Ir   -0.11071   -0.03500    0.12792
 43 Ir    0.10153   -0.05134   -0.00953
 44 Ag   -0.03053   -0.03273   -0.03972
 45 O    -0.93627   -0.83168   -1.03176
 46 H     0.57478    0.54486   -0.15483

System changes: positions 

Initializing position-dependent things.

Density initialized from wave functions
                                             
                                             
                                             
                                             
                                             
                                             
                                             
                                             
                  Ir   HIr     Ag            
            Ag       O                       
                  AIr     Pt    Ru           
       Ir    IIr    IPt     Pt               
                                             
         Ru    Ir    PIr    Ag     Ir        
                                             
                Ag     Ag     Ag             
           Ir    PPt    RPt    Ir            
                                             
            Ir    IAg    AAg    Pt           
       Ag     Ir     Ir                      
             Ir     Ir     Ir                
        Ag     Ag     Ir                     
                                             
                                             
                                             
                                             
                                             

Positions:
   0 Ag     0.000000    1.621936   10.000000    ( 0.0000,  0.0000,  0.0000)
   1 Ag     2.809275    1.621936   10.000000    ( 0.0000,  0.0000,  0.0000)
   2 Ir     5.618550    1.621936   10.000000    ( 0.0000,  0.0000,  0.0000)
   3 Ir     1.404638    4.054840   10.000000    ( 0.0000,  0.0000,  0.0000)
   4 Ir     4.213913    4.054840   10.000000    ( 0.0000,  0.0000,  0.0000)
   5 Ir     7.023188    4.054840   10.000000    ( 0.0000,  0.0000,  0.0000)
   6 Ir     2.809275    6.487743   10.000000    ( 0.0000,  0.0000,  0.0000)
   7 Ag     5.618550    6.487743   10.000000    ( 0.0000,  0.0000,  0.0000)
   8 Pt     8.427826    6.487743   10.000000    ( 0.0000,  0.0000,  0.0000)
   9 Ag     0.000000    0.000000   12.293764    ( 0.0000,  0.0000,  0.0000)
  10 Ir     2.809275    0.000000   12.293764    ( 0.0000,  0.0000,  0.0000)
  11 Ir     5.618550    0.000000   12.293764    ( 0.0000,  0.0000,  0.0000)
  12 Ir     1.404638    2.432904   12.293764    ( 0.0000,  0.0000,  0.0000)
  13 Ag     4.213913    2.432904   12.293764    ( 0.0000,  0.0000,  0.0000)
  14 Ag     7.023188    2.432904   12.293764    ( 0.0000,  0.0000,  0.0000)
  15 Pt     2.809275    4.865807   12.293764    ( 0.0000,  0.0000,  0.0000)
  16 Ru     5.618550    4.865807   12.293764    ( 0.0000,  0.0000,  0.0000)
  17 Ir     8.427826    4.865807   12.293764    ( 0.0000,  0.0000,  0.0000)
  18 Ir     1.438338    0.792770   14.598528    ( 0.0000,  0.0000,  0.0000)
  19 Pt     4.195706    0.732443   14.623084    ( 0.0000,  0.0000,  0.0000)
  20 Pt     7.040833    0.805145   14.644076    ( 0.0000,  0.0000,  0.0000)
  21 Ag     2.791193    3.268707   14.616827    ( 0.0000,  0.0000,  0.0000)
  22 Ag     5.617113    3.232749   14.636245    ( 0.0000,  0.0000,  0.0000)
  23 Ag     8.464618    3.241009   14.605462    ( 0.0000,  0.0000,  0.0000)
  24 Pt     4.245130    5.674253   14.613974    ( 0.0000,  0.0000,  0.0000)
  25 Ag     7.018915    5.618118   14.590760    ( 0.0000,  0.0000,  0.0000)
  26 Ir     9.815571    5.741378   14.538222    ( 0.0000,  0.0000,  0.0000)
  27 Ru     0.083672    1.651660   16.930823    ( 0.0000,  0.0000,  0.0000)
  28 Ir     2.748865    1.625685   16.877768    ( 0.0000,  0.0000,  0.0000)
  29 Ir     5.546980    1.561375   16.900378    ( 0.0000,  0.0000,  0.0000)
  30 Ir     1.347854    4.010936   17.028745    ( 0.0000,  0.0000,  0.0000)
  31 Ir     4.192661    3.978440   16.962060    ( 0.0000,  0.0000,  0.0000)
  32 Pt     7.126354    4.056269   16.994232    ( 0.0000,  0.0000,  0.0000)
  33 Ag     2.742402    6.475335   16.825993    ( 0.0000,  0.0000,  0.0000)
  34 Ir     5.668394    6.554259   16.875404    ( 0.0000,  0.0000,  0.0000)
  35 Ru     8.429068    6.493256   16.879068    ( 0.0000,  0.0000,  0.0000)
  36 Ir     0.047392   -0.047306   18.989322    ( 0.0000,  0.0000,  0.0000)
  37 Ir     2.761541   -0.031728   18.978084    ( 0.0000,  0.0000,  0.0000)
  38 Pt     5.608434    0.004847   19.517508    ( 0.0000,  0.0000,  0.0000)
  39 Ag     1.411309    2.417924   19.549110    ( 0.0000,  0.0000,  0.0000)
  40 Ir     4.219209    2.417997   19.011377    ( 0.0000,  0.0000,  0.0000)
  41 Pt     6.980403    2.328379   19.115362    ( 0.0000,  0.0000,  0.0000)
  42 Ir     2.930634    4.844705   19.038358    ( 0.0000,  0.0000,  0.0000)
  43 Ir     5.531058    4.944321   19.025216    ( 0.0000,  0.0000,  0.0000)
  44 Ag     8.394252    4.857733   19.527907    ( 0.0000,  0.0000,  0.0000)
  45 O      5.565199   -0.095906   21.303016    ( 0.0000,  0.0000,  0.0000)
  46 H      6.267366    0.581174   21.834049    ( 0.0000,  0.0000,  0.0000)

Unit cell:
           periodic     x           y           z      points  spacing
  1. axis:    yes    8.445283    0.000000    0.000000    35     0.2090
  2. axis:    yes    4.222641    7.313829    0.000000    35     0.2090
  3. axis:    no     0.000000    0.000000   29.175054   135     0.2161

  Lengths:   8.445283   8.445283  29.175054
  Angles:   90.000000  90.000000  60.000000

Effective grid spacing dv^(1/3) = 0.2217

                     log10-error:    total        iterations:
           time      wfs    density  energy       fermi  poisson
iter:   1  20:49:42  -1.76   +inf  -270.928283    3             
iter:   2  20:50:47  -1.48  -1.86  -353.272607    34            
iter:   3  20:51:50  -1.90  -1.27  -270.110606    37            
iter:   4  20:52:53  -2.73  -1.97  -267.963272    3             
iter:   5  20:53:56  -3.62  -2.50  -267.907627    3             
iter:   6  20:54:59  -3.78  -2.45  -267.760212    3             
iter:   7  20:56:02  -3.68  -2.73  -267.724826    3             
iter:   8  20:57:05  -3.70  -2.72  -267.726136    3             
iter:   9  20:58:09  -4.02  -2.59  -267.647243    3             
iter:  10  20:59:12  -4.86  -3.00  -267.632780    2             
iter:  11  21:00:16  -4.88  -3.21  -267.631375    2             
iter:  12  21:01:20  -5.01  -3.28  -267.629769    3             
iter:  13  21:02:23  -4.93  -3.35  -267.628999    2             
iter:  14  21:03:27  -5.45  -3.47  -267.630695    3             
iter:  15  21:04:30  -5.78  -3.42  -267.628262    2             
iter:  16  21:05:34  -5.70  -3.46  -267.629485    2             
iter:  17  21:06:36  -5.56  -3.61  -267.628071    2             
iter:  18  21:07:40  -5.75  -3.61  -267.628542    2             
iter:  19  21:08:43  -6.18  -3.83  -267.628506    2             
iter:  20  21:09:46  -6.13  -3.93  -267.628663    2             
iter:  21  21:10:50  -6.50  -4.04  -267.628767    2             
iter:  22  21:11:53  -6.65  -4.10  -267.628190    2             
iter:  23  21:12:56  -7.04  -4.00  -267.629037    2             
iter:  24  21:13:59  -7.11  -4.06  -267.628561    2             
iter:  25  21:15:04  -7.04  -4.40  -267.628416    2             
iter:  26  21:16:08  -7.55  -4.37  -267.628600    2             

Converged after 26 iterations.

Dipole moment: (21.355146, 20.981561, 0.153336) |e|*Ang

Energy contributions relative to reference atoms: (reference = -16429291.423757)

Kinetic:       -142.370804
Potential:      +85.781683
External:        +0.000000
XC:            -203.615894
Entropy (-ST):   -2.075928
Local:           -6.385621
--------------------------
Free energy:   -268.666564
Extrapolated:  -267.628600

Fermi level: 1.43477

Showing only first 2 kpts
 Kpt  Band  Eigenvalues  Occupancy
  0   357      1.41350    0.13824
  0   358      1.45394    0.11306
  0   359      1.48239    0.09579
  0   360      1.51737    0.07612

  1   357      1.30178    0.19771
  1   358      1.33364    0.18332
  1   359      1.37684    0.16022
  1   360      1.39010    0.15246



Forces in eV/Ang:
  0 Ag   -0.41682    0.15832   -1.04913
  1 Ag    0.24978    0.22543   -0.86446
  2 Ir    0.49378   -0.17283    0.04256
  3 Ir   -0.12083    1.23814    1.38780
  4 Ir    0.42422    0.40942    0.88857
  5 Ir   -0.32238   -0.01877    1.22101
  6 Ir   -1.70791   -0.51178    0.74852
  7 Ag   -0.12047   -0.34122   -0.94485
  8 Pt    1.06031   -0.38839    0.49341
  9 Ag    0.11971   -0.00036    0.20073
 10 Ir   -0.00920   -0.40857    1.03086
 11 Ir   -0.64716   -0.79901   -0.48471
 12 Ir    0.40811    0.14621    0.20307
 13 Ag   -0.01336   -0.03365    0.18966
 14 Ag    0.04309    0.07205    0.14939
 15 Pt   -0.12392   -0.01974   -0.58148
 16 Ru    0.60239    0.44591   -1.38937
 17 Ir    0.14263    0.31453   -1.25197
 18 Ir    0.00433   -0.00549   -0.02032
 19 Pt    0.00822   -0.06718   -0.02453
 20 Pt    0.01884   -0.07342    0.00762
 21 Ag   -0.01046   -0.00432   -0.01685
 22 Ag    0.00033   -0.07277    0.04172
 23 Ag    0.02743   -0.01623    0.01776
 24 Pt   -0.05995    0.02198   -0.02696
 25 Ag    0.08083    0.07562    0.04582
 26 Ir    0.03189    0.05765   -0.00575
 27 Ru    0.00145   -0.03245   -0.03124
 28 Ir   -0.01824   -0.06182   -0.02610
 29 Ir    0.00594   -0.11334    0.18353
 30 Ir    0.05824    0.03421   -0.02753
 31 Ir    0.11680    0.05163   -0.21347
 32 Pt   -0.07418    0.00080   -0.01227
 33 Ag   -0.06703    0.07305    0.35480
 34 Ir    0.00452   -0.07698   -0.21108
 35 Ru   -0.11541    0.08806   -0.03506
 36 Ir   -0.10704    0.03984    0.10080
 37 Ir    0.12899    0.10095    0.18870
 38 Pt    0.21717    0.26140   -5.48589
 39 Ag    0.01145   -0.01392    0.06087
 40 Ir   -0.03292   -0.12059    0.11012
 41 Pt   -0.07859   -0.08556   -0.06067
 42 Ir   -0.04733   -0.02764    0.12026
 43 Ir    0.00080   -0.01638   -0.03192
 44 Ag    0.01538    0.01457   -0.06994
 45 O     2.03613    1.81115    7.03934
 46 H    -2.14400   -2.05462   -1.85721

System changes: positions 

Initializing position-dependent things.

Density initialized from wave functions
                                             
                                             
                                             
                                             
                                             
                                             
                                             
                                             
                       HIr     Ag            
                  Ir O                       
            Ag    AIr     Pt    Ru           
                     Pt                      
       Ir    IIr    Ir     Pt                
         Ru    Ir     Ir                     
                     Pt     Ag     Ir        
                Ag     Ag     Ag             
                                             
           Ir    PPt    RPt    Ir            
                                             
            Ir    IAg    AAg    Pt           
       Ag    IIr    IIr    Ir                
                                             
        Ag     Ag     Ir                     
                                             
                                             
                                             
                                             
                                             

Positions:
   0 Ag     0.000000    1.621936   10.000000    ( 0.0000,  0.0000,  0.0000)
   1 Ag     2.809275    1.621936   10.000000    ( 0.0000,  0.0000,  0.0000)
   2 Ir     5.618550    1.621936   10.000000    ( 0.0000,  0.0000,  0.0000)
   3 Ir     1.404638    4.054840   10.000000    ( 0.0000,  0.0000,  0.0000)
   4 Ir     4.213913    4.054840   10.000000    ( 0.0000,  0.0000,  0.0000)
   5 Ir     7.023188    4.054840   10.000000    ( 0.0000,  0.0000,  0.0000)
   6 Ir     2.809275    6.487743   10.000000    ( 0.0000,  0.0000,  0.0000)
   7 Ag     5.618550    6.487743   10.000000    ( 0.0000,  0.0000,  0.0000)
   8 Pt     8.427826    6.487743   10.000000    ( 0.0000,  0.0000,  0.0000)
   9 Ag     0.000000    0.000000   12.293764    ( 0.0000,  0.0000,  0.0000)
  10 Ir     2.809275    0.000000   12.293764    ( 0.0000,  0.0000,  0.0000)
  11 Ir     5.618550    0.000000   12.293764    ( 0.0000,  0.0000,  0.0000)
  12 Ir     1.404638    2.432904   12.293764    ( 0.0000,  0.0000,  0.0000)
  13 Ag     4.213913    2.432904   12.293764    ( 0.0000,  0.0000,  0.0000)
  14 Ag     7.023188    2.432904   12.293764    ( 0.0000,  0.0000,  0.0000)
  15 Pt     2.809275    4.865807   12.293764    ( 0.0000,  0.0000,  0.0000)
  16 Ru     5.618550    4.865807   12.293764    ( 0.0000,  0.0000,  0.0000)
  17 Ir     8.427826    4.865807   12.293764    ( 0.0000,  0.0000,  0.0000)
  18 Ir     1.439994    0.792460   14.596441    ( 0.0000,  0.0000,  0.0000)
  19 Pt     4.194681    0.732859   14.617872    ( 0.0000,  0.0000,  0.0000)
  20 Pt     7.037571    0.805139   14.640757    ( 0.0000,  0.0000,  0.0000)
  21 Ag     2.790327    3.267662   14.613025    ( 0.0000,  0.0000,  0.0000)
  22 Ag     5.616373    3.232436   14.632940    ( 0.0000,  0.0000,  0.0000)
  23 Ag     8.464270    3.240664   14.606319    ( 0.0000,  0.0000,  0.0000)
  24 Pt     4.242301    5.674518   14.609154    ( 0.0000,  0.0000,  0.0000)
  25 Ag     7.018353    5.619173   14.588971    ( 0.0000,  0.0000,  0.0000)
  26 Ir     9.813367    5.743705   14.537033    ( 0.0000,  0.0000,  0.0000)
  27 Ru     0.086018    1.653985   16.929092    ( 0.0000,  0.0000,  0.0000)
  28 Ir     2.748647    1.627519   16.878270    ( 0.0000,  0.0000,  0.0000)
  29 Ir     5.547832    1.580197   16.891701    ( 0.0000,  0.0000,  0.0000)
  30 Ir     1.351398    4.008481   17.022869    ( 0.0000,  0.0000,  0.0000)
  31 Ir     4.193215    3.977444   16.969765    ( 0.0000,  0.0000,  0.0000)
  32 Pt     7.126890    4.056526   16.995839    ( 0.0000,  0.0000,  0.0000)
  33 Ag     2.752633    6.472683   16.806559    ( 0.0000,  0.0000,  0.0000)
  34 Ir     5.666885    6.559053   16.877696    ( 0.0000,  0.0000,  0.0000)
  35 Ru     8.416373    6.487144   16.872330    ( 0.0000,  0.0000,  0.0000)
  36 Ir     0.038762   -0.052546   18.991416    ( 0.0000,  0.0000,  0.0000)
  37 Ir     2.763100   -0.029693   18.974451    ( 0.0000,  0.0000,  0.0000)
  38 Pt     5.609759   -0.021021   19.366191    ( 0.0000,  0.0000,  0.0000)
  39 Ag     1.411373    2.420521   19.548873    ( 0.0000,  0.0000,  0.0000)
  40 Ir     4.222428    2.414630   19.008554    ( 0.0000,  0.0000,  0.0000)
  41 Pt     6.975515    2.324247   19.121594    ( 0.0000,  0.0000,  0.0000)
  42 Ir     2.930701    4.859319   19.036202    ( 0.0000,  0.0000,  0.0000)
  43 Ir     5.525872    4.947763   19.026047    ( 0.0000,  0.0000,  0.0000)
  44 Ag     8.399484    4.865009   19.531792    ( 0.0000,  0.0000,  0.0000)
  45 O      5.613878   -0.055533   21.417576    ( 0.0000,  0.0000,  0.0000)
  46 H      6.251736    0.569788   21.877647    ( 0.0000,  0.0000,  0.0000)

Unit cell:
           periodic     x           y           z      points  spacing
  1. axis:    yes    8.445283    0.000000    0.000000    35     0.2090
  2. axis:    yes    4.222641    7.313829    0.000000    35     0.2090
  3. axis:    no     0.000000    0.000000   29.175054   135     0.2161

  Lengths:   8.445283   8.445283  29.175054
  Angles:   90.000000  90.000000  60.000000

Effective grid spacing dv^(1/3) = 0.2217

                     log10-error:    total        iterations:
           time      wfs    density  energy       fermi  poisson
iter:   1  21:17:40  -1.89   +inf  -269.403406    3             
iter:   2  21:18:44  -2.54  -2.27  -276.271948    3             
iter:   3  21:19:49  -2.71  -1.67  -269.980360    3             
iter:   4  21:20:53  -3.23  -2.04  -268.853948    3             
iter:   5  21:21:58  -3.54  -2.40  -268.544746    3             
iter:   6  21:23:02  -3.92  -2.69  -268.469335    3             
iter:   7  21:24:06  -4.49  -2.89  -268.440836    3             
iter:   8  21:25:09  -3.68  -2.96  -268.420908    3             
iter:   9  21:26:13  -3.82  -2.82  -268.893310    3             
iter:  10  21:27:16  -4.14  -2.28  -268.398388    3             
iter:  11  21:28:20  -4.70  -3.00  -268.398369    3             
iter:  12  21:29:24  -5.41  -3.03  -268.390773    2             
iter:  13  21:30:28  -5.03  -3.14  -268.381287    2             
iter:  14  21:31:32  -5.68  -3.47  -268.381158    2             
iter:  15  21:32:35  -5.41  -3.51  -268.400021    2             
iter:  16  21:33:43  -5.30  -3.02  -268.382628    2             
iter:  17  21:34:46  -5.69  -3.27  -268.381093    3             
iter:  18  21:35:50  -5.57  -3.57  -268.380883    2             
iter:  19  21:36:53  -6.00  -3.83  -268.380604    2             
iter:  20  21:37:58  -6.45  -3.78  -268.380853    2             
iter:  21  21:39:02  -6.38  -3.99  -268.382046    2             
iter:  22  21:40:06  -6.64  -3.75  -268.380389    2             
iter:  23  21:41:10  -6.55  -3.80  -268.380935    2             
iter:  24  21:42:15  -7.15  -4.15  -268.381000    2             
iter:  25  21:43:18  -7.21  -4.22  -268.380786    2             
iter:  26  21:44:22  -7.38  -4.46  -268.380985    2             
iter:  27  21:45:26  -7.44  -4.35  -268.380965    2             

Converged after 27 iterations.

Dipole moment: (21.530727, 20.020420, -0.068908) |e|*Ang

Energy contributions relative to reference atoms: (reference = -16429291.423757)

Kinetic:       -150.698811
Potential:      +93.163298
External:        +0.000000
XC:            -203.468615
Entropy (-ST):   -2.070324
Local:           -6.341675
--------------------------
Free energy:   -269.416127
Extrapolated:  -268.380965

Fermi level: 1.33010

Showing only first 2 kpts
 Kpt  Band  Eigenvalues  Occupancy
  0   357      1.31174    0.13644
  0   358      1.35556    0.10917
  0   359      1.38090    0.09391
  0   360      1.41578    0.07450

  1   357      1.18980    0.20066
  1   358      1.23690    0.17937
  1   359      1.26819    0.16250
  1   360      1.28402    0.15330



Forces in eV/Ang:
  0 Ag   -0.41545    0.15909   -1.04984
  1 Ag    0.24921    0.22670   -0.86509
  2 Ir    0.49416   -0.17388    0.04115
  3 Ir   -0.11981    1.23623    1.38510
  4 Ir    0.42229    0.40515    0.89419
  5 Ir   -0.31915   -0.02246    1.21818
  6 Ir   -1.71298   -0.51034    0.74875
  7 Ag   -0.11962   -0.33898   -0.94943
  8 Pt    1.06100   -0.38691    0.49341
  9 Ag    0.12309    0.00518    0.18941
 10 Ir   -0.01513   -0.41427    1.02021
 11 Ir   -0.63959   -0.79665   -0.50250
 12 Ir    0.39832    0.14855    0.19548
 13 Ag   -0.01329   -0.03058    0.17298
 14 Ag    0.04854    0.07496    0.14222
 15 Pt   -0.13324   -0.02456   -0.59458
 16 Ru    0.60272    0.44937   -1.40332
 17 Ir    0.13469    0.30511   -1.25199
 18 Ir   -0.01111   -0.00837    0.01063
 19 Pt    0.00790   -0.05107    0.02642
 20 Pt    0.03425   -0.03063    0.00179
 21 Ag    0.00460    0.00976    0.02117
 22 Ag   -0.00818   -0.02985    0.04521
 23 Ag    0.01883   -0.01051    0.00447
 24 Pt   -0.00919    0.00764   -0.00807
 25 Ag    0.04611    0.05183    0.04569
 26 Ir    0.01694    0.02111   -0.00744
 27 Ru   -0.01248   -0.02972   -0.00845
 28 Ir   -0.03312   -0.04146   -0.04353
 29 Ir    0.02645   -0.20340    0.19120
 30 Ir    0.01694    0.03655    0.01006
 31 Ir    0.06990    0.02398   -0.29074
 32 Pt   -0.04601   -0.00604   -0.01536
 33 Ag   -0.13644    0.08694    0.38509
 34 Ir    0.00732   -0.05977   -0.21531
 35 Ru    0.05136    0.09141    0.07252
 36 Ir   -0.08755    0.06936    0.03149
 37 Ir    0.13785    0.02887    0.18931
 38 Pt    0.12662    0.16062   -0.02903
 39 Ag    0.00578   -0.01407    0.03425
 40 Ir   -0.01102   -0.07198    0.14689
 41 Pt   -0.03139   -0.03664   -0.09772
 42 Ir   -0.10764   -0.01478    0.12842
 43 Ir    0.08090   -0.04703    0.00494
 44 Ag   -0.01937   -0.01734   -0.05224
 45 O     0.02574    0.11039    0.26548
 46 H    -0.33323   -0.34136   -0.76324

System changes: positions 

Initializing position-dependent things.

Density initialized from wave functions
                                             
                                             
                                             
                                             
                                             
                                             
                                             
                                             
                  Ir   HIr     Ag            
            Ag       O                       
                  AIr     Pt    Ru           
       Ir    IIr    IPt    Pt                
                                             
         Ru    Ir    PIr    Ag     Ir        
                                             
                Ag     Ag     Ag             
           Ir    PPt    RPt    Ir            
                                             
            Ir    IAg    AAg    Pt           
       Ag     Ir     Ir                      
             Ir     Ir     Ir                
        Ag     Ag     Ir                     
                                             
                                             
                                             
                                             
                                             

Positions:
   0 Ag     0.000000    1.621936   10.000000    ( 0.0000,  0.0000,  0.0000)
   1 Ag     2.809275    1.621936   10.000000    ( 0.0000,  0.0000,  0.0000)
   2 Ir     5.618550    1.621936   10.000000    ( 0.0000,  0.0000,  0.0000)
   3 Ir     1.404638    4.054840   10.000000    ( 0.0000,  0.0000,  0.0000)
   4 Ir     4.213913    4.054840   10.000000    ( 0.0000,  0.0000,  0.0000)
   5 Ir     7.023188    4.054840   10.000000    ( 0.0000,  0.0000,  0.0000)
   6 Ir     2.809275    6.487743   10.000000    ( 0.0000,  0.0000,  0.0000)
   7 Ag     5.618550    6.487743   10.000000    ( 0.0000,  0.0000,  0.0000)
   8 Pt     8.427826    6.487743   10.000000    ( 0.0000,  0.0000,  0.0000)
   9 Ag     0.000000    0.000000   12.293764    ( 0.0000,  0.0000,  0.0000)
  10 Ir     2.809275    0.000000   12.293764    ( 0.0000,  0.0000,  0.0000)
  11 Ir     5.618550    0.000000   12.293764    ( 0.0000,  0.0000,  0.0000)
  12 Ir     1.404638    2.432904   12.293764    ( 0.0000,  0.0000,  0.0000)
  13 Ag     4.213913    2.432904   12.293764    ( 0.0000,  0.0000,  0.0000)
  14 Ag     7.023188    2.432904   12.293764    ( 0.0000,  0.0000,  0.0000)
  15 Pt     2.809275    4.865807   12.293764    ( 0.0000,  0.0000,  0.0000)
  16 Ru     5.618550    4.865807   12.293764    ( 0.0000,  0.0000,  0.0000)
  17 Ir     8.427826    4.865807   12.293764    ( 0.0000,  0.0000,  0.0000)
  18 Ir     1.438081    0.791703   14.598459    ( 0.0000,  0.0000,  0.0000)
  19 Pt     4.195962    0.727279   14.622953    ( 0.0000,  0.0000,  0.0000)
  20 Pt     7.042629    0.801931   14.642380    ( 0.0000,  0.0000,  0.0000)
  21 Ag     2.791207    3.269168   14.616924    ( 0.0000,  0.0000,  0.0000)
  22 Ag     5.615816    3.229452   14.639127    ( 0.0000,  0.0000,  0.0000)
  23 Ag     8.466401    3.239707   14.606411    ( 0.0000,  0.0000,  0.0000)
  24 Pt     4.242581    5.675200   14.610380    ( 0.0000,  0.0000,  0.0000)
  25 Ag     7.023455    5.624187   14.594570    ( 0.0000,  0.0000,  0.0000)
  26 Ir     9.816098    5.744913   14.536762    ( 0.0000,  0.0000,  0.0000)
  27 Ru     0.083658    1.649829   16.928960    ( 0.0000,  0.0000,  0.0000)
  28 Ir     2.745236    1.622341   16.873417    ( 0.0000,  0.0000,  0.0000)
  29 Ir     5.550282    1.550488   16.915640    ( 0.0000,  0.0000,  0.0000)
  30 Ir     1.351646    4.013432   17.026485    ( 0.0000,  0.0000,  0.0000)
  31 Ir     4.200326    3.980431   16.935504    ( 0.0000,  0.0000,  0.0000)
  32 Pt     7.121829    4.055764   16.993552    ( 0.0000,  0.0000,  0.0000)
  33 Ag     2.733723    6.483045   16.855796    ( 0.0000,  0.0000,  0.0000)
  34 Ir     5.668271    6.550656   16.853857    ( 0.0000,  0.0000,  0.0000)
  35 Ru     8.427392    6.499465   16.882960    ( 0.0000,  0.0000,  0.0000)
  36 Ir     0.033204   -0.042901   18.993866    ( 0.0000,  0.0000,  0.0000)
  37 Ir     2.777027   -0.027569   18.996149    ( 0.0000,  0.0000,  0.0000)
  38 Pt     5.622675    0.007303   19.430266    ( 0.0000,  0.0000,  0.0000)
  39 Ag     1.411927    2.417924   19.552569    ( 0.0000,  0.0000,  0.0000)
  40 Ir     4.219909    2.408472   19.025480    ( 0.0000,  0.0000,  0.0000)
  41 Pt     6.974319    2.322147   19.108678    ( 0.0000,  0.0000,  0.0000)
  42 Ir     2.919195    4.851456   19.050796    ( 0.0000,  0.0000,  0.0000)
  43 Ir     5.536771    4.941274   19.026167    ( 0.0000,  0.0000,  0.0000)
  44 Ag     8.395155    4.860011   19.524622    ( 0.0000,  0.0000,  0.0000)
  45 O      5.592347   -0.064442   21.392324    ( 0.0000,  0.0000,  0.0000)
  46 H      6.226262    0.541562   21.780071    ( 0.0000,  0.0000,  0.0000)

Unit cell:
           periodic     x           y           z      points  spacing
  1. axis:    yes    8.445283    0.000000    0.000000    35     0.2090
  2. axis:    yes    4.222641    7.313829    0.000000    35     0.2090
  3. axis:    no     0.000000    0.000000   29.175054   135     0.2161

  Lengths:   8.445283   8.445283  29.175054
  Angles:   90.000000  90.000000  60.000000

Effective grid spacing dv^(1/3) = 0.2217

                     log10-error:    total        iterations:
           time      wfs    density  energy       fermi  poisson
iter:   1  21:46:57  -2.16   +inf  -270.314692    3             
iter:   2  21:47:58  -2.22  -2.05  -279.528543    35            
iter:   3  21:48:59  -1.97  -1.66  -293.159632    3             
iter:   4  21:50:01  -2.50  -1.46  -268.611203    3             
iter:   5  21:51:02  -3.77  -2.50  -268.434946    3             
iter:   6  21:52:04  -4.65  -2.79  -268.416717    3             
iter:   7  21:53:07  -4.55  -2.89  -268.406141    3             
iter:   8  21:54:10  -4.38  -2.93  -268.383649    3             
iter:   9  21:55:14  -4.07  -3.04  -268.374230    2             
iter:  10  21:56:17  -4.53  -3.12  -268.475530    2             
iter:  11  21:57:20  -4.76  -2.65  -268.371944    2             
iter:  12  21:58:23  -5.61  -3.23  -268.371437    2             
iter:  13  21:59:26  -5.17  -3.41  -268.372810    3             
iter:  14  22:00:30  -5.69  -3.45  -268.371018    3             
iter:  15  22:01:32  -5.63  -3.50  -268.371799    3             
iter:  16  22:02:35  -5.81  -3.74  -268.373613    2             
iter:  17  22:03:38  -5.98  -3.55  -268.371080    2             
iter:  18  22:04:42  -6.06  -3.43  -268.371440    2             
iter:  19  22:05:45  -6.75  -3.97  -268.371252    2             
iter:  20  22:06:48  -6.64  -4.06  -268.370923    2             
iter:  21  22:07:51  -6.97  -4.09  -268.371454    2             
iter:  22  22:08:55  -6.92  -4.07  -268.371329    2             
iter:  23  22:09:58  -6.75  -4.22  -268.370491    2             
iter:  24  22:11:00  -6.91  -3.83  -268.371365    2             
iter:  25  22:12:04  -7.63  -4.25  -268.371101    2             

Converged after 25 iterations.

Dipole moment: (21.153355, 18.659055, -0.036194) |e|*Ang

Energy contributions relative to reference atoms: (reference = -16429291.423757)

Kinetic:       -152.835123
Potential:      +95.330521
External:        +0.000000
XC:            -203.475334
Entropy (-ST):   -2.086416
Local:           -6.347957
--------------------------
Free energy:   -269.414309
Extrapolated:  -268.371101

Fermi level: 1.34495

Showing only first 2 kpts
 Kpt  Band  Eigenvalues  Occupancy
  0   357      1.32209    0.13923
  0   358      1.36998    0.10944
  0   359      1.39692    0.09323
  0   360      1.42728    0.07627

  1   357      1.21002    0.19850
  1   358      1.24694    0.18179
  1   359      1.28678    0.16037
  1   360      1.30299    0.15085



Forces in eV/Ang:
  0 Ag   -0.41548    0.15674   -1.05236
  1 Ag    0.24953    0.22525   -0.86815
  2 Ir    0.49346   -0.17313    0.04323
  3 Ir   -0.11742    1.24038    1.37777
  4 Ir    0.42190    0.40809    0.88907
  5 Ir   -0.32152   -0.01820    1.22299
  6 Ir   -1.70919   -0.51134    0.74238
  7 Ag   -0.12045   -0.33635   -0.95004
  8 Pt    1.05906   -0.38568    0.49051
  9 Ag    0.12430    0.00725    0.18554
 10 Ir   -0.01334   -0.39605    1.02168
 11 Ir   -0.64192   -0.78799   -0.49284
 12 Ir    0.40622    0.14934    0.19860
 13 Ag   -0.01092   -0.03573    0.19783
 14 Ag    0.04173    0.07490    0.16254
 15 Pt   -0.12682   -0.02421   -0.58057
 16 Ru    0.61388    0.44205   -1.38355
 17 Ir    0.13582    0.30422   -1.22999
 18 Ir    0.00945    0.02267   -0.03250
 19 Pt    0.03430    0.01727    0.00375
 20 Pt   -0.00647   -0.08719    0.08334
 21 Ag   -0.02949   -0.03307   -0.05545
 22 Ag    0.05201   -0.08491   -0.00226
 23 Ag    0.00198    0.00749    0.01494
 24 Pt   -0.06865    0.01469    0.06656
 25 Ag    0.04607   -0.04194   -0.02788
 26 Ir    0.08102    0.02336    0.07332
 27 Ru    0.02905   -0.01724   -0.02790
 28 Ir    0.02795   -0.00893    0.06518
 29 Ir   -0.10635    0.00520    0.07642
 30 Ir    0.01577   -0.02289    0.01015
 31 Ir    0.01144    0.03545    0.46771
 32 Pt   -0.00362    0.02440   -0.02202
 33 Ag    0.01758   -0.03374    0.00495
 34 Ir    0.01835   -0.00786    0.29881
 35 Ru   -0.14530    0.02798    0.03762
 36 Ir    0.14457   -0.09450    0.02838
 37 Ir   -0.12037   -0.00514   -0.19017
 38 Pt   -0.04169   -0.07376   -1.09517
 39 Ag    0.00507   -0.01405    0.02396
 40 Ir   -0.07790    0.11458   -0.21865
 41 Pt    0.03636    0.07732    0.01051
 42 Ir    0.21562   -0.15071   -0.10294
 43 Ir   -0.17423    0.07101   -0.12390
 44 Ag    0.04532    0.03985   -0.04158
 45 O    -1.17765   -1.05230    0.37016
 46 H     0.97171    0.92152    0.38262

System changes: positions 

Initializing position-dependent things.

Density initialized from wave functions
                                             
                                             
                                             
                                             
                                             
                                             
                                             
                                             
                  Ir   HIr     Ag            
            Ag       O                       
                  AIr     Pt    Ru           
       Ir    IIr    IPt    Pt                
                                             
         Ru    Ir    PIr    Ag     Ir        
                                             
                Ag     Ag     Ag             
           Ir    PPt    RPt    Ir            
                                             
            Ir    IAg    AAg    Pt           
       Ag     Ir     Ir                      
             Ir     Ir     Ir                
        Ag     Ag     Ir                     
                                             
                                             
                                             
                                             
                                             

Positions:
   0 Ag     0.000000    1.621936   10.000000    ( 0.0000,  0.0000,  0.0000)
   1 Ag     2.809275    1.621936   10.000000    ( 0.0000,  0.0000,  0.0000)
   2 Ir     5.618550    1.621936   10.000000    ( 0.0000,  0.0000,  0.0000)
   3 Ir     1.404638    4.054840   10.000000    ( 0.0000,  0.0000,  0.0000)
   4 Ir     4.213913    4.054840   10.000000    ( 0.0000,  0.0000,  0.0000)
   5 Ir     7.023188    4.054840   10.000000    ( 0.0000,  0.0000,  0.0000)
   6 Ir     2.809275    6.487743   10.000000    ( 0.0000,  0.0000,  0.0000)
   7 Ag     5.618550    6.487743   10.000000    ( 0.0000,  0.0000,  0.0000)
   8 Pt     8.427826    6.487743   10.000000    ( 0.0000,  0.0000,  0.0000)
   9 Ag     0.000000    0.000000   12.293764    ( 0.0000,  0.0000,  0.0000)
  10 Ir     2.809275    0.000000   12.293764    ( 0.0000,  0.0000,  0.0000)
  11 Ir     5.618550    0.000000   12.293764    ( 0.0000,  0.0000,  0.0000)
  12 Ir     1.404638    2.432904   12.293764    ( 0.0000,  0.0000,  0.0000)
  13 Ag     4.213913    2.432904   12.293764    ( 0.0000,  0.0000,  0.0000)
  14 Ag     7.023188    2.432904   12.293764    ( 0.0000,  0.0000,  0.0000)
  15 Pt     2.809275    4.865807   12.293764    ( 0.0000,  0.0000,  0.0000)
  16 Ru     5.618550    4.865807   12.293764    ( 0.0000,  0.0000,  0.0000)
  17 Ir     8.427826    4.865807   12.293764    ( 0.0000,  0.0000,  0.0000)
  18 Ir     1.439040    0.792082   14.597448    ( 0.0000,  0.0000,  0.0000)
  19 Pt     4.195320    0.730076   14.620406    ( 0.0000,  0.0000,  0.0000)
  20 Pt     7.040093    0.803539   14.641566    ( 0.0000,  0.0000,  0.0000)
  21 Ag     2.790766    3.268413   14.614970    ( 0.0000,  0.0000,  0.0000)
  22 Ag     5.616095    3.230948   14.636025    ( 0.0000,  0.0000,  0.0000)
  23 Ag     8.465333    3.240186   14.606365    ( 0.0000,  0.0000,  0.0000)
  24 Pt     4.242440    5.674858   14.609765    ( 0.0000,  0.0000,  0.0000)
  25 Ag     7.020897    5.621673   14.591763    ( 0.0000,  0.0000,  0.0000)
  26 Ir     9.814729    5.744307   14.536898    ( 0.0000,  0.0000,  0.0000)
  27 Ru     0.084841    1.651913   16.929026    ( 0.0000,  0.0000,  0.0000)
  28 Ir     2.746945    1.624937   16.875850    ( 0.0000,  0.0000,  0.0000)
  29 Ir     5.549054    1.565381   16.903639    ( 0.0000,  0.0000,  0.0000)
  30 Ir     1.351522    4.010950   17.024673    ( 0.0000,  0.0000,  0.0000)
  31 Ir     4.196762    3.978934   16.952679    ( 0.0000,  0.0000,  0.0000)
  32 Pt     7.124366    4.056146   16.994698    ( 0.0000,  0.0000,  0.0000)
  33 Ag     2.743203    6.477851   16.831113    ( 0.0000,  0.0000,  0.0000)
  34 Ir     5.667576    6.554866   16.865808    ( 0.0000,  0.0000,  0.0000)
  35 Ru     8.421868    6.493289   16.877631    ( 0.0000,  0.0000,  0.0000)
  36 Ir     0.035990   -0.047736   18.992638    ( 0.0000,  0.0000,  0.0000)
  37 Ir     2.770045   -0.028634   18.985272    ( 0.0000,  0.0000,  0.0000)
  38 Pt     5.616200   -0.006895   19.398145    ( 0.0000,  0.0000,  0.0000)
  39 Ag     1.411649    2.419226   19.550716    ( 0.0000,  0.0000,  0.0000)
  40 Ir     4.221172    2.411559   19.016995    ( 0.0000,  0.0000,  0.0000)
  41 Pt     6.974919    2.323200   19.115153    ( 0.0000,  0.0000,  0.0000)
  42 Ir     2.924963    4.855398   19.043480    ( 0.0000,  0.0000,  0.0000)
  43 Ir     5.531307    4.944527   19.026107    ( 0.0000,  0.0000,  0.0000)
  44 Ag     8.397325    4.862516   19.528216    ( 0.0000,  0.0000,  0.0000)
  45 O      5.603140   -0.059976   21.404983    ( 0.0000,  0.0000,  0.0000)
  46 H      6.239032    0.555712   21.828986    ( 0.0000,  0.0000,  0.0000)

Unit cell:
           periodic     x           y           z      points  spacing
  1. axis:    yes    8.445283    0.000000    0.000000    35     0.2090
  2. axis:    yes    4.222641    7.313829    0.000000    35     0.2090
  3. axis:    no     0.000000    0.000000   29.175054   135     0.2161

  Lengths:   8.445283   8.445283  29.175054
  Angles:   90.000000  90.000000  60.000000

Effective grid spacing dv^(1/3) = 0.2217

                     log10-error:    total        iterations:
           time      wfs    density  energy       fermi  poisson
iter:   1  22:13:36  -2.75   +inf  -268.730015    3             
iter:   2  22:14:40  -3.27  -2.58  -269.546999    3             
iter:   3  22:15:43  -3.28  -2.12  -269.252259    3             
iter:   4  22:16:46  -3.71  -2.15  -268.511878    3             
iter:   5  22:17:49  -4.28  -2.70  -268.431280    3             
iter:   6  22:18:52  -4.81  -3.23  -268.424626    3             
iter:   7  22:19:55  -5.39  -3.22  -268.423951    2             
iter:   8  22:21:02  -5.30  -3.36  -268.425017    2             
iter:   9  22:22:07  -5.25  -3.30  -268.433742    2             
iter:  10  22:22:56  -4.91  -2.96  -268.427508    2             
iter:  11  22:23:46  -5.36  -3.26  -268.424507    3             
iter:  12  22:24:39  -6.05  -3.35  -268.421151    2             
iter:  13  22:25:41  -6.40  -3.57  -268.421073    2             
iter:  14  22:26:44  -6.33  -3.59  -268.419362    2             
iter:  15  22:27:47  -6.17  -3.90  -268.418647    2             
iter:  16  22:28:49  -6.77  -3.82  -268.420238    2             
iter:  17  22:29:52  -6.73  -3.77  -268.419081    2             
iter:  18  22:30:55  -6.51  -4.05  -268.418791    2             
iter:  19  22:31:58  -6.82  -4.03  -268.419216    2             
iter:  20  22:33:00  -7.41  -4.29  -268.418924    2             

Converged after 20 iterations.

Dipole moment: (21.343299, 19.343884, -0.051667) |e|*Ang

Energy contributions relative to reference atoms: (reference = -16429291.423757)

Kinetic:       -152.727958
Potential:      +95.108999
External:        +0.000000
XC:            -203.378252
Entropy (-ST):   -2.078506
Local:           -6.382460
--------------------------
Free energy:   -269.458177
Extrapolated:  -268.418924

Fermi level: 1.33638

Showing only first 2 kpts
 Kpt  Band  Eigenvalues  Occupancy
  0   357      1.31586    0.13778
  0   358      1.36137    0.10946
  0   359      1.38776    0.09358
  0   360      1.42040    0.07537

  1   357      1.19886    0.19956
  1   358      1.24066    0.18064
  1   359      1.27668    0.16124
  1   360      1.29256    0.15196



Forces in eV/Ang:
  0 Ag   -0.41641    0.15885   -1.05677
  1 Ag    0.24982    0.22675   -0.87090
  2 Ir    0.49362   -0.17489    0.02896
  3 Ir   -0.11977    1.23693    1.36611
  4 Ir    0.42202    0.40738    0.87801
  5 Ir   -0.31952   -0.01868    1.20893
  6 Ir   -1.71092   -0.51002    0.73282
  7 Ag   -0.12000   -0.33925   -0.95434
  8 Pt    1.06106   -0.38682    0.48242
  9 Ag    0.12413    0.00341    0.18820
 10 Ir   -0.01375   -0.40622    1.02268
 11 Ir   -0.64141   -0.79345   -0.49599
 12 Ir    0.40460    0.14924    0.19847
 13 Ag   -0.01259   -0.03394    0.18525
 14 Ag    0.04377    0.07642    0.15172
 15 Pt   -0.13097   -0.02357   -0.58960
 16 Ru    0.60806    0.44759   -1.39612
 17 Ir    0.13478    0.30580   -1.24053
 18 Ir   -0.00153    0.01038   -0.01869
 19 Pt    0.02372   -0.01622    0.01081
 20 Pt    0.01374   -0.05712    0.03837
 21 Ag   -0.01459   -0.01241   -0.02023
 22 Ag    0.02421   -0.06530    0.02081
 23 Ag    0.00988    0.00003    0.00895
 24 Pt   -0.04713    0.01644    0.02026
 25 Ag    0.05242    0.00464    0.00378
 26 Ir    0.04676    0.02043    0.03023
 27 Ru    0.01197   -0.02425   -0.02106
 28 Ir    0.00076   -0.02173    0.01722
 29 Ir   -0.04596   -0.09508    0.13021
 30 Ir    0.01903    0.01005    0.00687
 31 Ir    0.03185    0.01593    0.12419
 32 Pt   -0.02109    0.00823   -0.02071
 33 Ag   -0.06047    0.02384    0.19605
 34 Ir    0.01761   -0.02432    0.07302
 35 Ru   -0.04737    0.05799    0.05831
 36 Ir    0.05308   -0.03607    0.02838
 37 Ir   -0.01382   -0.00115   -0.00783
 38 Pt    0.04018    0.03246   -0.43969
 39 Ag    0.00573   -0.01311    0.03233
 40 Ir   -0.05120    0.05080   -0.05374
 41 Pt    0.00335    0.03391   -0.03624
 42 Ir    0.07945   -0.08714    0.00638
 43 Ir   -0.06665    0.02408   -0.05748
 44 Ag    0.01435    0.01746   -0.03191
 45 O    -0.54445   -0.44461    0.20255
 46 H     0.26981    0.25237   -0.17108

System changes: positions 

Initializing position-dependent things.

Density initialized from wave functions
                                             
                                             
                                             
                                             
                                             
                                             
                                             
                                             
                  Ir   HIr     Ag            
            Ag       O                       
                  AIr     Pt    Ru           
       Ir    IIr    IPt    Pt                
                                             
         Ru    Ir    PIr    Ag     Ir        
                                             
                Ag     Ag     Ag             
           Ir    PPt    RPt    Ir            
                                             
            Ir    IAg    AAg    Pt           
       Ag     Ir     Ir                      
             Ir     Ir     Ir                
        Ag     Ag     Ir                     
                                             
                                             
                                             
                                             
                                             

Positions:
   0 Ag     0.000000    1.621936   10.000000    ( 0.0000,  0.0000,  0.0000)
   1 Ag     2.809275    1.621936   10.000000    ( 0.0000,  0.0000,  0.0000)
   2 Ir     5.618550    1.621936   10.000000    ( 0.0000,  0.0000,  0.0000)
   3 Ir     1.404638    4.054840   10.000000    ( 0.0000,  0.0000,  0.0000)
   4 Ir     4.213913    4.054840   10.000000    ( 0.0000,  0.0000,  0.0000)
   5 Ir     7.023188    4.054840   10.000000    ( 0.0000,  0.0000,  0.0000)
   6 Ir     2.809275    6.487743   10.000000    ( 0.0000,  0.0000,  0.0000)
   7 Ag     5.618550    6.487743   10.000000    ( 0.0000,  0.0000,  0.0000)
   8 Pt     8.427826    6.487743   10.000000    ( 0.0000,  0.0000,  0.0000)
   9 Ag     0.000000    0.000000   12.293764    ( 0.0000,  0.0000,  0.0000)
  10 Ir     2.809275    0.000000   12.293764    ( 0.0000,  0.0000,  0.0000)
  11 Ir     5.618550    0.000000   12.293764    ( 0.0000,  0.0000,  0.0000)
  12 Ir     1.404638    2.432904   12.293764    ( 0.0000,  0.0000,  0.0000)
  13 Ag     4.213913    2.432904   12.293764    ( 0.0000,  0.0000,  0.0000)
  14 Ag     7.023188    2.432904   12.293764    ( 0.0000,  0.0000,  0.0000)
  15 Pt     2.809275    4.865807   12.293764    ( 0.0000,  0.0000,  0.0000)
  16 Ru     5.618550    4.865807   12.293764    ( 0.0000,  0.0000,  0.0000)
  17 Ir     8.427826    4.865807   12.293764    ( 0.0000,  0.0000,  0.0000)
  18 Ir     1.438304    0.793054   14.596525    ( 0.0000,  0.0000,  0.0000)
  19 Pt     4.198122    0.727176   14.623374    ( 0.0000,  0.0000,  0.0000)
  20 Pt     7.043010    0.796984   14.646395    ( 0.0000,  0.0000,  0.0000)
  21 Ag     2.789546    3.267554   14.614464    ( 0.0000,  0.0000,  0.0000)
  22 Ag     5.618599    3.223630   14.640271    ( 0.0000,  0.0000,  0.0000)
  23 Ag     8.466924    3.240015   14.607179    ( 0.0000,  0.0000,  0.0000)
  24 Pt     4.238199    5.676666   14.613047    ( 0.0000,  0.0000,  0.0000)
  25 Ag     7.027427    5.623090   14.593764    ( 0.0000,  0.0000,  0.0000)
  26 Ir     9.820482    5.746251   14.540044    ( 0.0000,  0.0000,  0.0000)
  27 Ru     0.085228    1.648205   16.927168    ( 0.0000,  0.0000,  0.0000)
  28 Ir     2.746352    1.621300   16.876641    ( 0.0000,  0.0000,  0.0000)
  29 Ir     5.544720    1.546196   16.923699    ( 0.0000,  0.0000,  0.0000)
  30 Ir     1.352820    4.013329   17.027243    ( 0.0000,  0.0000,  0.0000)
  31 Ir     4.201655    3.981201   16.957342    ( 0.0000,  0.0000,  0.0000)
  32 Pt     7.120796    4.056833   16.991583    ( 0.0000,  0.0000,  0.0000)
  33 Ag     2.731501    6.482821   16.864244    ( 0.0000,  0.0000,  0.0000)
  34 Ir     5.670238    6.549693   16.867969    ( 0.0000,  0.0000,  0.0000)
  35 Ru     8.421411    6.502838   16.886697    ( 0.0000,  0.0000,  0.0000)
  36 Ir     0.042014   -0.048476   18.995353    ( 0.0000,  0.0000,  0.0000)
  37 Ir     2.771214   -0.028316   18.989126    ( 0.0000,  0.0000,  0.0000)
  38 Pt     5.621936    0.006530   19.386183    ( 0.0000,  0.0000,  0.0000)
  39 Ag     1.412546    2.416733   19.554980    ( 0.0000,  0.0000,  0.0000)
  40 Ir     4.214622    2.415927   19.014618    ( 0.0000,  0.0000,  0.0000)
  41 Pt     6.975907    2.327017   19.106634    ( 0.0000,  0.0000,  0.0000)
  42 Ir     2.931009    4.841981   19.047091    ( 0.0000,  0.0000,  0.0000)
  43 Ir     5.527372    4.945004   19.020635    ( 0.0000,  0.0000,  0.0000)
  44 Ag     8.396881    4.861814   19.522457    ( 0.0000,  0.0000,  0.0000)
  45 O      5.559631   -0.089821   21.425493    ( 0.0000,  0.0000,  0.0000)
  46 H      6.240062    0.553999   21.766688    ( 0.0000,  0.0000,  0.0000)

Unit cell:
           periodic     x           y           z      points  spacing
  1. axis:    yes    8.445283    0.000000    0.000000    35     0.2090
  2. axis:    yes    4.222641    7.313829    0.000000    35     0.2090
  3. axis:    no     0.000000    0.000000   29.175054   135     0.2161

  Lengths:   8.445283   8.445283  29.175054
  Angles:   90.000000  90.000000  60.000000

Effective grid spacing dv^(1/3) = 0.2217

                     log10-error:    total        iterations:
           time      wfs    density  energy       fermi  poisson
iter:   1  22:34:31  -2.60   +inf  -269.982513    3             
iter:   2  22:35:34  -1.85  -2.05  -319.645586    37            
iter:   3  22:36:36  -2.23  -1.34  -268.996131    4             
iter:   4  22:37:39  -3.18  -2.32  -268.514053    3             
iter:   5  22:38:41  -4.24  -2.78  -268.474302    2             
iter:   6  22:39:43  -4.48  -3.05  -268.462614    3             
iter:   7  22:40:45  -4.96  -3.08  -268.453179    2             
iter:   8  22:41:48  -5.29  -3.28  -268.460378    3             
iter:   9  22:42:50  -5.21  -3.10  -268.450425    2             
iter:  10  22:43:53  -5.16  -3.41  -268.455128    2             
iter:  11  22:44:56  -5.37  -3.28  -268.450038    2             
iter:  12  22:45:59  -5.92  -3.68  -268.448757    2             
iter:  13  22:46:57  -6.21  -3.79  -268.448231    2             
iter:  14  22:47:57  -6.36  -3.81  -268.448837    2             
iter:  15  22:48:58  -6.23  -3.90  -268.447982    2             
iter:  16  22:50:00  -6.17  -3.71  -268.448313    2             
iter:  17  22:51:02  -6.86  -4.12  -268.448140    2             
iter:  18  22:52:03  -7.03  -4.03  -268.449011    2             
iter:  19  22:53:05  -7.25  -3.95  -268.448193    2             
iter:  20  22:54:06  -6.81  -4.15  -268.448768    2             
iter:  21  22:55:03  -6.92  -4.08  -268.448042    2             
iter:  22  22:56:03  -6.93  -4.03  -268.448573    2             
iter:  23  22:57:05  -7.50  -4.29  -268.448514    2             

Converged after 23 iterations.

Dipole moment: (20.785465, 20.420772, -0.102762) |e|*Ang

Energy contributions relative to reference atoms: (reference = -16429291.423757)

Kinetic:       -152.471780
Potential:      +94.676123
External:        +0.000000
XC:            -203.277880
Entropy (-ST):   -2.079456
Local:           -6.335249
--------------------------
Free energy:   -269.488242
Extrapolated:  -268.448514

Fermi level: 1.31637

Showing only first 2 kpts
 Kpt  Band  Eigenvalues  Occupancy
  0   357      1.29702    0.13706
  0   358      1.34601    0.10661
  0   359      1.36802    0.09341
  0   360      1.40083    0.07514

  1   357      1.17978    0.19918
  1   358      1.22016    0.18088
  1   359      1.25923    0.15977
  1   360      1.27296    0.15171



Forces in eV/Ang:
  0 Ag   -0.41694    0.15810   -1.05228
  1 Ag    0.25066    0.22582   -0.86825
  2 Ir    0.49425   -0.17433    0.04059
  3 Ir   -0.11877    1.24218    1.37885
  4 Ir    0.42139    0.41003    0.89015
  5 Ir   -0.32099   -0.01566    1.22731
  6 Ir   -1.71190   -0.51259    0.74223
  7 Ag   -0.12011   -0.33936   -0.94818
  8 Pt    1.06217   -0.38792    0.49007
  9 Ag    0.12330    0.00199    0.18656
 10 Ir   -0.00751   -0.41154    1.02437
 11 Ir   -0.64383   -0.79328   -0.49030
 12 Ir    0.40232    0.14814    0.19665
 13 Ag   -0.00605   -0.03311    0.19946
 14 Ag    0.04301    0.07045    0.17043
 15 Pt   -0.12574   -0.02174   -0.58552
 16 Ru    0.61204    0.44415   -1.36572
 17 Ir    0.14031    0.30727   -1.23599
 18 Ir    0.01196   -0.01464    0.01022
 19 Pt    0.00270    0.01553    0.00160
 20 Pt    0.00259   -0.04208    0.07930
 21 Ag    0.02831   -0.00986    0.02071
 22 Ag   -0.00015   -0.02599    0.04753
 23 Ag   -0.00171   -0.00113    0.01461
 24 Pt   -0.00073   -0.01874    0.09181
 25 Ag   -0.01979   -0.01699    0.00573
 26 Ir    0.05786   -0.00404    0.07024
 27 Ru    0.02301    0.00007   -0.01499
 28 Ir   -0.02390    0.02214   -0.03106
 29 Ir   -0.02764    0.03629   -0.01034
 30 Ir   -0.00819   -0.04773   -0.02541
 31 Ir   -0.00226    0.00991   -0.05652
 32 Pt    0.02117    0.01666   -0.04918
 33 Ag    0.04551   -0.04515   -0.07941
 34 Ir   -0.00667    0.01025    0.01862
 35 Ru   -0.10428   -0.04351   -0.01816
 36 Ir    0.01398    0.00314    0.08863
 37 Ir   -0.03725   -0.00036    0.00976
 38 Pt   -0.14050   -0.14754   -0.09730
 39 Ag   -0.01788   -0.01252    0.03969
 40 Ir   -0.00292   -0.01549    0.06392
 41 Pt    0.04155    0.04932    0.05128
 42 Ir   -0.01679   -0.01295    0.10252
 43 Ir    0.05556    0.00304    0.06739
 44 Ag    0.03756    0.03842   -0.02217
 45 O     0.31043    0.26982   -0.20836
 46 H    -0.24052   -0.24508   -0.21163

System changes: positions 

Initializing position-dependent things.

Density initialized from wave functions
                                             
                                             
                                             
                                             
                                             
                                             
                                             
                                             
                  Ir   HIr     Ag            
            Ag       O                       
                  AIr     Pt    Ru           
       Ir    IIr    IPt    Pt                
                                             
         Ru    Ir    PIr    Ag     Ir        
                Ag     Ag                    
                              Ag             
           Ir    PPt    RPt    Ir            
                                             
            Ir    IAg    AAg    Pt           
       Ag     Ir     Ir                      
             Ir     Ir     Ir                
        Ag     Ag     Ir                     
                                             
                                             
                                             
                                             
                                             

Positions:
   0 Ag     0.000000    1.621936   10.000000    ( 0.0000,  0.0000,  0.0000)
   1 Ag     2.809275    1.621936   10.000000    ( 0.0000,  0.0000,  0.0000)
   2 Ir     5.618550    1.621936   10.000000    ( 0.0000,  0.0000,  0.0000)
   3 Ir     1.404638    4.054840   10.000000    ( 0.0000,  0.0000,  0.0000)
   4 Ir     4.213913    4.054840   10.000000    ( 0.0000,  0.0000,  0.0000)
   5 Ir     7.023188    4.054840   10.000000    ( 0.0000,  0.0000,  0.0000)
   6 Ir     2.809275    6.487743   10.000000    ( 0.0000,  0.0000,  0.0000)
   7 Ag     5.618550    6.487743   10.000000    ( 0.0000,  0.0000,  0.0000)
   8 Pt     8.427826    6.487743   10.000000    ( 0.0000,  0.0000,  0.0000)
   9 Ag     0.000000    0.000000   12.293764    ( 0.0000,  0.0000,  0.0000)
  10 Ir     2.809275    0.000000   12.293764    ( 0.0000,  0.0000,  0.0000)
  11 Ir     5.618550    0.000000   12.293764    ( 0.0000,  0.0000,  0.0000)
  12 Ir     1.404638    2.432904   12.293764    ( 0.0000,  0.0000,  0.0000)
  13 Ag     4.213913    2.432904   12.293764    ( 0.0000,  0.0000,  0.0000)
  14 Ag     7.023188    2.432904   12.293764    ( 0.0000,  0.0000,  0.0000)
  15 Pt     2.809275    4.865807   12.293764    ( 0.0000,  0.0000,  0.0000)
  16 Ru     5.618550    4.865807   12.293764    ( 0.0000,  0.0000,  0.0000)
  17 Ir     8.427826    4.865807   12.293764    ( 0.0000,  0.0000,  0.0000)
  18 Ir     1.439150    0.792197   14.596779    ( 0.0000,  0.0000,  0.0000)
  19 Pt     4.199155    0.727913   14.624050    ( 0.0000,  0.0000,  0.0000)
  20 Pt     7.043798    0.791725   14.654222    ( 0.0000,  0.0000,  0.0000)
  21 Ag     2.791437    3.266406   14.615612    ( 0.0000,  0.0000,  0.0000)
  22 Ag     5.619384    3.219440   14.644870    ( 0.0000,  0.0000,  0.0000)
  23 Ag     8.467093    3.239944   14.608625    ( 0.0000,  0.0000,  0.0000)
  24 Pt     4.236715    5.675644   14.621334    ( 0.0000,  0.0000,  0.0000)
  25 Ag     7.027507    5.621795   14.594378    ( 0.0000,  0.0000,  0.0000)
  26 Ir     9.826780    5.746496   14.546820    ( 0.0000,  0.0000,  0.0000)
  27 Ru     0.087400    1.647346   16.925319    ( 0.0000,  0.0000,  0.0000)
  28 Ir     2.744429    1.622357   16.874605    ( 0.0000,  0.0000,  0.0000)
  29 Ir     5.540957    1.545491   16.927253    ( 0.0000,  0.0000,  0.0000)
  30 Ir     1.352664    4.009857   17.025557    ( 0.0000,  0.0000,  0.0000)
  31 Ir     4.202410    3.982595   16.956339    ( 0.0000,  0.0000,  0.0000)
  32 Pt     7.121900    4.058439   16.986906    ( 0.0000,  0.0000,  0.0000)
  33 Ag     2.732894    6.480004   16.864820    ( 0.0000,  0.0000,  0.0000)
[...]
  22 Ag     5.622081    3.214243   14.649653    ( 0.0000,  0.0000,  0.0000)
  23 Ag     8.470530    3.234833   14.608134    ( 0.0000,  0.0000,  0.0000)
  24 Pt     4.238410    5.670321   14.628851    ( 0.0000,  0.0000,  0.0000)
  25 Ag     7.023700    5.616491   14.590909    ( 0.0000,  0.0000,  0.0000)
  26 Ir     9.826125    5.742377   14.553056    ( 0.0000,  0.0000,  0.0000)
  27 Ru     0.085843    1.644179   16.934937    ( 0.0000,  0.0000,  0.0000)
  28 Ir     2.744402    1.622212   16.879575    ( 0.0000,  0.0000,  0.0000)
  29 Ir     5.538075    1.548582   16.926501    ( 0.0000,  0.0000,  0.0000)
  30 Ir     1.355293    3.997856   17.027502    ( 0.0000,  0.0000,  0.0000)
  31 Ir     4.200864    3.978962   16.968000    ( 0.0000,  0.0000,  0.0000)
  32 Pt     7.121784    4.054859   16.988163    ( 0.0000,  0.0000,  0.0000)
  33 Ag     2.733135    6.468885   16.868726    ( 0.0000,  0.0000,  0.0000)
  34 Ir     5.666166    6.548089   16.875005    ( 0.0000,  0.0000,  0.0000)
  35 Ru     8.405068    6.494883   16.878483    ( 0.0000,  0.0000,  0.0000)
  36 Ir     0.042040   -0.053930   19.011328    ( 0.0000,  0.0000,  0.0000)
  37 Ir     2.758565   -0.027793   18.994643    ( 0.0000,  0.0000,  0.0000)
  38 Pt     5.589586   -0.009629   19.318240    ( 0.0000,  0.0000,  0.0000)
  39 Ag     1.405544    2.413151   19.577152    ( 0.0000,  0.0000,  0.0000)
  40 Ir     4.208863    2.415255   19.026165    ( 0.0000,  0.0000,  0.0000)
  41 Pt     6.975279    2.324781   19.116405    ( 0.0000,  0.0000,  0.0000)
  42 Ir     2.935453    4.835691   19.067082    ( 0.0000,  0.0000,  0.0000)
  43 Ir     5.533600    4.941623   19.032209    ( 0.0000,  0.0000,  0.0000)
  44 Ag     8.405236    4.859650   19.509847    ( 0.0000,  0.0000,  0.0000)
  45 O      5.553811   -0.097792   21.358058    ( 0.0000,  0.0000,  0.0000)
  46 H      6.241425    0.539580   21.670596    ( 0.0000,  0.0000,  0.0000)

Unit cell:
           periodic     x           y           z      points  spacing
  1. axis:    yes    8.445283    0.000000    0.000000    35     0.2090
  2. axis:    yes    4.222641    7.313829    0.000000    35     0.2090
  3. axis:    no     0.000000    0.000000   29.175054   135     0.2161

  Lengths:   8.445283   8.445283  29.175054
  Angles:   90.000000  90.000000  60.000000

Effective grid spacing dv^(1/3) = 0.2217

                     log10-error:    total        iterations:
           time      wfs    density  energy       fermi  poisson
iter:   1  23:55:50  -3.65   +inf  -269.053533    3             
iter:   2  23:56:59  -2.28  -2.27  -292.777997    3             
iter:   3  23:58:08  -2.57  -1.46  -268.520657    3             
iter:   4  23:59:17  -3.83  -2.85  -268.489061    3             
iter:   5  00:00:25  -5.10  -3.23  -268.481385    3             
iter:   6  00:01:33  -5.76  -3.54  -268.479779    2             
iter:   7  00:02:41  -5.94  -3.67  -268.478359    2             
iter:   8  00:03:50  -6.06  -3.83  -268.478880    2             
iter:   9  00:04:58  -6.00  -3.78  -268.477097    2             
iter:  10  00:06:05  -6.51  -3.72  -268.477436    2             
iter:  11  00:07:13  -6.75  -4.08  -268.477390    2             
iter:  12  00:08:20  -7.01  -4.06  -268.477320    2             
iter:  13  00:09:29  -7.14  -4.15  -268.477205    2             
iter:  14  00:10:39  -7.18  -4.14  -268.477590    2             
iter:  15  00:11:48  -7.68  -4.29  -268.477263    2             

Converged after 15 iterations.

Dipole moment: (21.572428, 21.081494, -0.104460) |e|*Ang

Energy contributions relative to reference atoms: (reference = -16429291.423757)

Kinetic:       -153.107475
Potential:      +95.298554
External:        +0.000000
XC:            -203.296980
Entropy (-ST):   -2.084527
Local:           -6.329098
--------------------------
Free energy:   -269.519527
Extrapolated:  -268.477263

Fermi level: 1.31415

Showing only first 2 kpts
 Kpt  Band  Eigenvalues  Occupancy
  0   357      1.29558    0.13657
  0   358      1.34373    0.10664
  0   359      1.36552    0.09358
  0   360      1.40057    0.07411

  1   357      1.17626    0.19971
  1   358      1.22081    0.17944
  1   359      1.25851    0.15891
  1   360      1.27545    0.14889



Forces in eV/Ang:
  0 Ag   -0.41856    0.15821   -1.05289
  1 Ag    0.25013    0.22490   -0.86559
  2 Ir    0.49564   -0.17309    0.04449
  3 Ir   -0.12202    1.23909    1.37438
  4 Ir    0.42252    0.41084    0.88448
  5 Ir   -0.32281   -0.01104    1.22745
  6 Ir   -1.70878   -0.51087    0.74099
  7 Ag   -0.12088   -0.34052   -0.95034
  8 Pt    1.06073   -0.38834    0.49112
  9 Ag    0.11399   -0.01158    0.24417
 10 Ir   -0.00641   -0.41559    1.03819
 11 Ir   -0.63377   -0.82032   -0.45694
 12 Ir    0.40393    0.14501    0.19767
 13 Ag    0.00558   -0.03198    0.20188
 14 Ag    0.04323    0.05207    0.20760
 15 Pt   -0.12540   -0.01743   -0.55749
 16 Ru    0.59789    0.43353   -1.35345
 17 Ir    0.15405    0.29699   -1.22893
 18 Ir   -0.00145   -0.00468   -0.00235
 19 Pt    0.00121   -0.01005    0.00136
 20 Pt   -0.01534    0.02023   -0.01245
 21 Ag   -0.00713    0.00278    0.01132
 22 Ag   -0.00925    0.00530   -0.01261
 23 Ag    0.00213   -0.00209    0.00224
 24 Pt   -0.00151   -0.01651   -0.00374
 25 Ag    0.01075    0.00184   -0.00172
 26 Ir   -0.02435   -0.00467   -0.00404
 27 Ru    0.00622   -0.02603    0.01889
 28 Ir   -0.02277   -0.03770    0.00628
 29 Ir    0.02136   -0.03716   -0.02110
 30 Ir   -0.00509    0.00592    0.00442
 31 Ir   -0.01575    0.02844   -0.06811
 32 Pt    0.01234   -0.00582    0.00424
 33 Ag    0.00762   -0.00476    0.00703
 34 Ir   -0.00681    0.00804    0.01379
 35 Ru    0.01594   -0.00393   -0.00315
 36 Ir    0.00703    0.02709   -0.04676
 37 Ir   -0.01724   -0.01772   -0.01977
 38 Pt   -0.01948   -0.01565   -0.03316
 39 Ag    0.00357   -0.02034    0.00913
 40 Ir   -0.00665   -0.03666    0.03641
 41 Pt    0.01338   -0.00960   -0.00377
 42 Ir   -0.06020    0.01175   -0.02169
 43 Ir    0.04035    0.00657    0.01727
 44 Ag   -0.01619   -0.01642   -0.01062
 45 O     0.08756    0.05367    0.00659
 46 H     0.01960   -0.02272   -0.04259

System changes: positions 

Initializing position-dependent things.

Density initialized from wave functions
                                             
                                             
                                             
                                             
                                             
                                             
                                             
                               Ag            
                  Ir O HIr                   
            Ag                               
                  AIr     Pt    Ru           
       Ir    IIr    IPt    Pt                
                                             
         Ru    Ir    PIr    Ag     Ir        
                Ag     Ag     Ag             
                                             
           Ir    PPt    RPt    Ir            
                                             
            Ir    IAg    AAg    Pt           
       Ag     Ir     Ir                      
             Ir     Ir     Ir                
        Ag     Ag     Ir                     
                                             
                                             
                                             
                                             
                                             

Positions:
   0 Ag     0.000000    1.621936   10.000000    ( 0.0000,  0.0000,  0.0000)
   1 Ag     2.809275    1.621936   10.000000    ( 0.0000,  0.0000,  0.0000)
   2 Ir     5.618550    1.621936   10.000000    ( 0.0000,  0.0000,  0.0000)
   3 Ir     1.404638    4.054840   10.000000    ( 0.0000,  0.0000,  0.0000)
   4 Ir     4.213913    4.054840   10.000000    ( 0.0000,  0.0000,  0.0000)
   5 Ir     7.023188    4.054840   10.000000    ( 0.0000,  0.0000,  0.0000)
   6 Ir     2.809275    6.487743   10.000000    ( 0.0000,  0.0000,  0.0000)
   7 Ag     5.618550    6.487743   10.000000    ( 0.0000,  0.0000,  0.0000)
   8 Pt     8.427826    6.487743   10.000000    ( 0.0000,  0.0000,  0.0000)
   9 Ag     0.000000    0.000000   12.293764    ( 0.0000,  0.0000,  0.0000)
  10 Ir     2.809275    0.000000   12.293764    ( 0.0000,  0.0000,  0.0000)
  11 Ir     5.618550    0.000000   12.293764    ( 0.0000,  0.0000,  0.0000)
  12 Ir     1.404638    2.432904   12.293764    ( 0.0000,  0.0000,  0.0000)
  13 Ag     4.213913    2.432904   12.293764    ( 0.0000,  0.0000,  0.0000)
  14 Ag     7.023188    2.432904   12.293764    ( 0.0000,  0.0000,  0.0000)
  15 Pt     2.809275    4.865807   12.293764    ( 0.0000,  0.0000,  0.0000)
  16 Ru     5.618550    4.865807   12.293764    ( 0.0000,  0.0000,  0.0000)
  17 Ir     8.427826    4.865807   12.293764    ( 0.0000,  0.0000,  0.0000)
  18 Ir     1.441959    0.785713   14.601706    ( 0.0000,  0.0000,  0.0000)
  19 Pt     4.198001    0.723205   14.622259    ( 0.0000,  0.0000,  0.0000)
  20 Pt     7.046428    0.788921   14.661655    ( 0.0000,  0.0000,  0.0000)
  21 Ag     2.796570    3.260988   14.616986    ( 0.0000,  0.0000,  0.0000)
  22 Ag     5.622019    3.215225   14.646739    ( 0.0000,  0.0000,  0.0000)
  23 Ag     8.470953    3.232861   14.609722    ( 0.0000,  0.0000,  0.0000)
  24 Pt     4.237080    5.668920   14.626815    ( 0.0000,  0.0000,  0.0000)
  25 Ag     7.023599    5.614218   14.591716    ( 0.0000,  0.0000,  0.0000)
  26 Ir     9.822209    5.740149   14.550974    ( 0.0000,  0.0000,  0.0000)
  27 Ru     0.086153    1.641731   16.938178    ( 0.0000,  0.0000,  0.0000)
  28 Ir     2.743232    1.618202   16.882537    ( 0.0000,  0.0000,  0.0000)
  29 Ir     5.539391    1.548132   16.923023    ( 0.0000,  0.0000,  0.0000)
  30 Ir     1.356902    3.996243   17.029319    ( 0.0000,  0.0000,  0.0000)
  31 Ir     4.198589    3.978724   16.968947    ( 0.0000,  0.0000,  0.0000)
  32 Pt     7.121842    4.052631   16.990378    ( 0.0000,  0.0000,  0.0000)
  33 Ag     2.734034    6.465461   16.866168    ( 0.0000,  0.0000,  0.0000)
  34 Ir     5.665398    6.545952   16.874178    ( 0.0000,  0.0000,  0.0000)
  35 Ru     8.407156    6.492318   16.875719    ( 0.0000,  0.0000,  0.0000)
  36 Ir     0.041216   -0.053614   19.007063    ( 0.0000,  0.0000,  0.0000)
  37 Ir     2.757411   -0.031678   18.994129    ( 0.0000,  0.0000,  0.0000)
  38 Pt     5.583675   -0.011328   19.310450    ( 0.0000,  0.0000,  0.0000)
  39 Ag     1.405474    2.410952   19.581543    ( 0.0000,  0.0000,  0.0000)
  40 Ir     4.207801    2.413732   19.025546    ( 0.0000,  0.0000,  0.0000)
  41 Pt     6.973961    2.321699   19.117220    ( 0.0000,  0.0000,  0.0000)
  42 Ir     2.931669    4.836508   19.062901    ( 0.0000,  0.0000,  0.0000)
  43 Ir     5.534071    4.940877   19.033160    ( 0.0000,  0.0000,  0.0000)
  44 Ag     8.402452    4.855673   19.507052    ( 0.0000,  0.0000,  0.0000)
  45 O      5.560533   -0.095950   21.350596    ( 0.0000,  0.0000,  0.0000)
  46 H      6.251987    0.540849   21.655767    ( 0.0000,  0.0000,  0.0000)

Unit cell:
           periodic     x           y           z      points  spacing
  1. axis:    yes    8.445283    0.000000    0.000000    35     0.2090
  2. axis:    yes    4.222641    7.313829    0.000000    35     0.2090
  3. axis:    no     0.000000    0.000000   29.175054   135     0.2161

  Lengths:   8.445283   8.445283  29.175054
  Angles:   90.000000  90.000000  60.000000

Effective grid spacing dv^(1/3) = 0.2217

                     log10-error:    total        iterations:
           time      wfs    density  energy       fermi  poisson
iter:   1  00:13:28  -3.58   +inf  -269.020157    2             
iter:   2  00:14:36  -2.29  -2.27  -292.069699    3             
iter:   3  00:15:46  -2.59  -1.47  -268.558241    3             
iter:   4  00:16:54  -3.82  -2.73  -268.483890    3             
iter:   5  00:18:02  -5.07  -3.38  -268.481637    2             
iter:   6  00:19:11  -5.74  -3.61  -268.480978    2             
iter:   7  00:20:20  -6.03  -3.71  -268.480040    2             
iter:   8  00:21:29  -6.00  -3.80  -268.480912    2             
iter:   9  00:22:37  -6.17  -3.75  -268.479160    2             
iter:  10  00:23:46  -6.49  -3.76  -268.479584    2             
iter:  11  00:24:53  -6.75  -4.09  -268.479582    2             
iter:  12  00:25:58  -7.00  -4.12  -268.479550    2             
iter:  13  00:27:01  -7.20  -4.22  -268.479277    2             
iter:  14  00:28:04  -7.42  -4.16  -268.479600    2             

Converged after 14 iterations.

Dipole moment: (21.873193, 21.117471, -0.108293) |e|*Ang

Energy contributions relative to reference atoms: (reference = -16429291.423757)

Kinetic:       -152.590665
Potential:      +94.873838
External:        +0.000000
XC:            -203.381031
Entropy (-ST):   -2.083487
Local:           -6.339999
--------------------------
Free energy:   -269.521344
Extrapolated:  -268.479600

Fermi level: 1.31307

Showing only first 2 kpts
 Kpt  Band  Eigenvalues  Occupancy
  0   357      1.29516    0.13616
  0   358      1.34328    0.10626
  0   359      1.36467    0.09344
  0   360      1.39949    0.07411

  1   357      1.17498    0.19978
  1   358      1.22084    0.17888
  1   359      1.25682    0.15926
  1   360      1.27436    0.14890



Forces in eV/Ang:
  0 Ag   -0.41782    0.15765   -1.05175
  1 Ag    0.24962    0.22462   -0.86432
  2 Ir    0.49585   -0.17470    0.04868
  3 Ir   -0.12146    1.24155    1.38534
  4 Ir    0.42224    0.41017    0.89012
  5 Ir   -0.32161   -0.01203    1.22959
  6 Ir   -1.71060   -0.51173    0.74551
  7 Ag   -0.12086   -0.33925   -0.95042
  8 Pt    1.06029   -0.38918    0.49584
  9 Ag    0.11614   -0.01101    0.24531
 10 Ir   -0.01327   -0.41333    1.04002
 11 Ir   -0.62920   -0.82144   -0.45917
 12 Ir    0.40704    0.14329    0.20409
 13 Ag   -0.00300   -0.03258    0.19982
 14 Ag    0.04957    0.05474    0.19825
 15 Pt   -0.12695   -0.01968   -0.55140
 16 Ru    0.59885    0.43883   -1.36181
 17 Ir    0.14902    0.28963   -1.23442
 18 Ir   -0.01417   -0.00843   -0.00716
 19 Pt    0.00100   -0.00407    0.01465
 20 Pt   -0.00264   -0.03161    0.01549
 21 Ag   -0.00975   -0.00652    0.01035
 22 Ag   -0.01825    0.00293    0.02332
 23 Ag    0.00204   -0.00679    0.01107
 24 Pt   -0.00199    0.01288    0.00150
 25 Ag   -0.01056    0.01045    0.00171
 26 Ir    0.02546    0.02064    0.00855
 27 Ru   -0.00517    0.01698   -0.03699
 28 Ir    0.01797    0.00212   -0.02450
 29 Ir   -0.01699    0.00476    0.00162
 30 Ir   -0.04056   -0.03486   -0.03101
 31 Ir    0.04588   -0.02859   -0.06181
 32 Pt   -0.00615   -0.01626   -0.02794
 33 Ag   -0.00258    0.03401   -0.04449
 34 Ir    0.00889   -0.03072   -0.02934
 35 Ru   -0.00823    0.00956   -0.00865
 36 Ir   -0.00364   -0.01823    0.02930
 37 Ir    0.00272   -0.00737    0.01620
 38 Pt   -0.01105   -0.00913   -0.00637
 39 Ag    0.01401   -0.01704    0.01984
 40 Ir    0.01268    0.00629    0.01448
 41 Pt   -0.00940   -0.00165   -0.01028
 42 Ir    0.02363   -0.01149    0.06648
 43 Ir   -0.05229   -0.01908    0.01965
 44 Ag   -0.00806   -0.00970    0.01539
 45 O     0.06109    0.04756    0.05255
 46 H     0.03035   -0.02416   -0.04210

Timing:                                      incl.     excl.
-------------------------------------------------------------------
Density initialized from wave functions:    44.032    44.032   0.3% |
 Symmetrize density:                         0.001     0.001   0.0% |
Forces:                                    183.546   183.546   1.1% |
Hamiltonian:                                33.557     0.101   0.0% |
 Atomic:                                     9.138     6.148   0.0% |
  XC Correction:                             2.990     2.990   0.0% |
 Calculate atomic Hamiltonians:             11.206    11.206   0.1% |
 Communicate:                                3.914     3.914   0.0% |
 Initialize Hamiltonian:                     0.001     0.001   0.0% |
 Poisson:                                    0.055     0.055   0.0% |
 XC 3D grid:                                 9.142     9.142   0.1% |
LCAO initialization:                        54.194     2.520   0.0% |
 LCAO eigensolver:                           4.953     0.002   0.0% |
  Calculate projections:                     0.046     0.046   0.0% |
  DenseAtomicCorrection:                     0.061     0.061   0.0% |
  Distribute overlap matrix:                 0.108     0.108   0.0% |
  Orbital Layouts:                           0.525     0.525   0.0% |
  Potential matrix:                          4.168     4.168   0.0% |
  Sum over cells:                            0.043     0.043   0.0% |
 LCAO to grid:                              45.115    45.115   0.3% |
 Set positions (LCAO WFS):                   1.606     0.633   0.0% |
  Basic WFS set positions:                   0.002     0.002   0.0% |
  Basis functions set positions:             0.000     0.000   0.0% |
  P tci:                                     0.402     0.402   0.0% |
  ST tci:                                    0.418     0.418   0.0% |
  mktci:                                     0.150     0.150   0.0% |
PWDescriptor:                                0.042     0.042   0.0% |
Redistribute:                                0.061     0.061   0.0% |
SCF-cycle:                               17052.747  1535.197   8.8% |---|
 Davidson:                               13984.512  3247.605  18.6% |------|
  Apply H:                                2446.013  2376.278  13.6% |----|
   HMM T:                                   69.734    69.734   0.4% |
  Subspace diag:                          2054.770     0.079   0.0% |
   calc_h_matrix:                         1186.950   356.420   2.0% ||
    Apply H:                               830.529   805.489   4.6% |-|
     HMM T:                                 25.040    25.040   0.1% |
   diagonalize:                             50.360    50.360   0.3% |
   rotate_psi:                             817.381   817.381   4.7% |-|
  calc. matrices:                         4108.285  2466.893  14.1% |-----|
   Apply H:                               1641.392  1593.669   9.1% |---|
    HMM T:                                  47.723    47.723   0.3% |
  diagonalize:                             612.750   612.750   3.5% ||
  rotate_psi:                             1515.089  1515.089   8.7% |--|
 Density:                                  785.609     0.016   0.0% |
  Atomic density matrices:                   4.896     4.896   0.0% |
  Mix:                                     306.067   306.067   1.8% ||
  Multipole moments:                         0.278     0.278   0.0% |
  Pseudo density:                          474.352   474.333   2.7% ||
   Symmetrize density:                       0.018     0.018   0.0% |
 Hamiltonian:                              687.584     2.326   0.0% |
  Atomic:                                  166.742   100.196   0.6% |
   XC Correction:                           66.546    66.546   0.4% |
  Calculate atomic Hamiltonians:           250.301   250.301   1.4% ||
  Communicate:                              65.401    65.401   0.4% |
  Poisson:                                   1.190     1.190   0.0% |
  XC 3D grid:                              201.623   201.623   1.2% |
 Orthonormalize:                            59.845     0.005   0.0% |
  calc_s_matrix:                             7.887     7.887   0.0% |
  inverse-cholesky:                          1.145     1.145   0.0% |
  projections:                              32.729    32.729   0.2% |
  rotate_psi_s:                             18.079    18.079   0.1% |
Set symmetry:                                0.001     0.001   0.0% |
Other:                                      85.537    85.537   0.5% |
-------------------------------------------------------------------
Total:                                             17453.719 100.0%

Date: Fri Mar  4 00:28:18 2022
