
  ___ ___ ___ _ _ _  
 |   |   |_  | | | | 
 | | | | | . | | | | 
 |__ |  _|___|_____|  1.5.1
 |___|_|             

User:   clausen@node486.cluster
Date:   Thu Mar  3 14:27:07 2022
Arch:   x86_64
Pid:    19389
Python: 3.6.12
gpaw:   /software/kemi/gpaw/1.5.1/gpaw
_gpaw:  /software/kemi/gpaw/1.5.1/bin/gpaw-python
ase:    /software/kemi/ase/3.17.0/ase (version 3.17.0)
numpy:  /opt/rh/rh-python36/root/usr/lib64/python3.6/site-packages/numpy (version 1.13.1)
scipy:  /opt/rh/rh-python36/root/usr/lib64/python3.6/site-packages/scipy (version 0.19.1)
units:  Angstrom and eV
cores:  16

Input parameters:
  kpts: [4 4 1]
  mode: {ecut: 400.0,
         gammacentered: False,
         name: pw}
  xc: RPBE

System changes: positions, numbers, cell, pbc, initial_charges, initial_magmoms 

Initialize ...

Pd-setup:
  name: Palladium
  id: 6da19bfba079f22767af9506641940b9
  Z: 46
  valence: 16
  core: 30
  charge: 0.0
  file: /software/kemi/gpaw-setups/0.9.20000/Pd.RPBE.gz
  cutoffs: 1.19(comp), 2.38(filt), 2.28(core), lmax=2
  valence states:
                energy  radius
    5s(0.00)    -3.225   1.228
    4p(6.00)   -51.131   1.360
    5p(0.00)    -0.373   1.360
    4d(10.00)    -3.964   1.228
    *s          23.987   1.228
    *d          23.247   1.228

  Using partial waves for Pd as LCAO basis

Ir-setup:
  name: Iridium
  id: 73b603359d1d5397a85ae3c2440f9033
  Z: 77
  valence: 15
  core: 62
  charge: 0.0
  file: /software/kemi/gpaw-setups/0.9.20000/Ir.RPBE.gz
  cutoffs: 1.26(comp), 2.40(filt), 2.36(core), lmax=2
  valence states:
                energy  radius
    6s(2.00)    -6.219   1.296
    5p(6.00)   -54.684   1.328
    6p(0.00)    -1.215   1.328
    5d(7.00)    -7.118   1.286
    *s          20.992   1.296
    *d          20.093   1.286

  Using partial waves for Ir as LCAO basis

Ru-setup:
  name: Ruthenium
  id: 76477906e28f51dc1b29884d53556fe9
  Z: 44
  valence: 16
  core: 28
  charge: 0.0
  file: /software/kemi/gpaw-setups/0.9.20000/Ru.RPBE.gz
  cutoffs: 1.23(comp), 2.16(filt), 1.30(core), lmax=2
  valence states:
                energy  radius
    4s(2.00)   -76.255   1.281
    5s(1.00)    -4.126   1.281
    4p(6.00)   -46.371   1.286
    5p(0.00)    -0.913   1.286
    4d(7.00)    -5.146   1.254
    *d          22.066   1.254

  Using partial waves for Ru as LCAO basis

Pt-setup:
  name: Platinum
  id: f04f522592575c47ad794f6b4a415b4b
  Z: 78
  valence: 16
  core: 62
  charge: 0.0
  file: /software/kemi/gpaw-setups/0.9.20000/Pt.RPBE.gz
  cutoffs: 1.29(comp), 2.26(filt), 2.26(core), lmax=2
  valence states:
                energy  radius
    6s(1.00)    -5.516   1.307
    5p(6.00)   -55.971   1.371
    6p(0.00)    -0.856   1.371
    5d(9.00)    -6.087   1.307
    *s          21.695   1.307
    *d          21.125   1.307

  Using partial waves for Pt as LCAO basis

Ag-setup:
  name: Silver
  id: c05e55bab2c3858b3f9398f6d75cb77c
  Z: 47
  valence: 17
  core: 30
  charge: 0.0
  file: /software/kemi/gpaw-setups/0.9.20000/Ag.RPBE.gz
  cutoffs: 1.25(comp), 2.35(filt), 2.19(core), lmax=2
  valence states:
                energy  radius
    5s(1.00)    -4.277   1.286
    4p(6.00)   -58.523   1.328
    5p(0.00)    -0.755   1.328
    4d(10.00)    -7.386   1.180
    *s          22.934   1.286
    *d          19.826   1.180

  Using partial waves for Ag as LCAO basis

O-setup:
  name: Oxygen
  id: 08071ca1eed670e7821b24b7eb4d558c
  Z: 8
  valence: 6
  core: 2
  charge: 0.0
  file: /software/kemi/gpaw-setups/0.9.20000/O.RPBE.gz
  cutoffs: 0.67(comp), 1.17(filt), 0.83(core), lmax=2
  valence states:
                energy  radius
    2s(2.00)   -24.041   0.688
    2p(4.00)    -8.984   0.598
    *s           3.170   0.688
    *p          18.228   0.598
    *d           0.000   0.619

  Using partial waves for O as LCAO basis

Reference energy: -12877847.605335

Spin-paired calculation

Occupation numbers:
  Fermi-Dirac: width=0.1000 eV

Convergence criteria:
  Maximum total energy change: 0.0005 eV / electron
  Maximum integral of absolute density change: 0.0001 electrons
  Maximum integral of absolute eigenstate change: 4e-08 eV^2
  Maximum number of iterations: 333

Symmetries present (total): 1

  ( 1  0  0)
  ( 0  1  0)
  ( 0  0  1)

16 k-points: 4 x 4 x 1 Monkhorst-Pack grid
8 k-points in the irreducible part of the Brillouin zone
       k-points in crystal coordinates                weights
   0:     0.12500000   -0.37500000    0.00000000          2/16
   1:     0.12500000   -0.12500000    0.00000000          2/16
   2:     0.12500000    0.12500000    0.00000000          2/16
   3:     0.12500000    0.37500000    0.00000000          2/16
   4:     0.37500000   -0.37500000    0.00000000          2/16
   5:     0.37500000   -0.12500000    0.00000000          2/16
   6:     0.37500000    0.12500000    0.00000000          2/16
   7:     0.37500000    0.37500000    0.00000000          2/16

Wave functions: Plane wave expansion
  Cutoff energy: 400.000 eV
  Number of coefficients (min, max): 32894, 32940
  Pulay-stress correction: 0.000000 eV/Ang^3 (de/decut=0.000000)
  Using FFTW library
  ScaLapack parameters: grid=1x1, blocksize=None
  Wavefunction extrapolation:
    Improved wavefunction reuse through dual PAW basis 

Eigensolver
   Davidson(niter=2, smin=None, normalize=True) 

Densities:
  Coarse grid: 35*35*135 grid
  Fine grid: 70*70*270 grid
  Total Charge: 0.000000 

Density mixing:
  Method: separate
  Backend: pulay
  Linear mixing parameter: 0.05
  Mixing with 5 old densities
  Damping of long wave oscillations: 50 

Hamiltonian:
  XC and Coulomb potentials evaluated on a 70*70*270 grid
  Using the RPBE Exchange-Correlation functional
 

XC parameters: RPBE with 2 nearest neighbor stencil

Memory estimate:
  Process memory now: 150.44 MiB
  Calculator: 549.89 MiB
    Density: 51.27 MiB
      Arrays: 16.41 MiB
      Localized functions: 28.50 MiB
      Mixer: 6.36 MiB
    Hamiltonian: 11.63 MiB
      Arrays: 10.73 MiB
      XC: 0.00 MiB
      Poisson: 0.00 MiB
      vbar: 0.90 MiB
    Wavefunctions: 487.00 MiB
      Arrays psit_nG: 220.15 MiB
      Eigensolver: 251.95 MiB
      Projections: 2.75 MiB
      Projectors: 5.53 MiB
      PW-descriptor: 6.62 MiB

Total number of cores used: 16
Parallelization over k-points: 8
Domain decomposition: 1 x 1 x 2

Number of atoms: 46
Number of atomic orbitals: 550
Number of bands in calculation: 438
Bands to converge: occupied states only
Number of valence electrons: 723

... initialized

Initializing position-dependent things.

Density initialized from atomic densities
Creating initial wave functions:
  438 bands from LCAO basis set

                                             
                                             
                                             
                                             
                                             
                                             
                  Ag                         
                         Ir    Ir            
            Pd    O Pd     Ir                
                   Ru     Pd     Ir          
        Ir    Pt    PAg    Pd                
                                             
        Ir     Pd    IAg    Ir     Pt        
                Ag     Ru     Pd             
                                             
           Pt     Ag    PPd    Ir            
                                             
            Pt     Pt    PPt    Ru           
       Ag     Ag     Ag                      
              Ru    Ir     Pt                
         Pd    Ir     Ru                     
                                             
                                             
                                             
                                             
                                             

Positions:
   0 Pd     0.000000    1.624086   10.000000    ( 0.0000,  0.0000,  0.0000)
   1 Ir     2.812999    1.624086   10.000000    ( 0.0000,  0.0000,  0.0000)
   2 Ru     5.625998    1.624086   10.000000    ( 0.0000,  0.0000,  0.0000)
   3 Ru     1.406500    4.060215   10.000000    ( 0.0000,  0.0000,  0.0000)
   4 Ir     4.219499    4.060215   10.000000    ( 0.0000,  0.0000,  0.0000)
   5 Pt     7.032498    4.060215   10.000000    ( 0.0000,  0.0000,  0.0000)
   6 Pd     2.812999    6.496343   10.000000    ( 0.0000,  0.0000,  0.0000)
   7 Pd     5.625998    6.496343   10.000000    ( 0.0000,  0.0000,  0.0000)
   8 Ru     8.438997    6.496343   10.000000    ( 0.0000,  0.0000,  0.0000)
   9 Ag     0.000000    0.000000   12.296804    ( 0.0000,  0.0000,  0.0000)
  10 Ag     2.812999    0.000000   12.296804    ( 0.0000,  0.0000,  0.0000)
  11 Ag     5.625998    0.000000   12.296804    ( 0.0000,  0.0000,  0.0000)
  12 Pt     1.406500    2.436129   12.296804    ( 0.0000,  0.0000,  0.0000)
  13 Pt     4.219499    2.436129   12.296804    ( 0.0000,  0.0000,  0.0000)
  14 Pt     7.032498    2.436129   12.296804    ( 0.0000,  0.0000,  0.0000)
  15 Ru     2.812999    4.872257   12.296804    ( 0.0000,  0.0000,  0.0000)
  16 Pt     5.625998    4.872257   12.296804    ( 0.0000,  0.0000,  0.0000)
  17 Ir     8.438997    4.872257   12.296804    ( 0.0000,  0.0000,  0.0000)
  18 Pt     1.331112    0.739375   14.657283    ( 0.0000,  0.0000,  0.0000)
  19 Ag     4.181622    0.793852   14.645499    ( 0.0000,  0.0000,  0.0000)
  20 Pd     7.001587    0.862206   14.620346    ( 0.0000,  0.0000,  0.0000)
  21 Ag     2.800841    3.198617   14.645984    ( 0.0000,  0.0000,  0.0000)
  22 Ru     5.661352    3.374873   14.464570    ( 0.0000,  0.0000,  0.0000)
  23 Pd     8.454364    3.209063   14.568969    ( 0.0000,  0.0000,  0.0000)
  24 Ir     4.203312    5.613553   14.568997    ( 0.0000,  0.0000,  0.0000)
  25 Ir     7.031881    5.578044   14.561300    ( 0.0000,  0.0000,  0.0000)
  26 Pt     9.857688    5.665883   14.596939    ( 0.0000,  0.0000,  0.0000)
  27 Ir    -0.077764    1.506761   16.938800    ( 0.0000,  0.0000,  0.0000)
  28 Pd     2.746751    1.593087   16.991368    ( 0.0000,  0.0000,  0.0000)
  29 Ag     5.532334    1.594992   16.918159    ( 0.0000,  0.0000,  0.0000)
  30 Pd     1.401555    4.031321   16.973309    ( 0.0000,  0.0000,  0.0000)
  31 Pd     4.186062    4.107308   16.892321    ( 0.0000,  0.0000,  0.0000)
  32 Pd     7.007491    3.969527   16.736476    ( 0.0000,  0.0000,  0.0000)
  33 Ru     2.845276    6.541012   16.753610    ( 0.0000,  0.0000,  0.0000)
  34 Pd     5.662228    6.450069   16.794393    ( 0.0000,  0.0000,  0.0000)
  35 Ir     8.552515    6.378355   16.920371    ( 0.0000,  0.0000,  0.0000)
  36 Ir     0.061963   -0.029589   18.981657    ( 0.0000,  0.0000,  0.0000)
  37 Pt     2.802470   -0.097062   19.141410    ( 0.0000,  0.0000,  0.0000)
  38 Ag     5.661265    0.013033   19.406409    ( 0.0000,  0.0000,  0.0000)
  39 Pd     1.350042    2.376862   19.278970    ( 0.0000,  0.0000,  0.0000)
  40 Pd     4.315258    2.518491   19.256067    ( 0.0000,  0.0000,  0.0000)
  41 Ir     7.173708    2.513849   19.018418    ( 0.0000,  0.0000,  0.0000)
  42 Ag     2.809713    4.893314   19.379442    ( 0.0000,  0.0000,  0.0000)
  43 Ir     5.700233    4.913916   19.039342    ( 0.0000,  0.0000,  0.0000)
  44 Ir     8.278779    4.849064   19.000358    ( 0.0000,  0.0000,  0.0000)
  45 O      4.259664    0.811488   20.706409    ( 0.0000,  0.0000,  0.0000)

Unit cell:
           periodic     x           y           z      points  spacing
  1. axis:    yes    8.465341    0.000000    0.000000    35     0.2095
  2. axis:    yes    4.232670    7.331200    0.000000    35     0.2095
  3. axis:    no     0.000000    0.000000   29.187217   135     0.2162

  Lengths:   8.465341   8.465341  29.187217
  Angles:   90.000000  90.000000  60.000000

Effective grid spacing dv^(1/3) = 0.2221

                     log10-error:    total        iterations:
           time      wfs    density  energy       fermi  poisson
iter:   1  14:29:14  +0.32   +inf  -321.779600    2             
iter:   2  14:30:10  -0.55  -1.16  -409.039223    33            
iter:   3  14:31:40  -0.65  -1.07  -340.123094    37            
iter:   4  14:33:08  -1.29  -1.16  -267.577926    35            
iter:   5  14:34:36  -1.77  -1.35  -244.807745    34            
iter:   6  14:36:04  -1.92  -1.46  -241.245743    38            
iter:   7  14:37:33  -2.23  -1.51  -239.654635    3             
iter:   8  14:38:44  -2.29  -1.55  -236.435019    4             
iter:   9  14:39:56  -1.88  -1.69  -240.596766    3             
iter:  10  14:41:06  -2.35  -1.67  -235.629460    3             
iter:  11  14:42:34  -2.79  -1.91  -234.452992    3             
iter:  12  14:44:02  -3.22  -2.10  -234.439660    3             
iter:  13  14:45:29  -3.47  -2.17  -234.599427    3             
iter:  14  14:46:56  -3.54  -2.16  -234.507735    3             
iter:  15  14:48:24  -3.78  -2.24  -234.477305    3             
iter:  16  14:49:51  -3.28  -2.27  -235.109452    3             
iter:  17  14:51:21  -3.62  -2.10  -234.325094    3             
iter:  18  14:52:48  -3.71  -2.40  -234.348985    3             
iter:  19  14:54:16  -3.87  -2.39  -234.230507    3             
iter:  20  14:55:37  -4.04  -2.53  -234.228208    2             
iter:  21  14:56:46  -4.26  -2.51  -234.170159    3             
iter:  22  14:57:57  -4.27  -2.63  -234.200412    3             
iter:  23  14:59:09  -3.69  -2.57  -234.258640    3             
iter:  24  15:00:20  -4.13  -2.48  -234.119963    3             
iter:  25  15:01:32  -4.49  -2.85  -234.132469    3             
iter:  26  15:02:43  -4.89  -2.81  -234.115654    3             
iter:  27  15:03:43  -5.28  -2.95  -234.118726    2             
iter:  28  15:04:39  -5.01  -2.95  -234.113676    2             
iter:  29  15:05:41  -5.26  -3.14  -234.111429    3             
iter:  30  15:07:09  -5.03  -3.15  -234.127546    3             
iter:  31  15:08:37  -5.33  -2.99  -234.111215    2             
iter:  32  15:10:04  -5.77  -3.31  -234.108499    3             
iter:  33  15:11:32  -5.80  -3.40  -234.107817    2             
iter:  34  15:12:59  -5.99  -3.51  -234.107634    2             
iter:  35  15:14:10  -5.92  -3.57  -234.106571    2             
iter:  36  15:15:21  -5.84  -3.58  -234.108134    2             
iter:  37  15:16:32  -6.00  -3.54  -234.107232    2             
iter:  38  15:17:44  -6.36  -3.51  -234.105836    2             
iter:  39  15:18:56  -6.28  -3.69  -234.105859    2             
iter:  40  15:20:23  -6.44  -3.78  -234.105948    2             
iter:  41  15:21:50  -7.02  -3.82  -234.105712    2             
iter:  42  15:23:17  -6.61  -3.85  -234.106226    2             
iter:  43  15:24:44  -7.06  -3.82  -234.105764    2             
iter:  44  15:26:11  -6.68  -3.85  -234.105311    2             
iter:  45  15:27:38  -6.77  -3.96  -234.105587    2             
iter:  46  15:29:05  -7.23  -4.04  -234.105549    2             
iter:  47  15:30:32  -7.40  -4.13  -234.105349    2             
iter:  48  15:31:59  -7.34  -4.21  -234.105516    2             
iter:  49  15:33:26  -7.50  -4.16  -234.105283    2             

Converged after 49 iterations.

Dipole moment: (23.689633, 15.500985, -0.291043) |e|*Ang

Energy contributions relative to reference atoms: (reference = -12877847.605335)

Kinetic:       -235.483412
Potential:     +110.681794
External:        +0.000000
XC:            -101.376461
Entropy (-ST):   -2.270374
Local:           -6.792017
--------------------------
Free energy:   -235.240470
Extrapolated:  -234.105283

Fermi level: 0.91746

Showing only first 2 kpts
 Kpt  Band  Eigenvalues  Occupancy
  0   359      0.89954    0.13617
  0   360      0.91387    0.12724
  0   361      0.95290    0.10308
  0   362      0.96297    0.09704

  1   359      0.82268    0.18017
  1   360      0.83068    0.17607
  1   361      0.87604    0.15053
  1   362      0.90657    0.13180



Forces in eV/Ang:
  0 Pd   -0.12441    0.33318   -0.34093
  1 Ir    0.95393    0.68970    0.60814
  2 Ru   -1.09242    0.29487    0.70140
  3 Ru    0.43143    0.29535    1.63700
  4 Ir   -0.55451   -0.78986    1.16624
  5 Pt    0.15751    0.16047    0.05740
  6 Pd   -0.49479   -0.42741   -0.24289
  7 Pd    0.38471   -0.27070   -0.57867
  8 Ru    0.34538   -0.14875    0.55328
  9 Ag   -0.23954   -0.08522    0.05478
 10 Ag   -0.02972   -0.10434    0.05617
 11 Ag    0.08046   -0.17016   -0.13371
 12 Pt    0.11056    0.76041   -0.53288
 13 Pt    0.12349    0.56180   -0.71965
 14 Pt   -0.10540    0.20341   -0.17969
 15 Ru   -0.44703   -0.75029   -0.96810
 16 Pt   -0.41767    0.16694   -0.12431
 17 Ir    0.91208   -0.09012   -1.04378
 18 Pt    0.00630   -0.00924    0.01937
 19 Ag   -0.00804   -0.04245    0.04023
 20 Pd   -0.00037   -0.06163    0.03126
 21 Ag   -0.00713   -0.02109   -0.01867
 22 Ru   -0.02526    0.00315    0.01284
 23 Pd   -0.05273   -0.04891    0.04268
 24 Ir    0.03087   -0.02319   -0.06851
 25 Ir   -0.07146   -0.02177    0.03122
 26 Pt    0.02144   -0.00241    0.03309
 27 Ir   -0.00611    0.02961   -0.05325
 28 Pd   -0.00839    0.03390   -0.26500
 29 Ag   -0.01730    0.01212   -0.09476
 30 Pd    0.02298   -0.00738   -0.03473
 31 Pd    0.05751   -0.06823    0.18144
 32 Pd    0.04385   -0.01281    0.04384
 33 Ru   -0.07601    0.01356    0.13705
 34 Pd    0.21218    0.07443    0.22794
 35 Ir    0.00622   -0.13368   -0.16711
 36 Ir   -0.02435   -0.15331   -0.16586
 37 Pt    0.27765    0.24109    1.32159
 38 Ag    1.13006   -0.47140   -0.28265
 39 Pd   -0.17614    0.02573   -0.02701
 40 Pd    0.04657   -0.16797    0.71567
 41 Ir    0.20716    0.12942   -0.00522
 42 Ag   -0.02418    0.00189   -0.05641
 43 Ir   -0.08261   -0.05228   -0.11411
 44 Ir    0.02099   -0.37947   -0.06694
 45 O    -1.44128    0.51471   -1.08813

System changes: positions 

Initializing position-dependent things.

Density initialized from wave functions
                                             
                                             
                                             
                                             
                                             
                                             
                  Ag                         
                         Ir    Ir            
            Pd    O Pd     Ir   Ir           
                   Ru     Pd                 
        Ir    Pt    PAg    Pd                
                                             
        Ir     Pd    IAg    Ir     Pt        
                Ag     Ru     Pd             
                                             
           Pt     Ag    PPd    Ir            
                                             
            Pt     Pt    PPt    Ru           
       Ag     Ag    IAg    Pt                
                                             
         Pd    Ir     Ru                     
                                             
                                             
                                             
                                             
                                             

Positions:
   0 Pd     0.000000    1.624086   10.000000    ( 0.0000,  0.0000,  0.0000)
   1 Ir     2.812999    1.624086   10.000000    ( 0.0000,  0.0000,  0.0000)
   2 Ru     5.625998    1.624086   10.000000    ( 0.0000,  0.0000,  0.0000)
   3 Ru     1.406500    4.060215   10.000000    ( 0.0000,  0.0000,  0.0000)
   4 Ir     4.219499    4.060215   10.000000    ( 0.0000,  0.0000,  0.0000)
   5 Pt     7.032498    4.060215   10.000000    ( 0.0000,  0.0000,  0.0000)
   6 Pd     2.812999    6.496343   10.000000    ( 0.0000,  0.0000,  0.0000)
   7 Pd     5.625998    6.496343   10.000000    ( 0.0000,  0.0000,  0.0000)
   8 Ru     8.438997    6.496343   10.000000    ( 0.0000,  0.0000,  0.0000)
   9 Ag     0.000000    0.000000   12.296804    ( 0.0000,  0.0000,  0.0000)
  10 Ag     2.812999    0.000000   12.296804    ( 0.0000,  0.0000,  0.0000)
  11 Ag     5.625998    0.000000   12.296804    ( 0.0000,  0.0000,  0.0000)
  12 Pt     1.406500    2.436129   12.296804    ( 0.0000,  0.0000,  0.0000)
  13 Pt     4.219499    2.436129   12.296804    ( 0.0000,  0.0000,  0.0000)
  14 Pt     7.032498    2.436129   12.296804    ( 0.0000,  0.0000,  0.0000)
  15 Ru     2.812999    4.872257   12.296804    ( 0.0000,  0.0000,  0.0000)
  16 Pt     5.625998    4.872257   12.296804    ( 0.0000,  0.0000,  0.0000)
  17 Ir     8.438997    4.872257   12.296804    ( 0.0000,  0.0000,  0.0000)
  18 Pt     1.331742    0.738451   14.659220    ( 0.0000,  0.0000,  0.0000)
  19 Ag     4.180818    0.789606   14.649523    ( 0.0000,  0.0000,  0.0000)
  20 Pd     7.001550    0.856043   14.623472    ( 0.0000,  0.0000,  0.0000)
  21 Ag     2.800127    3.196509   14.644117    ( 0.0000,  0.0000,  0.0000)
  22 Ru     5.658826    3.375188   14.465854    ( 0.0000,  0.0000,  0.0000)
  23 Pd     8.449091    3.204172   14.573237    ( 0.0000,  0.0000,  0.0000)
  24 Ir     4.206399    5.611234   14.562145    ( 0.0000,  0.0000,  0.0000)
  25 Ir     7.024735    5.575867   14.564422    ( 0.0000,  0.0000,  0.0000)
  26 Pt     9.859832    5.665642   14.600248    ( 0.0000,  0.0000,  0.0000)
  27 Ir    -0.078375    1.509722   16.933475    ( 0.0000,  0.0000,  0.0000)
  28 Pd     2.745911    1.596477   16.964868    ( 0.0000,  0.0000,  0.0000)
  29 Ag     5.530605    1.596204   16.908683    ( 0.0000,  0.0000,  0.0000)
  30 Pd     1.403853    4.030583   16.969836    ( 0.0000,  0.0000,  0.0000)
  31 Pd     4.191814    4.100486   16.910464    ( 0.0000,  0.0000,  0.0000)
  32 Pd     7.011876    3.968246   16.740860    ( 0.0000,  0.0000,  0.0000)
  33 Ru     2.837675    6.542368   16.767315    ( 0.0000,  0.0000,  0.0000)
  34 Pd     5.683446    6.457512   16.817188    ( 0.0000,  0.0000,  0.0000)
  35 Ir     8.553137    6.364988   16.903659    ( 0.0000,  0.0000,  0.0000)
  36 Ir     0.059528   -0.044920   18.965071    ( 0.0000,  0.0000,  0.0000)
  37 Pt     2.830235   -0.072953   19.273569    ( 0.0000,  0.0000,  0.0000)
  38 Ag     5.774271   -0.034107   19.378144    ( 0.0000,  0.0000,  0.0000)
  39 Pd     1.332428    2.379434   19.276269    ( 0.0000,  0.0000,  0.0000)
  40 Pd     4.319915    2.501694   19.327633    ( 0.0000,  0.0000,  0.0000)
  41 Ir     7.194424    2.526791   19.017896    ( 0.0000,  0.0000,  0.0000)
  42 Ag     2.807295    4.893503   19.373801    ( 0.0000,  0.0000,  0.0000)
  43 Ir     5.691972    4.908688   19.027931    ( 0.0000,  0.0000,  0.0000)
  44 Ir     8.280879    4.811117   18.993664    ( 0.0000,  0.0000,  0.0000)
  45 O      4.115536    0.862959   20.597596    ( 0.0000,  0.0000,  0.0000)

Unit cell:
           periodic     x           y           z      points  spacing
  1. axis:    yes    8.465341    0.000000    0.000000    35     0.2095
  2. axis:    yes    4.232670    7.331200    0.000000    35     0.2095
  3. axis:    no     0.000000    0.000000   29.187217   135     0.2162

  Lengths:   8.465341   8.465341  29.187217
  Angles:   90.000000  90.000000  60.000000

Effective grid spacing dv^(1/3) = 0.2221

                     log10-error:    total        iterations:
           time      wfs    density  energy       fermi  poisson
iter:   1  15:35:12  -1.74   +inf  -236.857720    3             
iter:   2  15:36:24  -1.88  -2.01  -265.344769    36            
iter:   3  15:37:34  -2.10  -1.51  -239.100170    3             
iter:   4  15:38:46  -2.67  -1.87  -235.239595    4             
iter:   5  15:39:57  -3.59  -2.28  -234.879441    3             
iter:   6  15:41:09  -3.88  -2.54  -234.775151    3             
iter:   7  15:42:20  -3.84  -2.74  -234.751681    3             
iter:   8  15:43:16  -3.68  -2.78  -234.697319    2             
iter:   9  15:44:37  -4.08  -3.05  -234.820595    2             
iter:  10  15:46:06  -4.44  -2.56  -234.705847    3             
iter:  11  15:47:34  -4.41  -3.00  -234.698517    3             
iter:  12  15:49:02  -4.69  -2.94  -234.695603    3             
iter:  13  15:50:26  -5.16  -3.02  -234.683680    2             
iter:  14  15:51:36  -5.27  -3.29  -234.679604    2             
iter:  15  15:52:48  -5.77  -3.42  -234.682445    2             
iter:  16  15:53:59  -5.51  -3.30  -234.680778    2             
iter:  17  15:55:10  -5.13  -3.35  -234.680364    2             
iter:  18  15:56:21  -5.60  -3.28  -234.679988    2             
iter:  19  15:57:21  -5.64  -3.50  -234.678861    2             
iter:  20  15:58:16  -5.98  -3.52  -234.677914    2             
iter:  21  15:59:12  -5.82  -3.64  -234.678301    2             
iter:  22  16:00:08  -6.43  -3.86  -234.677984    2             
iter:  23  16:01:04  -6.60  -3.77  -234.677440    2             
iter:  24  16:02:00  -6.26  -3.99  -234.678735    2             
iter:  25  16:02:56  -6.89  -3.77  -234.677763    2             
iter:  26  16:03:52  -7.11  -4.14  -234.677735    2             
iter:  27  16:04:48  -7.15  -4.28  -234.677837    2             
iter:  28  16:05:44  -7.13  -4.28  -234.677681    2             
iter:  29  16:06:40  -7.23  -4.39  -234.677579    2             
iter:  30  16:07:36  -7.72  -4.46  -234.677794    2             

Converged after 30 iterations.

Dipole moment: (25.245686, 17.140471, -0.200733) |e|*Ang

Energy contributions relative to reference atoms: (reference = -12877847.605335)

Kinetic:       -227.818497
Potential:     +103.304870
External:        +0.000000
XC:            -102.167019
Entropy (-ST):   -2.243737
Local:           -6.875279
--------------------------
Free energy:   -235.799663
Extrapolated:  -234.677794

Fermi level: 0.96246

Showing only first 2 kpts
 Kpt  Band  Eigenvalues  Occupancy
  0   359      0.93688    0.14090
  0   360      0.95731    0.12822
  0   361      0.99718    0.10352
  0   362      1.01076    0.09539

  1   359      0.86364    0.18219
  1   360      0.88531    0.17096
  1   361      0.92560    0.14778
  1   362      0.95356    0.13056



Forces in eV/Ang:
  0 Pd   -0.12399    0.32260   -0.35296
  1 Ir    0.94897    0.68574    0.60372
  2 Ru   -1.08259    0.28858    0.68437
  3 Ru    0.42958    0.30382    1.63364
  4 Ir   -0.55036   -0.79897    1.14893
  5 Pt    0.15217    0.16339    0.06022
  6 Pd   -0.49683   -0.42006   -0.24500
  7 Pd    0.38077   -0.26028   -0.57922
  8 Ru    0.35185   -0.14712    0.54913
  9 Ag   -0.24585   -0.07856    0.04979
 10 Ag   -0.02229   -0.10620    0.06146
 11 Ag    0.07821   -0.17057   -0.12660
 12 Pt    0.10366    0.76860   -0.54472
 13 Pt    0.11594    0.54844   -0.73068
 14 Pt   -0.10146    0.19089   -0.17407
 15 Ru   -0.45102   -0.73060   -0.92797
 16 Pt   -0.40213    0.16822   -0.15127
 17 Ir    0.89902   -0.10743   -1.05795
 18 Pt   -0.03407   -0.06634    0.02500
 19 Ag    0.00603   -0.03375   -0.06853
 20 Pd   -0.00044   -0.05141   -0.02063
 21 Ag    0.01203    0.02910   -0.01304
 22 Ru   -0.01642   -0.03077    0.02645
 23 Pd   -0.00822   -0.01861   -0.00755
 24 Ir   -0.01395   -0.01185    0.04817
 25 Ir   -0.02871   -0.01741    0.02550
 26 Pt    0.02625   -0.06564   -0.02944
 27 Ir    0.03389   -0.03178   -0.08728
 28 Pd    0.01861   -0.16097    0.14120
 29 Ag   -0.06699    0.05765    0.12564
 30 Pd    0.08378   -0.03696   -0.08436
 31 Pd    0.02870    0.02138    0.02264
 32 Pd   -0.05522    0.01398   -0.08138
 33 Ru    0.08077   -0.05035   -0.00866
 34 Pd    0.20946    0.05200    0.12295
 35 Ir   -0.12721   -0.03034    0.07509
 36 Ir    0.34144   -0.16543   -0.01502
 37 Pt   -0.08268   -0.09037    0.44606
 38 Ag    0.05259    0.14882    0.08337
 39 Pd    0.04706   -0.03183   -0.02562
 40 Pd    0.12676    0.18063    0.04159
 41 Ir   -0.19523   -0.14337    0.00224
 42 Ag    0.07876   -0.29216   -0.00271
 43 Ir    0.10032    0.14332    0.02108
 44 Ir    0.08968    0.21836   -0.01271
 45 O    -0.80113   -0.19009   -0.93616

System changes: positions 

Initializing position-dependent things.

Density initialized from wave functions
                                             
                                             
                                             
                                             
                                             
                                             
                  Ag                         
                         Ir    Ir            
            Pd    ORPd    PIr   Ir           
                      Ag                     
        Ir    Pt    Pd     Pd                
               Pd     Ag                     
        Ir           Ir     Ir     Pt        
                Ag     Ru     Pd             
                                             
           Pt     Ag    PPd    Ir            
                                             
            Pt     Pt    PPt    Ru           
       Ag     Ag    IAg    Pt                
                                             
         Pd    Ir     Ru                     
                                             
                                             
                                             
                                             
                                             

Positions:
   0 Pd     0.000000    1.624086   10.000000    ( 0.0000,  0.0000,  0.0000)
   1 Ir     2.812999    1.624086   10.000000    ( 0.0000,  0.0000,  0.0000)
   2 Ru     5.625998    1.624086   10.000000    ( 0.0000,  0.0000,  0.0000)
   3 Ru     1.406500    4.060215   10.000000    ( 0.0000,  0.0000,  0.0000)
   4 Ir     4.219499    4.060215   10.000000    ( 0.0000,  0.0000,  0.0000)
   5 Pt     7.032498    4.060215   10.000000    ( 0.0000,  0.0000,  0.0000)
   6 Pd     2.812999    6.496343   10.000000    ( 0.0000,  0.0000,  0.0000)
   7 Pd     5.625998    6.496343   10.000000    ( 0.0000,  0.0000,  0.0000)
   8 Ru     8.438997    6.496343   10.000000    ( 0.0000,  0.0000,  0.0000)
   9 Ag     0.000000    0.000000   12.296804    ( 0.0000,  0.0000,  0.0000)
  10 Ag     2.812999    0.000000   12.296804    ( 0.0000,  0.0000,  0.0000)
  11 Ag     5.625998    0.000000   12.296804    ( 0.0000,  0.0000,  0.0000)
  12 Pt     1.406500    2.436129   12.296804    ( 0.0000,  0.0000,  0.0000)
  13 Pt     4.219499    2.436129   12.296804    ( 0.0000,  0.0000,  0.0000)
  14 Pt     7.032498    2.436129   12.296804    ( 0.0000,  0.0000,  0.0000)
  15 Ru     2.812999    4.872257   12.296804    ( 0.0000,  0.0000,  0.0000)
  16 Pt     5.625998    4.872257   12.296804    ( 0.0000,  0.0000,  0.0000)
  17 Ir     8.438997    4.872257   12.296804    ( 0.0000,  0.0000,  0.0000)
  18 Pt     1.328103    0.730632   14.662708    ( 0.0000,  0.0000,  0.0000)
  19 Ag     4.181226    0.784342   14.643143    ( 0.0000,  0.0000,  0.0000)
  20 Pd     7.001487    0.848126   14.622205    ( 0.0000,  0.0000,  0.0000)
  21 Ag     2.801245    3.199081   14.642005    ( 0.0000,  0.0000,  0.0000)
  22 Ru     5.656108    3.371815   14.469283    ( 0.0000,  0.0000,  0.0000)
  23 Pd     8.446362    3.200399   14.573838    ( 0.0000,  0.0000,  0.0000)
  24 Ir     4.205874    5.609102   14.565257    ( 0.0000,  0.0000,  0.0000)
  25 Ir     7.019051    5.573156   14.568371    ( 0.0000,  0.0000,  0.0000)
  26 Pt     9.863532    5.658135   14.598046    ( 0.0000,  0.0000,  0.0000)
  27 Ir    -0.074751    1.507137   16.921787    ( 0.0000,  0.0000,  0.0000)
  28 Pd     2.747731    1.579426   16.971800    ( 0.0000,  0.0000,  0.0000)
  29 Ag     5.522438    1.603138   16.919662    ( 0.0000,  0.0000,  0.0000)
  30 Pd     1.414113    4.026150   16.959110    ( 0.0000,  0.0000,  0.0000)
  31 Pd     4.197022    4.100576   16.919214    ( 0.0000,  0.0000,  0.0000)
  32 Pd     7.007126    3.969390   16.733151    ( 0.0000,  0.0000,  0.0000)
  33 Ru     2.844218    6.537135   16.771010    ( 0.0000,  0.0000,  0.0000)
  34 Pd     5.714374    6.465932   16.838869    ( 0.0000,  0.0000,  0.0000)
  35 Ir     8.538960    6.356997   16.906453    ( 0.0000,  0.0000,  0.0000)
  36 Ir     0.097317   -0.068860   18.957715    ( 0.0000,  0.0000,  0.0000)
  37 Pt     2.830353   -0.074951   19.369096    ( 0.0000,  0.0000,  0.0000)
  38 Ag     5.818761   -0.033353   19.377934    ( 0.0000,  0.0000,  0.0000)
  39 Pd     1.331744    2.376712   19.272450    ( 0.0000,  0.0000,  0.0000)
  40 Pd     4.335840    2.516396   19.356746    ( 0.0000,  0.0000,  0.0000)
  41 Ir     7.179407    2.514990   19.017971    ( 0.0000,  0.0000,  0.0000)
  42 Ag     2.815378    4.860521   19.371571    ( 0.0000,  0.0000,  0.0000)
  43 Ir     5.700501    4.923116   19.026424    ( 0.0000,  0.0000,  0.0000)
  44 Ir     8.291738    4.822873   18.989943    ( 0.0000,  0.0000,  0.0000)
  45 O      3.975765    0.859013   20.454598    ( 0.0000,  0.0000,  0.0000)

Unit cell:
           periodic     x           y           z      points  spacing
  1. axis:    yes    8.465341    0.000000    0.000000    35     0.2095
  2. axis:    yes    4.232670    7.331200    0.000000    35     0.2095
  3. axis:    no     0.000000    0.000000   29.187217   135     0.2162

  Lengths:   8.465341   8.465341  29.187217
  Angles:   90.000000  90.000000  60.000000

Effective grid spacing dv^(1/3) = 0.2221

                     log10-error:    total        iterations:
           time      wfs    density  energy       fermi  poisson
iter:   1  16:08:58  -1.93   +inf  -243.475891    4             
iter:   2  16:09:54  -0.95  -1.76  -400.943044    34            
iter:   3  16:10:50  -1.36  -1.14  -244.721191    32            
iter:   4  16:11:46  -2.14  -1.70  -235.509591    36            
iter:   5  16:12:42  -3.17  -2.28  -235.247848    3             
iter:   6  16:13:38  -3.54  -2.29  -234.801787    3             
iter:   7  16:15:00  -3.82  -2.60  -234.682667    3             
iter:   8  16:16:27  -4.04  -2.78  -234.696249    2             
iter:   9  16:17:55  -4.19  -2.69  -234.708330    3             
iter:  10  16:19:23  -4.47  -2.61  -234.635958    3             
iter:  11  16:20:51  -4.00  -2.90  -234.637168    3             
iter:  12  16:22:20  -4.44  -2.90  -234.610957    2             
iter:  13  16:23:48  -4.70  -3.13  -234.609115    3             
iter:  14  16:25:06  -5.16  -3.15  -234.613043    2             
iter:  15  16:26:19  -4.84  -3.07  -234.633737    3             
iter:  16  16:27:31  -4.94  -2.88  -234.602219    3             
iter:  17  16:28:42  -5.59  -3.31  -234.604415    2             
iter:  18  16:29:54  -5.65  -3.29  -234.600427    2             
iter:  19  16:31:05  -5.84  -3.55  -234.600059    2             
iter:  20  16:32:16  -5.75  -3.64  -234.599933    2             
iter:  21  16:33:28  -5.29  -3.76  -234.603225    2             
iter:  22  16:34:38  -6.05  -3.30  -234.599713    2             
iter:  23  16:35:50  -5.68  -3.75  -234.605670    3             
iter:  24  16:37:02  -5.85  -3.39  -234.599999    3             
iter:  25  16:38:13  -6.65  -3.81  -234.600051    2             
iter:  26  16:39:21  -6.89  -4.01  -234.600149    2             
iter:  27  16:40:16  -6.95  -4.06  -234.600193    2             
iter:  28  16:41:12  -7.15  -4.07  -234.600204    2             
iter:  29  16:42:08  -6.32  -4.06  -234.600567    2             
iter:  30  16:43:04  -6.62  -4.11  -234.599750    2             
iter:  31  16:44:00  -6.55  -3.84  -234.600075    2             
iter:  32  16:44:56  -7.46  -4.52  -234.600072    2             

Converged after 32 iterations.

Dipole moment: (22.712982, 17.813541, -0.083443) |e|*Ang

Energy contributions relative to reference atoms: (reference = -12877847.605335)

Kinetic:       -216.530850
Potential:      +93.709427
External:        +0.000000
XC:            -103.745170
Entropy (-ST):   -2.232986
Local:           -6.916985
--------------------------
Free energy:   -235.716565
Extrapolated:  -234.600072

Fermi level: 1.02390

Showing only first 2 kpts
 Kpt  Band  Eigenvalues  Occupancy
  0   359      0.98939    0.14636
  0   360      1.01886    0.12815
  0   361      1.05250    0.10724
  0   362      1.07879    0.09153

  1   359      0.92639    0.18153
  1   360      0.95452    0.16670
  1   361      0.98799    0.14720
  1   362      1.01346    0.13152



Forces in eV/Ang:
  0 Pd   -0.12334    0.32240   -0.35168
  1 Ir    0.95586    0.68949    0.60648
  2 Ru   -1.08489    0.28754    0.68584
  3 Ru    0.43222    0.30708    1.64329
  4 Ir   -0.55234   -0.80998    1.14287
  5 Pt    0.15182    0.16672    0.06607
  6 Pd   -0.50299   -0.42074   -0.24168
  7 Pd    0.38245   -0.25975   -0.57440
  8 Ru    0.35357   -0.14395    0.54989
  9 Ag   -0.24200   -0.08574    0.04997
 10 Ag   -0.03140   -0.11550    0.06246
 11 Ag    0.07898   -0.17795   -0.13632
 12 Pt    0.09642    0.75817   -0.53927
 13 Pt    0.11617    0.55077   -0.73454
 14 Pt   -0.10999    0.18418   -0.16714
 15 Ru   -0.44629   -0.71511   -0.90685
 16 Pt   -0.40271    0.15880   -0.12056
 17 Ir    0.88149   -0.11162   -1.05707
 18 Pt    0.02116   -0.04156   -0.00331
 19 Ag    0.00968   -0.02001    0.01914
 20 Pd   -0.03997   -0.02286    0.03259
 21 Ag    0.02273   -0.07077    0.02220
 22 Ru   -0.00715   -0.04160   -0.03903
 23 Pd    0.01189   -0.01722   -0.03175
 24 Ir    0.00780   -0.00331    0.07324
 25 Ir    0.00077   -0.00686   -0.03570
 26 Pt   -0.03263   -0.01175    0.01771
 27 Ir   -0.06248   -0.07231    0.14597
 28 Pd    0.07059   -0.10186    0.16425
 29 Ag   -0.02600   -0.06518    0.03884
 30 Pd   -0.00251   -0.00621   -0.01173
 31 Pd    0.02955    0.08673   -0.07453
 32 Pd    0.02380   -0.07611    0.07911
 33 Ru    0.09882   -0.01803   -0.06168
 34 Pd    0.08151   -0.04242   -0.13890
 35 Ir    0.05876    0.01877   -0.02292
 36 Ir    0.12692   -0.03824    0.02283
 37 Pt   -2.03449   -1.53357   -1.65346
 38 Ag    0.03964    0.05869   -0.01712
 39 Pd   -0.11560    0.02870   -0.10653
 40 Pd    0.24969    0.62544   -0.44976
 41 Ir    0.09280    0.15289   -0.09095
 42 Ag    0.00733   -0.09849    0.00854
 43 Ir    0.17890   -0.05209    0.08145
 44 Ir    0.00540   -0.01983   -0.04389
 45 O     1.15244    0.80242    2.15929

System changes: positions 

Initializing position-dependent things.

Density initialized from wave functions
                                             
                                             
                                             
                                             
                                             
                                             
                  Ag                         
                         Ir    Ir            
            Pd    ORPd    PIr   Ir           
                                             
        Ir    Pt    PdAg   Pd                
               Pd                            
        Ir           IAg    Ir     Pt        
                Ag     Ru     Pd             
                                             
           Pt     Ag    PPd    Ir            
                                             
            Pt     Pt    PPt    Ru           
       Ag     Ag    IAg    Pt                
                                             
         Pd    Ir     Ru                     
                                             
                                             
                                             
                                             
                                             

Positions:
   0 Pd     0.000000    1.624086   10.000000    ( 0.0000,  0.0000,  0.0000)
   1 Ir     2.812999    1.624086   10.000000    ( 0.0000,  0.0000,  0.0000)
   2 Ru     5.625998    1.624086   10.000000    ( 0.0000,  0.0000,  0.0000)
   3 Ru     1.406500    4.060215   10.000000    ( 0.0000,  0.0000,  0.0000)
   4 Ir     4.219499    4.060215   10.000000    ( 0.0000,  0.0000,  0.0000)
   5 Pt     7.032498    4.060215   10.000000    ( 0.0000,  0.0000,  0.0000)
   6 Pd     2.812999    6.496343   10.000000    ( 0.0000,  0.0000,  0.0000)
   7 Pd     5.625998    6.496343   10.000000    ( 0.0000,  0.0000,  0.0000)
   8 Ru     8.438997    6.496343   10.000000    ( 0.0000,  0.0000,  0.0000)
   9 Ag     0.000000    0.000000   12.296804    ( 0.0000,  0.0000,  0.0000)
  10 Ag     2.812999    0.000000   12.296804    ( 0.0000,  0.0000,  0.0000)
  11 Ag     5.625998    0.000000   12.296804    ( 0.0000,  0.0000,  0.0000)
  12 Pt     1.406500    2.436129   12.296804    ( 0.0000,  0.0000,  0.0000)
  13 Pt     4.219499    2.436129   12.296804    ( 0.0000,  0.0000,  0.0000)
  14 Pt     7.032498    2.436129   12.296804    ( 0.0000,  0.0000,  0.0000)
  15 Ru     2.812999    4.872257   12.296804    ( 0.0000,  0.0000,  0.0000)
  16 Pt     5.625998    4.872257   12.296804    ( 0.0000,  0.0000,  0.0000)
  17 Ir     8.438997    4.872257   12.296804    ( 0.0000,  0.0000,  0.0000)
  18 Pt     1.330206    0.735149   14.660693    ( 0.0000,  0.0000,  0.0000)
  19 Ag     4.180990    0.787383   14.646829    ( 0.0000,  0.0000,  0.0000)
  20 Pd     7.001523    0.852700   14.622937    ( 0.0000,  0.0000,  0.0000)
  21 Ag     2.800599    3.197595   14.643225    ( 0.0000,  0.0000,  0.0000)
  22 Ru     5.657679    3.373764   14.467302    ( 0.0000,  0.0000,  0.0000)
  23 Pd     8.447938    3.202579   14.573491    ( 0.0000,  0.0000,  0.0000)
  24 Ir     4.206177    5.610334   14.563459    ( 0.0000,  0.0000,  0.0000)
  25 Ir     7.022335    5.574722   14.566089    ( 0.0000,  0.0000,  0.0000)
  26 Pt     9.861395    5.662472   14.599318    ( 0.0000,  0.0000,  0.0000)
  27 Ir    -0.076845    1.508631   16.928540    ( 0.0000,  0.0000,  0.0000)
  28 Pd     2.746680    1.589278   16.967795    ( 0.0000,  0.0000,  0.0000)
  29 Ag     5.527156    1.599132   16.913319    ( 0.0000,  0.0000,  0.0000)
  30 Pd     1.408185    4.028711   16.965307    ( 0.0000,  0.0000,  0.0000)
  31 Pd     4.194013    4.100524   16.914159    ( 0.0000,  0.0000,  0.0000)
  32 Pd     7.009870    3.968729   16.737605    ( 0.0000,  0.0000,  0.0000)
  33 Ru     2.840437    6.540159   16.768875    ( 0.0000,  0.0000,  0.0000)
  34 Pd     5.696505    6.461067   16.826342    ( 0.0000,  0.0000,  0.0000)
  35 Ir     8.547151    6.361614   16.904839    ( 0.0000,  0.0000,  0.0000)
  36 Ir     0.075483   -0.055028   18.961965    ( 0.0000,  0.0000,  0.0000)
  37 Pt     2.830285   -0.073797   19.313904    ( 0.0000,  0.0000,  0.0000)
  38 Ag     5.793056   -0.033789   19.378055    ( 0.0000,  0.0000,  0.0000)
  39 Pd     1.332139    2.378285   19.274656    ( 0.0000,  0.0000,  0.0000)
  40 Pd     4.326639    2.507902   19.339926    ( 0.0000,  0.0000,  0.0000)
  41 Ir     7.188083    2.521808   19.017928    ( 0.0000,  0.0000,  0.0000)
  42 Ag     2.810708    4.879577   19.372860    ( 0.0000,  0.0000,  0.0000)
  43 Ir     5.695573    4.914780   19.027295    ( 0.0000,  0.0000,  0.0000)
  44 Ir     8.285464    4.816081   18.992093    ( 0.0000,  0.0000,  0.0000)
  45 O      4.056520    0.861293   20.537217    ( 0.0000,  0.0000,  0.0000)

Unit cell:
           periodic     x           y           z      points  spacing
  1. axis:    yes    8.465341    0.000000    0.000000    35     0.2095
  2. axis:    yes    4.232670    7.331200    0.000000    35     0.2095
  3. axis:    no     0.000000    0.000000   29.187217   135     0.2162

  Lengths:   8.465341   8.465341  29.187217
  Angles:   90.000000  90.000000  60.000000

Effective grid spacing dv^(1/3) = 0.2221

                     log10-error:    total        iterations:
           time      wfs    density  energy       fermi  poisson
iter:   1  16:46:17  -2.00   +inf  -238.827679    3             
iter:   2  16:47:13  -1.59  -1.96  -314.997898    37            
iter:   3  16:48:09  -1.75  -1.29  -236.395785    37            
iter:   4  16:49:07  -2.83  -2.10  -236.342755    3             
iter:   5  16:50:36  -3.20  -2.10  -234.886207    3             
iter:   6  16:52:03  -4.07  -2.77  -234.858088    3             
iter:   7  16:53:31  -4.44  -2.71  -234.811041    2             
iter:   8  16:54:59  -4.33  -2.94  -234.792158    2             
iter:   9  16:56:27  -4.58  -3.07  -234.823707    3             
iter:  10  16:57:54  -4.30  -2.76  -234.812718    3             
iter:  11  16:59:23  -4.43  -2.90  -234.790093    3             
iter:  12  17:00:51  -4.77  -2.99  -234.776747    2             
iter:  13  17:02:20  -5.30  -3.10  -234.769402    2             
iter:  14  17:03:48  -5.77  -3.47  -234.767823    2             
iter:  15  17:05:16  -5.48  -3.57  -234.766853    3             
iter:  16  17:06:29  -5.86  -3.60  -234.769847    2             
iter:  17  17:07:41  -5.71  -3.57  -234.767009    3             
iter:  18  17:08:53  -6.39  -3.85  -234.767221    2             
iter:  19  17:10:04  -6.45  -3.88  -234.767959    2             
iter:  20  17:11:16  -6.88  -3.73  -234.767326    2             
iter:  21  17:12:27  -6.71  -4.04  -234.767320    2             
iter:  22  17:13:26  -6.71  -4.00  -234.768011    2             
iter:  23  17:14:22  -6.97  -3.88  -234.767260    2             
iter:  24  17:15:18  -7.15  -4.03  -234.767395    2             
iter:  25  17:16:14  -7.26  -4.20  -234.767490    2             
iter:  26  17:17:10  -7.11  -4.05  -234.767234    2             
iter:  27  17:18:05  -7.25  -4.19  -234.767153    2             
iter:  28  17:19:01  -7.76  -4.42  -234.767320    2             

Converged after 28 iterations.

Dipole moment: (24.158372, 17.435381, -0.155894) |e|*Ang

Energy contributions relative to reference atoms: (reference = -12877847.605335)

Kinetic:       -224.988537
Potential:     +100.920677
External:        +0.000000
XC:            -102.699434
Entropy (-ST):   -2.238362
Local:           -6.880845
--------------------------
Free energy:   -235.886501
Extrapolated:  -234.767320

Fermi level: 0.98725

Showing only first 2 kpts
 Kpt  Band  Eigenvalues  Occupancy
  0   359      0.95696    0.14379
  0   360      0.98224    0.12813
  0   361      1.02007    0.10467
  0   362      1.03737    0.09432

  1   359      0.88801    0.18239
  1   360      0.91303    0.16937
  1   361      0.95110    0.14735
  1   362      0.97770    0.13096



Forces in eV/Ang:
  0 Pd   -0.12251    0.32298   -0.34800
  1 Ir    0.95085    0.68867    0.61278
  2 Ru   -1.08494    0.28904    0.69362
  3 Ru    0.43140    0.30308    1.64719
  4 Ir   -0.55035   -0.80431    1.15591
  5 Pt    0.15036    0.16407    0.06935
  6 Pd   -0.49606   -0.41996   -0.23942
  7 Pd    0.38028   -0.26029   -0.57273
  8 Ru    0.35133   -0.14421    0.55630
  9 Ag   -0.24291   -0.07987    0.05093
 10 Ag   -0.02750   -0.10897    0.06425
 11 Ag    0.07887   -0.17218   -0.12772
 12 Pt    0.10117    0.76161   -0.54072
 13 Pt    0.11613    0.54835   -0.73048
 14 Pt   -0.10506    0.18819   -0.17043
 15 Ru   -0.44786   -0.72525   -0.91773
 16 Pt   -0.40206    0.16295   -0.13691
 17 Ir    0.89085   -0.10994   -1.05473
 18 Pt   -0.01395   -0.05294    0.00903
 19 Ag    0.01085   -0.02699   -0.03150
 20 Pd   -0.01816   -0.03748    0.00559
 21 Ag    0.01507   -0.01302    0.00700
 22 Ru   -0.00987   -0.03597    0.00116
 23 Pd    0.00062   -0.01738   -0.01716
 24 Ir   -0.00551   -0.00935    0.06160
 25 Ir   -0.01647   -0.01571   -0.00722
 26 Pt   -0.00071   -0.03953   -0.00056
 27 Ir   -0.00710   -0.04388    0.01383
 28 Pd    0.03938   -0.13872    0.14569
 29 Ag   -0.05039    0.00486    0.07727
 30 Pd    0.05410   -0.02422   -0.04416
 31 Pd    0.02124    0.03828   -0.01552
 32 Pd   -0.02370   -0.03130   -0.01743
 33 Ru    0.07894   -0.03466   -0.03605
 34 Pd    0.14908    0.01874    0.01091
 35 Ir   -0.05092    0.00433    0.04104
 36 Ir    0.25893   -0.10252    0.00492
 37 Pt   -0.58883   -0.44540   -0.20492
 38 Ag    0.05745    0.10353    0.05200
 39 Pd   -0.05458    0.01383   -0.09327
 40 Pd    0.18864    0.39574   -0.17836
 41 Ir   -0.06890   -0.02508   -0.02727
 42 Ag    0.04063   -0.21476    0.00202
 43 Ir    0.12671    0.06559    0.05331
 44 Ir    0.06485    0.10521   -0.02844
 45 O    -0.15405   -0.03294    0.11168

System changes: positions 

Initializing position-dependent things.

Density initialized from wave functions
                                             
                                             
                                             
                                             
                                             
                                             
                  Ag                         
                         Ir    Ir            
            Pd    ORPd    PIr   Ir           
                                             
        Ir    Pt    PdAg   Pd                
               Pd     Ag                     
        Ir           Ir     Ir     Pt        
                Ag     Ru     Pd             
                                             
           Pt     Ag    PPd    Ir            
                                             
            Pt     Pt    PPt    Ru           
       Ag     Ag    IAg    Pt                
                                             
         Pd    Ir     Ru                     
                                             
                                             
                                             
                                             
                                             

Positions:
   0 Pd     0.000000    1.624086   10.000000    ( 0.0000,  0.0000,  0.0000)
   1 Ir     2.812999    1.624086   10.000000    ( 0.0000,  0.0000,  0.0000)
   2 Ru     5.625998    1.624086   10.000000    ( 0.0000,  0.0000,  0.0000)
   3 Ru     1.406500    4.060215   10.000000    ( 0.0000,  0.0000,  0.0000)
   4 Ir     4.219499    4.060215   10.000000    ( 0.0000,  0.0000,  0.0000)
   5 Pt     7.032498    4.060215   10.000000    ( 0.0000,  0.0000,  0.0000)
   6 Pd     2.812999    6.496343   10.000000    ( 0.0000,  0.0000,  0.0000)
   7 Pd     5.625998    6.496343   10.000000    ( 0.0000,  0.0000,  0.0000)
   8 Ru     8.438997    6.496343   10.000000    ( 0.0000,  0.0000,  0.0000)
   9 Ag     0.000000    0.000000   12.296804    ( 0.0000,  0.0000,  0.0000)
  10 Ag     2.812999    0.000000   12.296804    ( 0.0000,  0.0000,  0.0000)
  11 Ag     5.625998    0.000000   12.296804    ( 0.0000,  0.0000,  0.0000)
  12 Pt     1.406500    2.436129   12.296804    ( 0.0000,  0.0000,  0.0000)
  13 Pt     4.219499    2.436129   12.296804    ( 0.0000,  0.0000,  0.0000)
  14 Pt     7.032498    2.436129   12.296804    ( 0.0000,  0.0000,  0.0000)
  15 Ru     2.812999    4.872257   12.296804    ( 0.0000,  0.0000,  0.0000)
  16 Pt     5.625998    4.872257   12.296804    ( 0.0000,  0.0000,  0.0000)
  17 Ir     8.438997    4.872257   12.296804    ( 0.0000,  0.0000,  0.0000)
  18 Pt     1.328315    0.728242   14.662385    ( 0.0000,  0.0000,  0.0000)
  19 Ag     4.182121    0.783175   14.643150    ( 0.0000,  0.0000,  0.0000)
  20 Pd     6.999514    0.846744   14.623835    ( 0.0000,  0.0000,  0.0000)
  21 Ag     2.802292    3.196182   14.643474    ( 0.0000,  0.0000,  0.0000)
  22 Ru     5.655906    3.369440   14.468030    ( 0.0000,  0.0000,  0.0000)
  23 Pd     8.446931    3.199519   14.572278    ( 0.0000,  0.0000,  0.0000)
  24 Ir     4.205941    5.608720   14.569649    ( 0.0000,  0.0000,  0.0000)
  25 Ir     7.018824    5.572357   14.566217    ( 0.0000,  0.0000,  0.0000)
  26 Pt     9.862071    5.657173   14.599451    ( 0.0000,  0.0000,  0.0000)
  27 Ir    -0.077267    1.503906   16.927881    ( 0.0000,  0.0000,  0.0000)
  28 Pd     2.751113    1.572416   16.980938    ( 0.0000,  0.0000,  0.0000)
  29 Ag     5.520374    1.600686   16.921826    ( 0.0000,  0.0000,  0.0000)
  30 Pd     1.415712    4.025402   16.958651    ( 0.0000,  0.0000,  0.0000)
  31 Pd     4.197793    4.103785   16.916073    ( 0.0000,  0.0000,  0.0000)
  32 Pd     7.007299    3.965248   16.735360    ( 0.0000,  0.0000,  0.0000)
  33 Ru     2.848849    6.535898   16.767290    ( 0.0000,  0.0000,  0.0000)
  34 Pd     5.719662    6.465204   16.833399    ( 0.0000,  0.0000,  0.0000)
  35 Ir     8.539905    6.359233   16.907345    ( 0.0000,  0.0000,  0.0000)
  36 Ir     0.108234   -0.071384   18.959275    ( 0.0000,  0.0000,  0.0000)
  37 Pt     2.769467   -0.119619   19.321641    ( 0.0000,  0.0000,  0.0000)
  38 Ag     5.820696   -0.028937   19.379775    ( 0.0000,  0.0000,  0.0000)
  39 Pd     1.323580    2.379833   19.263555    ( 0.0000,  0.0000,  0.0000)
  40 Pd     4.349982    2.550848   19.333937    ( 0.0000,  0.0000,  0.0000)
  41 Ir     7.181580    2.519424   19.014866    ( 0.0000,  0.0000,  0.0000)
  42 Ag     2.815825    4.851955   19.372017    ( 0.0000,  0.0000,  0.0000)
  43 Ir     5.709387    4.923023   19.031368    ( 0.0000,  0.0000,  0.0000)
  44 Ir     8.294217    4.823755   18.987570    ( 0.0000,  0.0000,  0.0000)
  45 O      4.002220    0.864419   20.516696    ( 0.0000,  0.0000,  0.0000)

Unit cell:
           periodic     x           y           z      points  spacing
  1. axis:    yes    8.465341    0.000000    0.000000    35     0.2095
  2. axis:    yes    4.232670    7.331200    0.000000    35     0.2095
  3. axis:    no     0.000000    0.000000   29.187217   135     0.2162

  Lengths:   8.465341   8.465341  29.187217
  Angles:   90.000000  90.000000  60.000000

Effective grid spacing dv^(1/3) = 0.2221

                     log10-error:    total        iterations:
           time      wfs    density  energy       fermi  poisson
iter:   1  17:20:23  -2.23   +inf  -238.077286    3             
iter:   2  17:21:19  -1.40  -1.93  -324.113379    36            
iter:   3  17:22:15  -1.87  -1.27  -238.728453    37            
iter:   4  17:23:11  -2.53  -1.94  -235.036298    4             
iter:   5  17:24:32  -3.55  -2.57  -234.867040    3             
iter:   6  17:26:00  -4.19  -2.88  -234.844156    2             
iter:   7  17:27:27  -4.72  -2.95  -234.837115    2             
iter:   8  17:28:54  -4.42  -3.08  -234.822580    2             
iter:   9  17:30:22  -4.54  -3.20  -234.821769    3             
iter:  10  17:31:39  -4.89  -3.33  -234.820146    2             
iter:  11  17:32:51  -5.45  -3.30  -234.819113    2             
iter:  12  17:34:02  -5.58  -3.38  -234.818711    2             
iter:  13  17:35:17  -5.59  -3.58  -234.821418    2             
iter:  14  17:36:45  -5.94  -3.36  -234.817680    2             
iter:  15  17:38:13  -5.97  -3.68  -234.818990    2             
iter:  16  17:39:42  -6.30  -3.64  -234.818169    2             
iter:  17  17:41:10  -6.27  -3.74  -234.818365    2             
iter:  18  17:42:38  -6.40  -3.75  -234.818056    2             
iter:  19  17:43:53  -6.55  -3.93  -234.818372    2             
iter:  20  17:45:05  -6.47  -3.83  -234.817704    2             
iter:  21  17:46:15  -6.96  -3.85  -234.817937    2             
iter:  22  17:47:27  -6.80  -4.15  -234.817556    2             
iter:  23  17:48:37  -6.86  -4.13  -234.817829    2             
iter:  24  17:49:48  -6.98  -4.02  -234.817636    2             
iter:  25  17:51:00  -7.12  -4.22  -234.817706    2             
iter:  26  17:52:11  -7.54  -4.34  -234.817593    2             

Converged after 26 iterations.

Dipole moment: (23.612343, 19.548648, -0.162109) |e|*Ang

Energy contributions relative to reference atoms: (reference = -12877847.605335)

Kinetic:       -222.649353
Potential:      +98.761364
External:        +0.000000
XC:            -102.932001
Entropy (-ST):   -2.238277
Local:           -6.878464
--------------------------
Free energy:   -235.936731
Extrapolated:  -234.817593

Fermi level: 0.98427

Showing only first 2 kpts
 Kpt  Band  Eigenvalues  Occupancy
  0   359      0.95115    0.14551
  0   360      0.98134    0.12683
  0   361      1.01405    0.10652
  0   362      1.03766    0.09240

  1   359      0.88354    0.18313
  1   360      0.91223    0.16817
  1   361      0.95184    0.14509
  1   362      0.97275    0.13220



Forces in eV/Ang:
  0 Pd   -0.12226    0.32463   -0.35225
  1 Ir    0.95212    0.68938    0.60910
  2 Ru   -1.08552    0.28944    0.69403
  3 Ru    0.43087    0.30342    1.64299
  4 Ir   -0.54938   -0.80452    1.14999
  5 Pt    0.15500    0.16513    0.06157
  6 Pd   -0.49938   -0.42231   -0.24138
  7 Pd    0.38236   -0.26101   -0.57474
  8 Ru    0.35015   -0.14533    0.55151
  9 Ag   -0.24313   -0.08624    0.05456
 10 Ag   -0.03248   -0.11391    0.05993
 11 Ag    0.08169   -0.18071   -0.13340
 12 Pt    0.09853    0.75312   -0.53622
 13 Pt    0.11406    0.54724   -0.73199
 14 Pt   -0.11106    0.17904   -0.16739
 15 Ru   -0.45091   -0.72130   -0.90578
 16 Pt   -0.41256    0.15514   -0.12004
 17 Ir    0.89199   -0.11032   -1.04710
 18 Pt    0.00834   -0.01423    0.00406
 19 Ag   -0.00463   -0.01483    0.01714
 20 Pd   -0.01693   -0.01558    0.03299
 21 Ag    0.01201   -0.07028    0.03104
 22 Ru    0.00022   -0.02412   -0.01637
 23 Pd    0.00459   -0.03183   -0.00909
 24 Ir    0.02317   -0.01272    0.05359
 25 Ir    0.00182   -0.02215   -0.00971
 26 Pt   -0.01962   -0.01729    0.00213
 27 Ir   -0.04220   -0.05442    0.05472
 28 Pd    0.08309   -0.03876    0.14801
 29 Ag   -0.01350   -0.06573    0.01262
 30 Pd    0.00919   -0.00715   -0.03523
 31 Pd    0.04446    0.07590   -0.05476
 32 Pd    0.03370   -0.06096   -0.00221
 33 Ru    0.06443   -0.03343   -0.02184
 34 Pd    0.04207   -0.09801   -0.17015
 35 Ir    0.07827   -0.01710   -0.00158
 36 Ir   -0.11878   -0.02400    0.03312
 37 Pt   -0.03606    0.13012    0.11564
 38 Ag   -0.18532    0.14319    0.11879
 39 Pd    0.01311   -0.04257   -0.02833
 40 Pd    0.08218   -0.08764    0.00277
 41 Ir   -0.00258    0.10018   -0.04181
 42 Ag   -0.02547   -0.00762    0.00964
 43 Ir    0.01193   -0.26056    0.01008
 44 Ir    0.10760   -0.00835   -0.02382
 45 O     0.00605    0.00896   -0.12563

System changes: positions 

Initializing position-dependent things.

Density initialized from wave functions
                                             
                                             
                                             
                                             
                                             
                                             
                  Ag                         
                         Ir    Ir            
            Pd    ORPd    PIr   Ir           
                      Ag                     
        Ir    Pt    Pd     Pd                
               Pd     Ag                     
        Ir           Ir     Ir     Pt        
                Ag     Ru     Pd             
                                             
           Pt     Ag    PPd    Ir            
                                             
             Pt    Pt    PPt    Ru           
       Ag     Ag    IAg    Pt                
                                             
         Pd    Ir     Ru                     
                                             
                                             
                                             
                                             
                                             

Positions:
   0 Pd     0.000000    1.624086   10.000000    ( 0.0000,  0.0000,  0.0000)
   1 Ir     2.812999    1.624086   10.000000    ( 0.0000,  0.0000,  0.0000)
   2 Ru     5.625998    1.624086   10.000000    ( 0.0000,  0.0000,  0.0000)
   3 Ru     1.406500    4.060215   10.000000    ( 0.0000,  0.0000,  0.0000)
   4 Ir     4.219499    4.060215   10.000000    ( 0.0000,  0.0000,  0.0000)
   5 Pt     7.032498    4.060215   10.000000    ( 0.0000,  0.0000,  0.0000)
   6 Pd     2.812999    6.496343   10.000000    ( 0.0000,  0.0000,  0.0000)
   7 Pd     5.625998    6.496343   10.000000    ( 0.0000,  0.0000,  0.0000)
   8 Ru     8.438997    6.496343   10.000000    ( 0.0000,  0.0000,  0.0000)
   9 Ag     0.000000    0.000000   12.296804    ( 0.0000,  0.0000,  0.0000)
  10 Ag     2.812999    0.000000   12.296804    ( 0.0000,  0.0000,  0.0000)
  11 Ag     5.625998    0.000000   12.296804    ( 0.0000,  0.0000,  0.0000)
  12 Pt     1.406500    2.436129   12.296804    ( 0.0000,  0.0000,  0.0000)
  13 Pt     4.219499    2.436129   12.296804    ( 0.0000,  0.0000,  0.0000)
  14 Pt     7.032498    2.436129   12.296804    ( 0.0000,  0.0000,  0.0000)
  15 Ru     2.812999    4.872257   12.296804    ( 0.0000,  0.0000,  0.0000)
  16 Pt     5.625998    4.872257   12.296804    ( 0.0000,  0.0000,  0.0000)
  17 Ir     8.438997    4.872257   12.296804    ( 0.0000,  0.0000,  0.0000)
  18 Pt     1.328769    0.725292   14.663109    ( 0.0000,  0.0000,  0.0000)
  19 Ag     4.181973    0.780749   14.644136    ( 0.0000,  0.0000,  0.0000)
  20 Pd     6.997323    0.843847   14.627361    ( 0.0000,  0.0000,  0.0000)
  21 Ag     2.803851    3.188913   14.646575    ( 0.0000,  0.0000,  0.0000)
  22 Ru     5.655512    3.366083   14.466523    ( 0.0000,  0.0000,  0.0000)
  23 Pd     8.447123    3.195718   14.571111    ( 0.0000,  0.0000,  0.0000)
  24 Ir     4.208162    5.607114   14.576238    ( 0.0000,  0.0000,  0.0000)
  25 Ir     7.018148    5.569671   14.565174    ( 0.0000,  0.0000,  0.0000)
  26 Pt     9.860241    5.654398   14.599880    ( 0.0000,  0.0000,  0.0000)
  27 Ir    -0.081611    1.497561   16.933430    ( 0.0000,  0.0000,  0.0000)
  28 Pd     2.760179    1.564829   16.997926    ( 0.0000,  0.0000,  0.0000)
  29 Ag     5.517533    1.594536   16.924713    ( 0.0000,  0.0000,  0.0000)
  30 Pd     1.418256    4.023990   16.953891    ( 0.0000,  0.0000,  0.0000)
  31 Pd     4.202941    4.111805   16.911299    ( 0.0000,  0.0000,  0.0000)
  32 Pd     7.010098    3.958356   16.735009    ( 0.0000,  0.0000,  0.0000)
  33 Ru     2.856909    6.531797   16.764815    ( 0.0000,  0.0000,  0.0000)
  34 Pd     5.729109    6.456783   16.818541    ( 0.0000,  0.0000,  0.0000)
  35 Ir     8.546022    6.357099   16.907446    ( 0.0000,  0.0000,  0.0000)
  36 Ir     0.104366   -0.077404   18.961721    ( 0.0000,  0.0000,  0.0000)
  37 Pt     2.748829   -0.120056   19.332142    ( 0.0000,  0.0000,  0.0000)
  38 Ag     5.810891   -0.014884   19.391018    ( 0.0000,  0.0000,  0.0000)
  39 Pd     1.322022    2.376444   19.257785    ( 0.0000,  0.0000,  0.0000)
  40 Pd     4.363803    2.553915   19.332227    ( 0.0000,  0.0000,  0.0000)
  41 Ir     7.180674    2.529148   19.009988    ( 0.0000,  0.0000,  0.0000)
  42 Ag     2.814404    4.845007   19.372701    ( 0.0000,  0.0000,  0.0000)
  43 Ir     5.713916    4.899784   19.033375    ( 0.0000,  0.0000,  0.0000)
  44 Ir     8.306426    4.823810   18.984065    ( 0.0000,  0.0000,  0.0000)
  45 O      3.991912    0.867402   20.504609    ( 0.0000,  0.0000,  0.0000)

Unit cell:
           periodic     x           y           z      points  spacing
  1. axis:    yes    8.465341    0.000000    0.000000    35     0.2095
  2. axis:    yes    4.232670    7.331200    0.000000    35     0.2095
  3. axis:    no     0.000000    0.000000   29.187217   135     0.2162

  Lengths:   8.465341   8.465341  29.187217
  Angles:   90.000000  90.000000  60.000000

Effective grid spacing dv^(1/3) = 0.2221

                     log10-error:    total        iterations:
           time      wfs    density  energy       fermi  poisson
iter:   1  17:54:12  -2.76   +inf  -235.870030    3             
iter:   2  17:55:40  -1.92  -2.16  -278.386536    35            
iter:   3  17:57:08  -2.25  -1.41  -235.414949    37            
iter:   4  17:58:36  -3.29  -2.33  -234.862903    3             
iter:   5  18:00:04  -4.35  -3.00  -234.852488    2             
iter:   6  18:01:31  -4.86  -3.04  -234.842308    2             
iter:   7  18:02:59  -5.06  -3.26  -234.839677    2             
iter:   8  18:04:26  -5.55  -3.41  -234.841681    2             
iter:   9  18:05:54  -5.15  -3.20  -234.842330    2             
iter:  10  18:07:22  -5.71  -3.34  -234.838754    2             
iter:  11  18:08:50  -5.74  -3.45  -234.838232    2             
iter:  12  18:10:18  -5.93  -3.67  -234.837942    2             
iter:  13  18:11:46  -6.25  -3.63  -234.837319    2             
iter:  14  18:13:14  -6.10  -3.83  -234.836556    2             
iter:  15  18:14:43  -6.51  -3.69  -234.837344    2             
iter:  16  18:16:11  -6.54  -3.84  -234.836408    2             
iter:  17  18:17:27  -6.90  -4.04  -234.836846    2             
iter:  18  18:18:39  -6.88  -4.00  -234.836539    2             
iter:  19  18:19:50  -7.05  -4.26  -234.836561    2             
iter:  20  18:21:02  -6.78  -4.17  -234.836593    2             
iter:  21  18:22:14  -6.96  -4.45  -234.836950    2             
iter:  22  18:23:25  -7.81  -4.27  -234.836688    2             

Converged after 22 iterations.

Dipole moment: (23.516525, 18.929998, -0.154289) |e|*Ang

Energy contributions relative to reference atoms: (reference = -12877847.605335)

Kinetic:       -222.242319
Potential:      +98.416585
External:        +0.000000
XC:            -103.013403
Entropy (-ST):   -2.235335
Local:           -6.879882
--------------------------
Free energy:   -235.954356
Extrapolated:  -234.836688

Fermi level: 0.98755

Showing only first 2 kpts
 Kpt  Band  Eigenvalues  Occupancy
  0   359      0.95245    0.14672
  0   360      0.98418    0.12711
  0   361      1.01628    0.10717
  0   362      1.04084    0.09246

  1   359      0.88695    0.18306
  1   360      0.91632    0.16773
  1   361      0.95712    0.14388
  1   362      0.97705    0.13156



Forces in eV/Ang:
  0 Pd   -0.12274    0.32426   -0.35513
  1 Ir    0.95111    0.69102    0.60519
  2 Ru   -1.08238    0.29020    0.68529
  3 Ru    0.43392    0.30136    1.63780
  4 Ir   -0.54919   -0.80180    1.14871
  5 Pt    0.15703    0.16378    0.05930
  6 Pd   -0.49760   -0.42003   -0.24127
  7 Pd    0.38139   -0.25992   -0.57571
  8 Ru    0.34951   -0.14886    0.55039
  9 Ag   -0.24589   -0.09076    0.06971
 10 Ag   -0.03226   -0.11466    0.05901
 11 Ag    0.08339   -0.18177   -0.13003
 12 Pt    0.10116    0.74911   -0.53796
 13 Pt    0.10781    0.54445   -0.73482
 14 Pt   -0.11068    0.16843   -0.17023
 15 Ru   -0.45042   -0.72832   -0.89528
 16 Pt   -0.42354    0.15067   -0.11788
 17 Ir    0.89297   -0.11057   -1.04374
 18 Pt    0.00736    0.03085   -0.00613
 19 Ag   -0.01130   -0.01868    0.01844
 20 Pd   -0.00033   -0.00103   -0.00075
 21 Ag    0.00379   -0.04490    0.02786
 22 Ru    0.00855   -0.01790   -0.01116
 23 Pd    0.00691   -0.02640   -0.00576
 24 Ir    0.00169   -0.02704   -0.03603
 25 Ir    0.04172   -0.04379   -0.04302
 26 Pt    0.00358   -0.02119   -0.01958
 27 Ir    0.01545   -0.05226    0.01817
 28 Pd    0.03410   -0.00543    0.05635
 29 Ag    0.01983   -0.04694   -0.00923
 30 Pd    0.02018   -0.04012   -0.02535
 31 Pd    0.02100   -0.02764   -0.02687
 32 Pd    0.04219   -0.03580   -0.04893
 33 Ru    0.00207   -0.01268    0.02158
 34 Pd   -0.04175   -0.05474    0.07444
 35 Ir    0.07585   -0.02382    0.01377
 36 Ir   -0.11706   -0.06661   -0.06434
 37 Pt    0.00296    0.00614    0.05404
 38 Ag   -0.07634    0.03315    0.07358
 39 Pd    0.00448   -0.03860    0.00462
 40 Pd    0.00063   -0.10737    0.01251
 41 Ir   -0.01165    0.02892    0.01808
 42 Ag   -0.04819    0.07142   -0.00618
 43 Ir    0.09195   -0.06044   -0.06748
 44 Ir    0.04009    0.08107   -0.01032
 45 O    -0.03829    0.00569    0.10793

System changes: positions 

Initializing position-dependent things.

Density initialized from wave functions
                                             
                                             
                                             
                                             
                                             
                                             
                  Ag                         
                         Ir    Ir            
            Pd    ORPd    PIr    Ir          
                      Ag                     
        Ir    Pt    Pd     Pd                
               Pd     Ag                     
        Ir           Ir     Ir     Pt        
                Ag     Ru     Pd             
                                             
           Pt     Ag    PPd    Ir            
                                             
             Pt    Pt    PPt    Ru           
       Ag     Ag    IAg    Pt                
                                             
         Pd    Ir     Ru                     
                                             
                                             
                                             
                                             
                                             

Positions:
   0 Pd     0.000000    1.624086   10.000000    ( 0.0000,  0.0000,  0.0000)
   1 Ir     2.812999    1.624086   10.000000    ( 0.0000,  0.0000,  0.0000)
   2 Ru     5.625998    1.624086   10.000000    ( 0.0000,  0.0000,  0.0000)
   3 Ru     1.406500    4.060215   10.000000    ( 0.0000,  0.0000,  0.0000)
   4 Ir     4.219499    4.060215   10.000000    ( 0.0000,  0.0000,  0.0000)
   5 Pt     7.032498    4.060215   10.000000    ( 0.0000,  0.0000,  0.0000)
   6 Pd     2.812999    6.496343   10.000000    ( 0.0000,  0.0000,  0.0000)
   7 Pd     5.625998    6.496343   10.000000    ( 0.0000,  0.0000,  0.0000)
   8 Ru     8.438997    6.496343   10.000000    ( 0.0000,  0.0000,  0.0000)
   9 Ag     0.000000    0.000000   12.296804    ( 0.0000,  0.0000,  0.0000)
  10 Ag     2.812999    0.000000   12.296804    ( 0.0000,  0.0000,  0.0000)
  11 Ag     5.625998    0.000000   12.296804    ( 0.0000,  0.0000,  0.0000)
  12 Pt     1.406500    2.436129   12.296804    ( 0.0000,  0.0000,  0.0000)
  13 Pt     4.219499    2.436129   12.296804    ( 0.0000,  0.0000,  0.0000)
  14 Pt     7.032498    2.436129   12.296804    ( 0.0000,  0.0000,  0.0000)
  15 Ru     2.812999    4.872257   12.296804    ( 0.0000,  0.0000,  0.0000)
  16 Pt     5.625998    4.872257   12.296804    ( 0.0000,  0.0000,  0.0000)
  17 Ir     8.438997    4.872257   12.296804    ( 0.0000,  0.0000,  0.0000)
  18 Pt     1.329813    0.727312   14.662779    ( 0.0000,  0.0000,  0.0000)
  19 Ag     4.180539    0.776999   14.646701    ( 0.0000,  0.0000,  0.0000)
  20 Pd     6.996065    0.842007   14.629069    ( 0.0000,  0.0000,  0.0000)
  21 Ag     2.805222    3.179508   14.651700    ( 0.0000,  0.0000,  0.0000)
  22 Ru     5.656326    3.361889   14.464378    ( 0.0000,  0.0000,  0.0000)
  23 Pd     8.448108    3.190357   14.569673    ( 0.0000,  0.0000,  0.0000)
  24 Ir     4.209459    5.602840   14.575502    ( 0.0000,  0.0000,  0.0000)
  25 Ir     7.022961    5.562697   14.559217    ( 0.0000,  0.0000,  0.0000)
  26 Pt     9.859767    5.650029   14.597581    ( 0.0000,  0.0000,  0.0000)
  27 Ir    -0.081896    1.487456   16.938550    ( 0.0000,  0.0000,  0.0000)
  28 Pd     2.769358    1.559344   17.014783    ( 0.0000,  0.0000,  0.0000)
  29 Ag     5.518239    1.585559   16.925625    ( 0.0000,  0.0000,  0.0000)
  30 Pd     1.422460    4.018060   16.947945    ( 0.0000,  0.0000,  0.0000)
  31 Pd     4.208346    4.112716   16.905325    ( 0.0000,  0.0000,  0.0000)
  32 Pd     7.016636    3.950179   16.728465    ( 0.0000,  0.0000,  0.0000)
  33 Ru     2.861849    6.527848   16.765999    ( 0.0000,  0.0000,  0.0000)
  34 Pd     5.729616    6.445678   16.820326    ( 0.0000,  0.0000,  0.0000)
  35 Ir     8.558294    6.353050   16.909607    ( 0.0000,  0.0000,  0.0000)
  36 Ir     0.089350   -0.089508   18.954987    ( 0.0000,  0.0000,  0.0000)
  37 Pt     2.735546   -0.121832   19.343343    ( 0.0000,  0.0000,  0.0000)
  38 Ag     5.796007   -0.002539   19.406567    ( 0.0000,  0.0000,  0.0000)
  39 Pd     1.321680    2.369851   19.254930    ( 0.0000,  0.0000,  0.0000)
  40 Pd     4.372048    2.544187   19.331780    ( 0.0000,  0.0000,  0.0000)
  41 Ir     7.178049    2.537422   19.009619    ( 0.0000,  0.0000,  0.0000)
  42 Ag     2.807925    4.848988   19.372311    ( 0.0000,  0.0000,  0.0000)
  43 Ir     5.728577    4.880722   19.026268    ( 0.0000,  0.0000,  0.0000)
  44 Ir     8.318180    4.835006   18.980842    ( 0.0000,  0.0000,  0.0000)
  45 O      3.980688    0.868983   20.511711    ( 0.0000,  0.0000,  0.0000)

Unit cell:
           periodic     x           y           z      points  spacing
  1. axis:    yes    8.465341    0.000000    0.000000    35     0.2095
  2. axis:    yes    4.232670    7.331200    0.000000    35     0.2095
  3. axis:    no     0.000000    0.000000   29.187217   135     0.2162

  Lengths:   8.465341   8.465341  29.187217
  Angles:   90.000000  90.000000  60.000000

Effective grid spacing dv^(1/3) = 0.2221

                     log10-error:    total        iterations:
           time      wfs    density  energy       fermi  poisson
iter:   1  18:25:08  -2.82   +inf  -234.954635    3             
iter:   2  18:26:19  -3.26  -2.71  -236.832950    3             
iter:   3  18:27:30  -3.54  -2.00  -234.881062    3             
iter:   4  18:28:41  -4.39  -2.88  -234.874136    3             
iter:   5  18:29:53  -4.95  -3.00  -234.857045    3             
iter:   6  18:31:03  -4.96  -3.31  -234.854643    2             
iter:   7  18:32:12  -5.03  -3.39  -234.853429    2             
iter:   8  18:33:09  -5.36  -3.63  -234.852805    2             
iter:   9  18:34:05  -5.88  -3.65  -234.856708    2             
iter:  10  18:35:01  -5.82  -3.39  -234.852937    2             
iter:  11  18:35:57  -6.27  -3.73  -234.852377    2             
iter:  12  18:36:53  -6.47  -3.83  -234.852806    2             
iter:  13  18:37:48  -6.51  -3.91  -234.852414    2             
iter:  14  18:38:44  -6.67  -3.97  -234.852420    2             
iter:  15  18:39:40  -6.58  -4.10  -234.853553    2             
iter:  16  18:40:36  -6.96  -3.72  -234.852464    2             
iter:  17  18:41:32  -7.22  -4.23  -234.852330    2             
iter:  18  18:42:28  -7.13  -4.25  -234.852704    2             
iter:  19  18:43:24  -7.34  -4.25  -234.852460    2             
iter:  20  18:44:20  -7.46  -4.44  -234.852506    2             

Converged after 20 iterations.

Dipole moment: (24.387319, 18.692348, -0.152757) |e|*Ang

Energy contributions relative to reference atoms: (reference = -12877847.605335)

Kinetic:       -221.830653
Potential:      +98.052504
External:        +0.000000
XC:            -103.075724
Entropy (-ST):   -2.230808
Local:           -6.883229
--------------------------
Free energy:   -235.967910
Extrapolated:  -234.852506

Fermi level: 0.98860

Showing only first 2 kpts
 Kpt  Band  Eigenvalues  Occupancy
  0   359      0.95187    0.14770
  0   360      0.98490    0.12731
  0   361      1.01612    0.10791
  0   362      1.04341    0.09158

  1   359      0.89031    0.18192
  1   360      0.91627    0.16834
  1   361      0.95921    0.14324
  1   362      0.97824    0.13147



Forces in eV/Ang:
  0 Pd   -0.12391    0.32375   -0.35531
  1 Ir    0.95070    0.69235    0.60559
  2 Ru   -1.08035    0.29029    0.68320
  3 Ru    0.43394    0.29931    1.63127
  4 Ir   -0.54806   -0.80005    1.14765
  5 Pt    0.15926    0.16442    0.05826
  6 Pd   -0.49707   -0.41992   -0.23895
  7 Pd    0.38125   -0.25991   -0.57510
  8 Ru    0.34925   -0.15235    0.55157
  9 Ag   -0.24725   -0.09221    0.07955
 10 Ag   -0.03165   -0.11096    0.05748
 11 Ag    0.08337   -0.17824   -0.12557
 12 Pt    0.11101    0.75141   -0.54329
 13 Pt    0.09918    0.53849   -0.72960
 14 Pt   -0.10928    0.15406   -0.18062
 15 Ru   -0.44534   -0.74079   -0.88291
 16 Pt   -0.43517    0.14494   -0.13120
 17 Ir    0.90241   -0.11555   -1.05768
 18 Pt    0.00560   -0.03969    0.04406
 19 Ag   -0.01129   -0.03338    0.00990
 20 Pd    0.01369   -0.02105   -0.01768
 21 Ag    0.00604   -0.00722   -0.00271
 22 Ru   -0.00424   -0.01054   -0.01234
 23 Pd    0.02398   -0.03197   -0.01947
 24 Ir    0.00037   -0.00806   -0.04929
 25 Ir    0.01432   -0.00297    0.00775
 26 Pt    0.03133   -0.02818   -0.03045
 27 Ir    0.03612    0.02820   -0.02633
 28 Pd   -0.00805   -0.04875   -0.00558
 29 Ag    0.05560   -0.00719   -0.01182
 30 Pd    0.02306   -0.06494    0.00180
 31 Pd    0.01222   -0.08892    0.00696
 32 Pd    0.05822   -0.02114   -0.03990
 33 Ru   -0.04908   -0.03353   -0.00193
 34 Pd    0.03786    0.01717    0.03037
 35 Ir    0.01803   -0.02094   -0.01081
 36 Ir   -0.01062   -0.06355    0.01113
 37 Pt   -0.05498   -0.06030    0.04823
 38 Ag    0.01118   -0.02871    0.06372
 39 Pd   -0.04336   -0.03939    0.00283
 40 Pd   -0.04706   -0.01944    0.02029
 41 Ir    0.03226    0.02248    0.01303
 42 Ag   -0.01185    0.02436   -0.02343
 43 Ir    0.02748    0.04285   -0.02859
 44 Ir    0.00501    0.01698   -0.00937
 45 O    -0.11627   -0.01707    0.08930

System changes: positions 

Initializing position-dependent things.

Density initialized from wave functions
                                             
                                             
                                             
                                             
                                             
                                             
                 Ag                          
                         Ir    Ir            
            Pd    ORPd    PIr    Ir          
                      Ag                     
        Ir    Pt    Pd     Pd                
               Pd     Ag                     
        Ir           Ir     Ir     Pt        
                Ag     Ru     Pd             
                                             
           Pt     Ag    PPd    Ir            
                                             
             Pt    Pt    PPt    Ru           
       Ag     Ag    IAg    Pt                
                                             
         Pd    Ir     Ru                     
                                             
                                             
                                             
                                             
                                             

Positions:
   0 Pd     0.000000    1.624086   10.000000    ( 0.0000,  0.0000,  0.0000)
   1 Ir     2.812999    1.624086   10.000000    ( 0.0000,  0.0000,  0.0000)
   2 Ru     5.625998    1.624086   10.000000    ( 0.0000,  0.0000,  0.0000)
   3 Ru     1.406500    4.060215   10.000000    ( 0.0000,  0.0000,  0.0000)
   4 Ir     4.219499    4.060215   10.000000    ( 0.0000,  0.0000,  0.0000)
   5 Pt     7.032498    4.060215   10.000000    ( 0.0000,  0.0000,  0.0000)
   6 Pd     2.812999    6.496343   10.000000    ( 0.0000,  0.0000,  0.0000)
   7 Pd     5.625998    6.496343   10.000000    ( 0.0000,  0.0000,  0.0000)
   8 Ru     8.438997    6.496343   10.000000    ( 0.0000,  0.0000,  0.0000)
   9 Ag     0.000000    0.000000   12.296804    ( 0.0000,  0.0000,  0.0000)
  10 Ag     2.812999    0.000000   12.296804    ( 0.0000,  0.0000,  0.0000)
  11 Ag     5.625998    0.000000   12.296804    ( 0.0000,  0.0000,  0.0000)
  12 Pt     1.406500    2.436129   12.296804    ( 0.0000,  0.0000,  0.0000)
  13 Pt     4.219499    2.436129   12.296804    ( 0.0000,  0.0000,  0.0000)
  14 Pt     7.032498    2.436129   12.296804    ( 0.0000,  0.0000,  0.0000)
  15 Ru     2.812999    4.872257   12.296804    ( 0.0000,  0.0000,  0.0000)
  16 Pt     5.625998    4.872257   12.296804    ( 0.0000,  0.0000,  0.0000)
  17 Ir     8.438997    4.872257   12.296804    ( 0.0000,  0.0000,  0.0000)
  18 Pt     1.331546    0.721587   14.669331    ( 0.0000,  0.0000,  0.0000)
  19 Ag     4.177701    0.767816   14.650429    ( 0.0000,  0.0000,  0.0000)
  20 Pd     6.996023    0.835864   14.629426    ( 0.0000,  0.0000,  0.0000)
  21 Ag     2.807959    3.167647   14.656795    ( 0.0000,  0.0000,  0.0000)
  22 Ru     5.656098    3.355298   14.460283    ( 0.0000,  0.0000,  0.0000)
  23 Pd     8.452377    3.179526   14.565162    ( 0.0000,  0.0000,  0.0000)
  24 Ir     4.211521    5.597391   14.570820    ( 0.0000,  0.0000,  0.0000)
  25 Ir     7.028453    5.555278   14.555116    ( 0.0000,  0.0000,  0.0000)
  26 Pt     9.863234    5.640870   14.591430    ( 0.0000,  0.0000,  0.0000)
  27 Ir    -0.078702    1.480363   16.941027    ( 0.0000,  0.0000,  0.0000)
  28 Pd     2.779769    1.543715   17.035554    ( 0.0000,  0.0000,  0.0000)
  29 Ag     5.525290    1.574715   16.926354    ( 0.0000,  0.0000,  0.0000)
  30 Pd     1.430764    4.003006   16.940868    ( 0.0000,  0.0000,  0.0000)
  31 Pd     4.216986    4.104119   16.899655    ( 0.0000,  0.0000,  0.0000)
  32 Pd     7.031464    3.937388   16.716951    ( 0.0000,  0.0000,  0.0000)
  33 Ru     2.862609    6.517764   16.765685    ( 0.0000,  0.0000,  0.0000)
  34 Pd     5.740911    6.435744   16.820460    ( 0.0000,  0.0000,  0.0000)
[...]
  22 Ru     5.663904    3.347981   14.460971    ( 0.0000,  0.0000,  0.0000)
  23 Pd     8.461807    3.164644   14.561371    ( 0.0000,  0.0000,  0.0000)
  24 Ir     4.215232    5.580924   14.574848    ( 0.0000,  0.0000,  0.0000)
  25 Ir     7.038486    5.543658   14.553364    ( 0.0000,  0.0000,  0.0000)
  26 Pt     9.877598    5.618318   14.582339    ( 0.0000,  0.0000,  0.0000)
  27 Ir    -0.063951    1.466031   16.945422    ( 0.0000,  0.0000,  0.0000)
  28 Pd     2.794640    1.506552   17.030251    ( 0.0000,  0.0000,  0.0000)
  29 Ag     5.546896    1.557978   16.940043    ( 0.0000,  0.0000,  0.0000)
  30 Pd     1.437760    3.965609   16.948988    ( 0.0000,  0.0000,  0.0000)
  31 Pd     4.228880    4.065443   16.898260    ( 0.0000,  0.0000,  0.0000)
  32 Pd     7.042346    3.933190   16.716205    ( 0.0000,  0.0000,  0.0000)
  33 Ru     2.862434    6.497559   16.768285    ( 0.0000,  0.0000,  0.0000)
  34 Pd     5.743329    6.419573   16.831070    ( 0.0000,  0.0000,  0.0000)
  35 Ir     8.599095    6.321337   16.899386    ( 0.0000,  0.0000,  0.0000)
  36 Ir     0.061687   -0.129257   18.948984    ( 0.0000,  0.0000,  0.0000)
  37 Pt     2.668811   -0.163773   19.398813    ( 0.0000,  0.0000,  0.0000)
  38 Ag     5.783999   -0.011633   19.477807    ( 0.0000,  0.0000,  0.0000)
  39 Pd     1.302712    2.329917   19.265455    ( 0.0000,  0.0000,  0.0000)
  40 Pd     4.346856    2.518172   19.352095    ( 0.0000,  0.0000,  0.0000)
  41 Ir     7.163674    2.544356   19.012504    ( 0.0000,  0.0000,  0.0000)
  42 Ag     2.785490    4.831053   19.348601    ( 0.0000,  0.0000,  0.0000)
  43 Ir     5.733598    4.838732   19.016679    ( 0.0000,  0.0000,  0.0000)
  44 Ir     8.321373    4.844199   18.971703    ( 0.0000,  0.0000,  0.0000)
  45 O      3.890234    0.853616   20.535434    ( 0.0000,  0.0000,  0.0000)

Unit cell:
           periodic     x           y           z      points  spacing
  1. axis:    yes    8.465341    0.000000    0.000000    35     0.2095
  2. axis:    yes    4.232670    7.331200    0.000000    35     0.2095
  3. axis:    no     0.000000    0.000000   29.187217   135     0.2162

  Lengths:   8.465341   8.465341  29.187217
  Angles:   90.000000  90.000000  60.000000

Effective grid spacing dv^(1/3) = 0.2221

                     log10-error:    total        iterations:
           time      wfs    density  energy       fermi  poisson
iter:   1  20:12:42  -3.31   +inf  -235.463844    3             
iter:   2  20:14:10  -2.13  -2.26  -263.893472    4             
iter:   3  20:15:37  -2.48  -1.47  -235.181327    4             
iter:   4  20:17:05  -3.49  -2.49  -234.905079    3             
iter:   5  20:18:33  -4.61  -3.14  -234.895417    2             
iter:   6  20:19:52  -5.16  -3.35  -234.890042    2             
iter:   7  20:21:02  -5.65  -3.65  -234.889090    2             
iter:   8  20:22:12  -5.81  -3.74  -234.888630    2             
iter:   9  20:23:24  -5.81  -3.84  -234.888295    2             
iter:  10  20:24:34  -6.17  -3.82  -234.887883    2             
iter:  11  20:25:46  -6.41  -3.85  -234.888616    2             
iter:  12  20:26:57  -6.75  -3.88  -234.887953    2             
iter:  13  20:28:08  -7.11  -4.17  -234.888022    2             
iter:  14  20:29:12  -7.10  -4.20  -234.888038    2             
iter:  15  20:30:08  -7.24  -4.26  -234.887981    2             
iter:  16  20:31:04  -7.38  -4.35  -234.887931    2             
iter:  17  20:31:59  -7.49  -4.38  -234.888201    2             

Converged after 17 iterations.

Dipole moment: (28.237699, 19.713218, -0.147019) |e|*Ang

Energy contributions relative to reference atoms: (reference = -12877847.605335)

Kinetic:       -221.644571
Potential:      +97.778041
External:        +0.000000
XC:            -103.004514
Entropy (-ST):   -2.225357
Local:           -6.904479
--------------------------
Free energy:   -236.000879
Extrapolated:  -234.888201

Fermi level: 0.99206

Showing only first 2 kpts
 Kpt  Band  Eigenvalues  Occupancy
  0   359      0.95319    0.14899
  0   360      0.98814    0.12745
  0   361      1.01714    0.10941
  0   362      1.05224    0.08848

  1   359      0.90167    0.17794
  1   360      0.91859    0.16896
  1   361      0.96175    0.14380
  1   362      0.98535    0.12919



Forces in eV/Ang:
  0 Pd   -0.12584    0.32629   -0.35706
  1 Ir    0.95052    0.70270    0.60381
  2 Ru   -1.07984    0.29177    0.68490
  3 Ru    0.43689    0.29485    1.62186
  4 Ir   -0.54908   -0.80545    1.13355
  5 Pt    0.16316    0.16609    0.05959
  6 Pd   -0.49846   -0.42181   -0.23439
  7 Pd    0.38117   -0.26042   -0.57274
  8 Ru    0.35016   -0.15600    0.55315
  9 Ag   -0.22932   -0.10369    0.09818
 10 Ag   -0.02532   -0.11037    0.07725
 11 Ag    0.08911   -0.18146   -0.12364
 12 Pt    0.14059    0.70893   -0.58396
 13 Pt    0.10501    0.50227   -0.73283
 14 Pt   -0.09747    0.10926   -0.19948
 15 Ru   -0.41414   -0.76580   -0.88233
 16 Pt   -0.42532    0.11902   -0.12851
 17 Ir    0.90582   -0.13834   -1.08983
 18 Pt    0.01206   -0.01675    0.01546
 19 Ag   -0.00195   -0.00644   -0.00897
 20 Pd    0.00904   -0.00742    0.00110
 21 Ag   -0.00056   -0.00471    0.00600
 22 Ru   -0.00867   -0.00702   -0.01220
 23 Pd    0.00138   -0.00040    0.00698
 24 Ir    0.00495    0.00650   -0.01877
 25 Ir   -0.00186    0.02565    0.01748
 26 Pt    0.00511   -0.00137   -0.00226
 27 Ir   -0.01351    0.00293    0.04823
 28 Pd   -0.02536   -0.00567    0.03336
 29 Ag   -0.01056   -0.02945    0.00323
 30 Pd   -0.01419   -0.02527   -0.01459
 31 Pd   -0.03281    0.00864    0.00394
 32 Pd    0.00609   -0.02879   -0.01593
 33 Ru    0.01755   -0.00579   -0.00483
 34 Pd    0.01399   -0.00836   -0.02973
 35 Ir   -0.03996   -0.01002    0.01168
 36 Ir   -0.04567    0.00145    0.00250
 37 Pt   -0.00173   -0.02583   -0.02212
 38 Ag   -0.04093    0.01199   -0.00344
 39 Pd   -0.03811   -0.01232   -0.03964
 40 Pd   -0.01070   -0.03189   -0.03405
 41 Ir    0.07350   -0.06827   -0.01114
 42 Ag    0.00239   -0.01759    0.00333
 43 Ir   -0.02180    0.01468   -0.00138
 44 Ir    0.00633   -0.01622    0.00105
 45 O     0.01193   -0.02225   -0.00217

System changes: positions 

Initializing position-dependent things.

Density initialized from wave functions
                                             
                                             
                                             
                                             
                                             
                                             
                 Ag                          
                 O       Ir    Ir            
            Pd     RPd    PIr    Ir          
                      Ag                     
        Ir    Pt    Pd     Pd                
               Pd     Ag                     
        Ir           Ir     Ir     Pt        
                Ag     Ru     Pd             
                                             
           Pt     Ag    PPd    Ir            
                                             
            Pt     Pt    PPt    Ru           
       Ag     Ag    IAg    Pt                
                                             
         Pd    Ir     Ru                     
                                             
                                             
                                             
                                             
                                             

Positions:
   0 Pd     0.000000    1.624086   10.000000    ( 0.0000,  0.0000,  0.0000)
   1 Ir     2.812999    1.624086   10.000000    ( 0.0000,  0.0000,  0.0000)
   2 Ru     5.625998    1.624086   10.000000    ( 0.0000,  0.0000,  0.0000)
   3 Ru     1.406500    4.060215   10.000000    ( 0.0000,  0.0000,  0.0000)
   4 Ir     4.219499    4.060215   10.000000    ( 0.0000,  0.0000,  0.0000)
   5 Pt     7.032498    4.060215   10.000000    ( 0.0000,  0.0000,  0.0000)
   6 Pd     2.812999    6.496343   10.000000    ( 0.0000,  0.0000,  0.0000)
   7 Pd     5.625998    6.496343   10.000000    ( 0.0000,  0.0000,  0.0000)
   8 Ru     8.438997    6.496343   10.000000    ( 0.0000,  0.0000,  0.0000)
   9 Ag     0.000000    0.000000   12.296804    ( 0.0000,  0.0000,  0.0000)
  10 Ag     2.812999    0.000000   12.296804    ( 0.0000,  0.0000,  0.0000)
  11 Ag     5.625998    0.000000   12.296804    ( 0.0000,  0.0000,  0.0000)
  12 Pt     1.406500    2.436129   12.296804    ( 0.0000,  0.0000,  0.0000)
  13 Pt     4.219499    2.436129   12.296804    ( 0.0000,  0.0000,  0.0000)
  14 Pt     7.032498    2.436129   12.296804    ( 0.0000,  0.0000,  0.0000)
  15 Ru     2.812999    4.872257   12.296804    ( 0.0000,  0.0000,  0.0000)
  16 Pt     5.625998    4.872257   12.296804    ( 0.0000,  0.0000,  0.0000)
  17 Ir     8.438997    4.872257   12.296804    ( 0.0000,  0.0000,  0.0000)
  18 Pt     1.342869    0.695165   14.673068    ( 0.0000,  0.0000,  0.0000)
  19 Ag     4.199427    0.750018   14.654534    ( 0.0000,  0.0000,  0.0000)
  20 Pd     7.011374    0.819069   14.630595    ( 0.0000,  0.0000,  0.0000)
  21 Ag     2.817282    3.144777   14.653807    ( 0.0000,  0.0000,  0.0000)
  22 Ru     5.665130    3.346466   14.460342    ( 0.0000,  0.0000,  0.0000)
  23 Pd     8.462244    3.162758   14.563531    ( 0.0000,  0.0000,  0.0000)
  24 Ir     4.216394    5.578787   14.573808    ( 0.0000,  0.0000,  0.0000)
  25 Ir     7.040272    5.543691   14.554860    ( 0.0000,  0.0000,  0.0000)
  26 Pt     9.879489    5.615835   14.583178    ( 0.0000,  0.0000,  0.0000)
  27 Ir    -0.063489    1.465135   16.948020    ( 0.0000,  0.0000,  0.0000)
  28 Pd     2.794627    1.502108   17.032879    ( 0.0000,  0.0000,  0.0000)
  29 Ag     5.546587    1.551197   16.942496    ( 0.0000,  0.0000,  0.0000)
  30 Pd     1.436161    3.959005   16.947512    ( 0.0000,  0.0000,  0.0000)
  31 Pd     4.226834    4.062578   16.897535    ( 0.0000,  0.0000,  0.0000)
  32 Pd     7.041796    3.929283   16.714603    ( 0.0000,  0.0000,  0.0000)
  33 Ru     2.864135    6.493675   16.767574    ( 0.0000,  0.0000,  0.0000)
  34 Pd     5.743338    6.413202   16.830605    ( 0.0000,  0.0000,  0.0000)
  35 Ir     8.599879    6.316404   16.899803    ( 0.0000,  0.0000,  0.0000)
  36 Ir     0.055799   -0.133926   18.951441    ( 0.0000,  0.0000,  0.0000)
  37 Pt     2.663110   -0.170758   19.398926    ( 0.0000,  0.0000,  0.0000)
  38 Ag     5.778329   -0.014054   19.482461    ( 0.0000,  0.0000,  0.0000)
  39 Pd     1.299205    2.325321   19.264537    ( 0.0000,  0.0000,  0.0000)
  40 Pd     4.342531    2.509221   19.350647    ( 0.0000,  0.0000,  0.0000)
  41 Ir     7.165983    2.538030   19.013021    ( 0.0000,  0.0000,  0.0000)
  42 Ag     2.782323    4.827080   19.346638    ( 0.0000,  0.0000,  0.0000)
  43 Ir     5.730282    4.834592   19.016600    ( 0.0000,  0.0000,  0.0000)
  44 Ir     8.319288    4.841267   18.971375    ( 0.0000,  0.0000,  0.0000)
  45 O      3.886166    0.849364   20.535750    ( 0.0000,  0.0000,  0.0000)

Unit cell:
           periodic     x           y           z      points  spacing
  1. axis:    yes    8.465341    0.000000    0.000000    35     0.2095
  2. axis:    yes    4.232670    7.331200    0.000000    35     0.2095
  3. axis:    no     0.000000    0.000000   29.187217   135     0.2162

  Lengths:   8.465341   8.465341  29.187217
  Angles:   90.000000  90.000000  60.000000

Effective grid spacing dv^(1/3) = 0.2221

                     log10-error:    total        iterations:
           time      wfs    density  energy       fermi  poisson
iter:   1  20:33:21  -3.34   +inf  -235.718517    3             
iter:   2  20:34:17  -1.95  -2.18  -273.784624    37            
iter:   3  20:35:34  -2.36  -1.42  -235.761347    37            
iter:   4  20:37:02  -3.24  -2.25  -234.956476    3             
iter:   5  20:38:31  -4.20  -2.82  -234.903348    2             
iter:   6  20:39:59  -4.87  -3.22  -234.893361    2             
iter:   7  20:41:26  -5.43  -3.64  -234.891447    2             
iter:   8  20:42:36  -5.80  -3.76  -234.891582    2             
iter:   9  20:43:47  -6.14  -3.68  -234.891068    2             
iter:  10  20:44:59  -6.28  -3.86  -234.890321    2             
iter:  11  20:46:09  -6.31  -4.03  -234.890826    2             
iter:  12  20:47:21  -6.61  -3.93  -234.890427    2             
iter:  13  20:48:27  -6.90  -4.22  -234.890373    2             
iter:  14  20:49:23  -7.20  -4.17  -234.890372    2             
iter:  15  20:50:19  -7.34  -4.22  -234.890383    2             
iter:  16  20:51:15  -7.27  -4.29  -234.890190    2             
iter:  17  20:52:11  -7.77  -4.48  -234.890391    2             

Converged after 17 iterations.

Dipole moment: (28.810352, 19.898064, -0.146843) |e|*Ang

Energy contributions relative to reference atoms: (reference = -12877847.605335)

Kinetic:       -221.633371
Potential:      +97.752499
External:        +0.000000
XC:            -102.992598
Entropy (-ST):   -2.225406
Local:           -6.904219
--------------------------
Free energy:   -236.003094
Extrapolated:  -234.890391

Fermi level: 0.99187

Showing only first 2 kpts
 Kpt  Band  Eigenvalues  Occupancy
  0   359      0.95302    0.14898
  0   360      0.98786    0.12751
  0   361      1.01692    0.10943
  0   362      1.05172    0.08867

  1   359      0.90213    0.17761
  1   360      0.91785    0.16926
  1   361      0.96165    0.14375
  1   362      0.98497    0.12931



Forces in eV/Ang:
  0 Pd   -0.12626    0.32662   -0.35722
  1 Ir    0.95140    0.70337    0.60213
  2 Ru   -1.08072    0.29162    0.68394
  3 Ru    0.43709    0.29514    1.62016
  4 Ir   -0.55076   -0.80687    1.13213
  5 Pt    0.16311    0.16629    0.05880
  6 Pd   -0.49970   -0.42219   -0.23393
  7 Pd    0.38157   -0.26039   -0.57357
  8 Ru    0.35060   -0.15639    0.55300
  9 Ag   -0.22667   -0.09939    0.09724
 10 Ag   -0.02373   -0.11093    0.07787
 11 Ag    0.09389   -0.18395   -0.12246
 12 Pt    0.14046    0.70773   -0.58027
 13 Pt    0.10251    0.49826   -0.73650
 14 Pt   -0.08993    0.10624   -0.19573
 15 Ru   -0.41530   -0.77096   -0.88503
 16 Pt   -0.41078    0.11770   -0.12876
 17 Ir    0.90390   -0.14316   -1.08324
 18 Pt    0.00009   -0.00644    0.02530
 19 Ag   -0.01023    0.00281   -0.00335
 20 Pd    0.00322    0.00066    0.00070
 21 Ag    0.00431   -0.00274   -0.00445
 22 Ru   -0.00751    0.00012   -0.00365
 23 Pd    0.00265   -0.00515   -0.02184
 24 Ir   -0.00069   -0.00094   -0.00369
 25 Ir   -0.00442   -0.00042   -0.00960
 26 Pt    0.00371    0.00160   -0.00520
 27 Ir    0.00430   -0.04662   -0.00669
 28 Pd   -0.02205   -0.01246    0.01545
 29 Ag   -0.00692   -0.00522   -0.00144
 30 Pd   -0.00690    0.00044   -0.00836
 31 Pd   -0.00472   -0.01324    0.01212
 32 Pd   -0.02787   -0.03318    0.02769
 33 Ru    0.00689    0.00159    0.00053
 34 Pd   -0.01704    0.02776   -0.00366
 35 Ir   -0.02221   -0.00844    0.00305
 36 Ir   -0.00937   -0.01000   -0.01881
 37 Pt    0.01011    0.01456    0.01033
 38 Ag   -0.02617   -0.00563   -0.00621
 39 Pd    0.02966   -0.02234   -0.00083
 40 Pd    0.01332    0.02523   -0.03853
 41 Ir   -0.03778   -0.00314    0.00608
 42 Ag    0.00488   -0.02445    0.01060
 43 Ir   -0.01220   -0.05500    0.00939
 44 Ir   -0.01615   -0.02793    0.01221
 45 O    -0.01132   -0.02648   -0.01127

Timing:                                      incl.     excl.
-------------------------------------------------------------------
Density initialized from wave functions:    35.441    35.441   0.2% |
 Symmetrize density:                         0.001     0.001   0.0% |
Forces:                                    196.111   196.111   0.8% |
Hamiltonian:                                34.257     0.088   0.0% |
 Atomic:                                    11.902     7.750   0.0% |
  XC Correction:                             4.151     4.151   0.0% |
 Calculate atomic Hamiltonians:              8.229     8.229   0.0% |
 Communicate:                                0.004     0.004   0.0% |
 Initialize Hamiltonian:                     0.000     0.000   0.0% |
 Poisson:                                    0.051     0.051   0.0% |
 XC 3D grid:                                13.983    13.983   0.1% |
LCAO initialization:                        55.202     4.608   0.0% |
 LCAO eigensolver:                           7.479     0.002   0.0% |
  Calculate projections:                     0.061     0.061   0.0% |
  DenseAtomicCorrection:                     0.064     0.064   0.0% |
  Distribute overlap matrix:                 0.034     0.034   0.0% |
  Orbital Layouts:                           1.272     1.272   0.0% |
  Potential matrix:                          6.000     6.000   0.0% |
  Sum over cells:                            0.047     0.047   0.0% |
 LCAO to grid:                              39.192    39.192   0.2% |
 Set positions (LCAO WFS):                   3.922     0.622   0.0% |
  Basic WFS set positions:                   0.003     0.003   0.0% |
  Basis functions set positions:             0.001     0.001   0.0% |
  P tci:                                     0.702     0.702   0.0% |
  ST tci:                                    2.385     2.385   0.0% |
  mktci:                                     0.210     0.210   0.0% |
PWDescriptor:                                0.033     0.033   0.0% |
Redistribute:                                0.068     0.068   0.0% |
SCF-cycle:                               22689.662  2253.027   9.7% |---|
 Davidson:                               18697.572  4429.517  19.2% |-------|
  Apply H:                                2787.160  2696.424  11.7% |----|
   HMM T:                                   90.736    90.736   0.4% |
  Subspace diag:                          2656.732     0.087   0.0% |
   calc_h_matrix:                         1511.251   583.358   2.5% ||
    Apply H:                               927.893   897.776   3.9% |-|
     HMM T:                                 30.117    30.117   0.1% |
   diagonalize:                             40.994    40.994   0.2% |
   rotate_psi:                            1104.400  1104.400   4.8% |-|
  calc. matrices:                         5828.266  3967.790  17.2% |------|
   Apply H:                               1860.476  1799.710   7.8% |--|
    HMM T:                                  60.765    60.765   0.3% |
  diagonalize:                             784.689   784.689   3.4% ||
  rotate_psi:                             2211.207  2211.207   9.6% |---|
 Density:                                  873.892     0.014   0.0% |
  Atomic density matrices:                   5.925     5.925   0.0% |
  Mix:                                     265.921   265.921   1.2% |
  Multipole moments:                         0.369     0.369   0.0% |
  Pseudo density:                          601.662   601.645   2.6% ||
   Symmetrize density:                       0.017     0.017   0.0% |
 Hamiltonian:                              789.515     2.323   0.0% |
  Atomic:                                  288.757   180.954   0.8% |
   XC Correction:                          107.803   107.803   0.5% |
  Calculate atomic Hamiltonians:           214.477   214.477   0.9% |
  Communicate:                               0.208     0.208   0.0% |
  Poisson:                                   1.356     1.356   0.0% |
  XC 3D grid:                              282.394   282.394   1.2% |
 Orthonormalize:                            75.657     0.004   0.0% |
  calc_s_matrix:                            11.166    11.166   0.0% |
  inverse-cholesky:                          0.708     0.708   0.0% |
  projections:                              41.749    41.749   0.2% |
  rotate_psi_s:                             22.029    22.029   0.1% |
Set symmetry:                                0.002     0.002   0.0% |
Other:                                     107.859   107.859   0.5% |
-------------------------------------------------------------------
Total:                                             23118.635 100.0%

Date: Thu Mar  3 20:52:26 2022
