
  ___ ___ ___ _ _ _  
 |   |   |_  | | | | 
 | | | | | . | | | | 
 |__ |  _|___|_____|  1.5.1
 |___|_|             

User:   clausen@node419.cluster
Date:   Fri Mar  4 00:48:25 2022
Arch:   x86_64
Pid:    33531
Python: 3.6.12
gpaw:   /software/kemi/gpaw/1.5.1/gpaw
_gpaw:  /software/kemi/gpaw/1.5.1/bin/gpaw-python
ase:    /software/kemi/ase/3.17.0/ase (version 3.17.0)
numpy:  /opt/rh/rh-python36/root/usr/lib64/python3.6/site-packages/numpy (version 1.13.1)
scipy:  /opt/rh/rh-python36/root/usr/lib64/python3.6/site-packages/scipy (version 0.19.1)
units:  Angstrom and eV
cores:  16

Input parameters:
  kpts: [4 4 1]
  mode: {ecut: 400.0,
         gammacentered: False,
         name: pw}
  xc: RPBE

System changes: positions, numbers, cell, pbc, initial_charges, initial_magmoms 

Initialize ...

Pd-setup:
  name: Palladium
  id: 6da19bfba079f22767af9506641940b9
  Z: 46
  valence: 16
  core: 30
  charge: 0.0
  file: /software/kemi/gpaw-setups/0.9.20000/Pd.RPBE.gz
  cutoffs: 1.19(comp), 2.38(filt), 2.28(core), lmax=2
  valence states:
                energy  radius
    5s(0.00)    -3.225   1.228
    4p(6.00)   -51.131   1.360
    5p(0.00)    -0.373   1.360
    4d(10.00)    -3.964   1.228
    *s          23.987   1.228
    *d          23.247   1.228

  Using partial waves for Pd as LCAO basis

Ag-setup:
  name: Silver
  id: c05e55bab2c3858b3f9398f6d75cb77c
  Z: 47
  valence: 17
  core: 30
  charge: 0.0
  file: /software/kemi/gpaw-setups/0.9.20000/Ag.RPBE.gz
  cutoffs: 1.25(comp), 2.35(filt), 2.19(core), lmax=2
  valence states:
                energy  radius
    5s(1.00)    -4.277   1.286
    4p(6.00)   -58.523   1.328
    5p(0.00)    -0.755   1.328
    4d(10.00)    -7.386   1.180
    *s          22.934   1.286
    *d          19.826   1.180

  Using partial waves for Ag as LCAO basis

Pt-setup:
  name: Platinum
  id: f04f522592575c47ad794f6b4a415b4b
  Z: 78
  valence: 16
  core: 62
  charge: 0.0
  file: /software/kemi/gpaw-setups/0.9.20000/Pt.RPBE.gz
  cutoffs: 1.29(comp), 2.26(filt), 2.26(core), lmax=2
  valence states:
                energy  radius
    6s(1.00)    -5.516   1.307
    5p(6.00)   -55.971   1.371
    6p(0.00)    -0.856   1.371
    5d(9.00)    -6.087   1.307
    *s          21.695   1.307
    *d          21.125   1.307

  Using partial waves for Pt as LCAO basis

Ru-setup:
  name: Ruthenium
  id: 76477906e28f51dc1b29884d53556fe9
  Z: 44
  valence: 16
  core: 28
  charge: 0.0
  file: /software/kemi/gpaw-setups/0.9.20000/Ru.RPBE.gz
  cutoffs: 1.23(comp), 2.16(filt), 1.30(core), lmax=2
  valence states:
                energy  radius
    4s(2.00)   -76.255   1.281
    5s(1.00)    -4.126   1.281
    4p(6.00)   -46.371   1.286
    5p(0.00)    -0.913   1.286
    4d(7.00)    -5.146   1.254
    *d          22.066   1.254

  Using partial waves for Ru as LCAO basis

O-setup:
  name: Oxygen
  id: 08071ca1eed670e7821b24b7eb4d558c
  Z: 8
  valence: 6
  core: 2
  charge: 0.0
  file: /software/kemi/gpaw-setups/0.9.20000/O.RPBE.gz
  cutoffs: 0.67(comp), 1.17(filt), 0.83(core), lmax=2
  valence states:
                energy  radius
    2s(2.00)   -24.041   0.688
    2p(4.00)    -8.984   0.598
    *s           3.170   0.688
    *p          18.228   0.598
    *d           0.000   0.619

  Using partial waves for O as LCAO basis

H-setup:
  name: Hydrogen
  id: ea3f9156a1dc40d47a60fdce8f8bd75d
  Z: 1
  valence: 1
  core: 0
  charge: 0.0
  file: /software/kemi/gpaw-setups/0.9.20000/H.RPBE.gz
  cutoffs: 0.48(comp), 0.85(filt), 0.53(core), lmax=2
  valence states:
                energy  radius
    1s(1.00)    -6.572   0.476
    *s          20.639   0.476
    *p           0.000   0.476

  Using partial waves for H as LCAO basis

Reference energy: -9073466.092496

Spin-paired calculation

Occupation numbers:
  Fermi-Dirac: width=0.1000 eV

Convergence criteria:
  Maximum total energy change: 0.0005 eV / electron
  Maximum integral of absolute density change: 0.0001 electrons
  Maximum integral of absolute eigenstate change: 4e-08 eV^2
  Maximum number of iterations: 333

Symmetries present (total): 1

  ( 1  0  0)
  ( 0  1  0)
  ( 0  0  1)

16 k-points: 4 x 4 x 1 Monkhorst-Pack grid
8 k-points in the irreducible part of the Brillouin zone
       k-points in crystal coordinates                weights
   0:     0.12500000   -0.37500000    0.00000000          2/16
   1:     0.12500000   -0.12500000    0.00000000          2/16
   2:     0.12500000    0.12500000    0.00000000          2/16
   3:     0.12500000    0.37500000    0.00000000          2/16
   4:     0.37500000   -0.37500000    0.00000000          2/16
   5:     0.37500000   -0.12500000    0.00000000          2/16
   6:     0.37500000    0.12500000    0.00000000          2/16
   7:     0.37500000    0.37500000    0.00000000          2/16

Wave functions: Plane wave expansion
  Cutoff energy: 400.000 eV
  Number of coefficients (min, max): 32266, 32339
  Pulay-stress correction: 0.000000 eV/Ang^3 (de/decut=0.000000)
  Using FFTW library
  ScaLapack parameters: grid=1x1, blocksize=None
  Wavefunction extrapolation:
    Improved wavefunction reuse through dual PAW basis 

Eigensolver
   Davidson(niter=2, smin=None, normalize=True) 

Densities:
  Coarse grid: 35*35*135 grid
  Fine grid: 70*70*270 grid
  Total Charge: 0.000000 

Density mixing:
  Method: separate
  Backend: pulay
  Linear mixing parameter: 0.05
  Mixing with 5 old densities
  Damping of long wave oscillations: 50 

Hamiltonian:
  XC and Coulomb potentials evaluated on a 70*70*270 grid
  Using the RPBE Exchange-Correlation functional
 

XC parameters: RPBE with 2 nearest neighbor stencil

Memory estimate:
  Process memory now: 148.02 MiB
  Calculator: 552.99 MiB
    Density: 51.61 MiB
      Arrays: 16.41 MiB
      Localized functions: 28.84 MiB
      Mixer: 6.36 MiB
    Hamiltonian: 11.64 MiB
      Arrays: 10.73 MiB
      XC: 0.00 MiB
      Poisson: 0.00 MiB
      vbar: 0.91 MiB
    Wavefunctions: 489.75 MiB
      Arrays psit_nG: 221.07 MiB
      Eigensolver: 254.17 MiB
      Projections: 2.83 MiB
      Projectors: 5.06 MiB
      PW-descriptor: 6.62 MiB

Total number of cores used: 16
Parallelization over k-points: 8
Domain decomposition: 1 x 1 x 2

Number of atoms: 47
Number of atomic orbitals: 552
Number of bands in calculation: 448
Bands to converge: occupied states only
Number of valence electrons: 739

... initialized

Initializing position-dependent things.

Density initialized from atomic densities
Creating initial wave functions:
  448 bands from LCAO basis set

                                             
                                             
                                             
                                             
                                             
                                             
                     H                       
                   O                         
                 Pt      Pd    Ru            
                                             
            Pt    APd    PPd    Ru           
        Pd           Pd                      
              Ru           Pt                
        Pt     Pd    PPd    Pd     Ag        
                                             
                Ag     Ag     Ag             
                                             
           Ag    PAg    APt    Pd            
                                             
            Pd     Ru     Ag     Pd          
       Ag    PRu    PRu    Pt                
                                             
        Pd     Ag     Pt                     
                                             
                                             
                                             
                                             
                                             

Positions:
   0 Pd     0.000000    1.633958   10.000000    ( 0.0000,  0.0000,  0.0000)
   1 Ag     2.830098    1.633958   10.000000    ( 0.0000,  0.0000,  0.0000)
   2 Pt     5.660196    1.633958   10.000000    ( 0.0000,  0.0000,  0.0000)
   3 Pd     1.415049    4.084895   10.000000    ( 0.0000,  0.0000,  0.0000)
   4 Pd     4.245147    4.084895   10.000000    ( 0.0000,  0.0000,  0.0000)
   5 Pt     7.075245    4.084895   10.000000    ( 0.0000,  0.0000,  0.0000)
   6 Pd     2.830098    6.535832   10.000000    ( 0.0000,  0.0000,  0.0000)
   7 Ag     5.660196    6.535832   10.000000    ( 0.0000,  0.0000,  0.0000)
   8 Pd     8.490294    6.535832   10.000000    ( 0.0000,  0.0000,  0.0000)
   9 Ag     0.000000    0.000000   12.310765    ( 0.0000,  0.0000,  0.0000)
  10 Ru     2.830098    0.000000   12.310765    ( 0.0000,  0.0000,  0.0000)
  11 Ru     5.660196    0.000000   12.310765    ( 0.0000,  0.0000,  0.0000)
  12 Pd     1.415049    2.450937   12.310765    ( 0.0000,  0.0000,  0.0000)
  13 Ru     4.245147    2.450937   12.310765    ( 0.0000,  0.0000,  0.0000)
  14 Ag     7.075245    2.450937   12.310765    ( 0.0000,  0.0000,  0.0000)
  15 Pd     2.830098    4.901874   12.310765    ( 0.0000,  0.0000,  0.0000)
  16 Ag     5.660196    4.901874   12.310765    ( 0.0000,  0.0000,  0.0000)
  17 Pd     8.490294    4.901874   12.310765    ( 0.0000,  0.0000,  0.0000)
  18 Ag     1.422839    0.836358   14.687202    ( 0.0000,  0.0000,  0.0000)
  19 Ag     4.228290    0.834029   14.668537    ( 0.0000,  0.0000,  0.0000)
  20 Pt     7.000876    0.833422   14.677349    ( 0.0000,  0.0000,  0.0000)
  21 Ag     2.849410    3.275055   14.697646    ( 0.0000,  0.0000,  0.0000)
  22 Ag     5.607020    3.276035   14.715763    ( 0.0000,  0.0000,  0.0000)
  23 Ag     8.407636    3.278571   14.701685    ( 0.0000,  0.0000,  0.0000)
  24 Pd     4.226650    5.664441   14.783889    ( 0.0000,  0.0000,  0.0000)
  25 Pd     7.021524    5.717496   14.695770    ( 0.0000,  0.0000,  0.0000)
  26 Ag     9.810161    5.688371   14.690489    ( 0.0000,  0.0000,  0.0000)
  27 Pt     0.030364    1.654579   17.054310    ( 0.0000,  0.0000,  0.0000)
  28 Pd     2.863636    1.668211   17.080253    ( 0.0000,  0.0000,  0.0000)
  29 Pd     5.584811    1.668389   17.077768    ( 0.0000,  0.0000,  0.0000)
  30 Pd     1.451673    4.084780   17.054426    ( 0.0000,  0.0000,  0.0000)
  31 Ru     4.287216    4.070209   17.299465    ( 0.0000,  0.0000,  0.0000)
  32 Pt     6.976254    4.091014   17.095978    ( 0.0000,  0.0000,  0.0000)
  33 Ag     2.791829    6.501265   17.070936    ( 0.0000,  0.0000,  0.0000)
  34 Pt     5.617052    6.449501   17.092744    ( 0.0000,  0.0000,  0.0000)
  35 Ru     8.289070    6.444709   17.186717    ( 0.0000,  0.0000,  0.0000)
  36 Pd     0.109969    0.038419   19.432145    ( 0.0000,  0.0000,  0.0000)
  37 Ru     2.913932   -0.060119   19.211827    ( 0.0000,  0.0000,  0.0000)
  38 Pd     5.607656    0.003198   19.432032    ( 0.0000,  0.0000,  0.0000)
  39 Pt     1.441354    2.458850   19.369405    ( 0.0000,  0.0000,  0.0000)
  40 Pd     4.211433    2.427374   19.463642    ( 0.0000,  0.0000,  0.0000)
  41 Pd     7.082631    2.483306   19.414916    ( 0.0000,  0.0000,  0.0000)
  42 Pt     2.814800    4.836018   19.384744    ( 0.0000,  0.0000,  0.0000)
  43 Pd     5.686541    4.887569   19.522731    ( 0.0000,  0.0000,  0.0000)
  44 Ru     8.428363    4.985817   19.203811    ( 0.0000,  0.0000,  0.0000)
  45 O      4.211433    2.427374   21.522731    ( 0.0000,  0.0000,  0.0000)
  46 H      4.861433    3.077374   21.922731    ( 0.0000,  0.0000,  0.0000)

Unit cell:
           periodic     x           y           z      points  spacing
  1. axis:    yes    8.379498    0.000000    0.000000    35     0.2073
  2. axis:    yes    4.189749    7.256858    0.000000    35     0.2073
  3. axis:    no     0.000000    0.000000   29.243062   135     0.2166

  Lengths:   8.379498   8.379498  29.243062
  Angles:   90.000000  90.000000  60.000000

Effective grid spacing dv^(1/3) = 0.2207

                     log10-error:    total        iterations:
           time      wfs    density  energy       fermi  poisson
iter:   1  00:50:49  +0.50   +inf  -243.088517    3             
iter:   2  00:52:02  -1.06  -1.20  -213.181028    3             
iter:   3  00:53:13  -1.45  -1.32  -210.238611    37            
iter:   4  00:54:24  -1.36  -1.35  -272.967587    36            
iter:   5  00:55:36  -1.58  -1.21  -196.114404    37            
iter:   6  00:56:47  -1.74  -1.50  -189.276338    37            
iter:   7  00:58:00  -2.06  -1.66  -188.150967    35            
iter:   8  00:59:12  -3.06  -1.75  -187.252137    3             
iter:   9  01:00:24  -2.44  -1.76  -190.612492    4             
iter:  10  01:01:37  -2.30  -1.72  -191.188385    3             
iter:  11  01:02:50  -2.59  -1.75  -186.073135    3             
iter:  12  01:04:02  -3.13  -2.05  -185.991914    3             
iter:  13  01:05:14  -3.12  -2.09  -185.954002    3             
iter:  14  01:06:26  -3.53  -2.19  -185.806147    2             
iter:  15  01:07:38  -3.40  -2.22  -185.707991    3             
iter:  16  01:08:50  -3.72  -2.30  -185.486019    3             
iter:  17  01:10:04  -3.57  -2.43  -185.383447    3             
iter:  18  01:11:18  -3.82  -2.55  -185.337307    2             
iter:  19  01:12:31  -3.96  -2.62  -185.436252    3             
iter:  20  01:13:44  -4.15  -2.52  -185.295673    2             
iter:  21  01:14:57  -4.62  -2.75  -185.284768    2             
iter:  22  01:16:10  -4.60  -2.84  -185.272294    2             
iter:  23  01:17:23  -4.46  -2.88  -185.275426    2             
iter:  24  01:18:35  -4.64  -2.92  -185.264415    2             
iter:  25  01:19:48  -4.82  -2.96  -185.261007    2             
iter:  26  01:21:01  -5.06  -3.06  -185.265120    2             
iter:  27  01:22:15  -4.93  -3.11  -185.259199    2             
iter:  28  01:23:27  -5.18  -3.26  -185.264158    2             
iter:  29  01:24:39  -5.73  -3.13  -185.258968    2             
iter:  30  01:25:51  -5.99  -3.44  -185.259221    2             
iter:  31  01:27:04  -5.77  -3.36  -185.257739    2             
iter:  32  01:28:17  -5.42  -3.54  -185.259645    2             
iter:  33  01:29:30  -6.31  -3.73  -185.257155    2             
iter:  34  01:30:43  -6.82  -3.84  -185.257456    2             
iter:  35  01:31:56  -6.68  -3.90  -185.257459    2             
iter:  36  01:33:09  -6.89  -3.98  -185.257471    2             
iter:  37  01:34:21  -6.90  -4.10  -185.257269    2             
iter:  38  01:35:33  -7.04  -4.19  -185.257460    2             
iter:  39  01:36:45  -7.02  -4.12  -185.256890    2             
iter:  40  01:37:57  -7.19  -4.17  -185.257289    2             
iter:  41  01:39:09  -7.78  -4.51  -185.257029    2             

Converged after 41 iterations.

Dipole moment: (25.136866, 21.857756, -0.300645) |e|*Ang

Energy contributions relative to reference atoms: (reference = -9073466.092496)

Kinetic:       -174.397625
Potential:      +28.132729
External:        +0.000000
XC:             -33.588149
Entropy (-ST):   -2.042301
Local:           -4.382833
--------------------------
Free energy:   -186.278180
Extrapolated:  -185.257029

Fermi level: 0.79578

Showing only first 2 kpts
 Kpt  Band  Eigenvalues  Occupancy
  0   367      0.75615    0.14945
  0   368      0.81128    0.11533
  0   369      0.82941    0.10418
  0   370      0.85964    0.08639

  1   367      0.66303    0.19761
  1   368      0.69893    0.18121
  1   369      0.73063    0.16434
  1   370      0.75534    0.14994



Forces in eV/Ang:
  0 Pd    0.09476    0.51382   -0.42170
  1 Ag    0.10789    0.49078   -0.51631
  2 Pt   -0.23379    0.51309    0.83394
  3 Pd    0.09343    0.03431   -0.08314
  4 Pd    0.11284   -0.37678    0.20205
  5 Pt   -0.13111   -0.29673   -0.09358
  6 Pd   -0.17667   -0.39220   -0.05418
  7 Ag   -0.12436   -0.45428   -0.70803
  8 Pd   -0.24991   -0.30909    0.26599
  9 Ag    0.51683    0.21079    0.42899
 10 Ru    2.21837    1.28807    0.40340
 11 Ru   -1.86309    0.87938   -0.35191
 12 Pd    1.12466   -0.24272    0.00500
 13 Ru   -0.53755   -1.48772   -0.88067
 14 Ag   -0.44484    0.13093    0.28708
 15 Pd    0.18629   -0.58394    0.07528
 16 Ag   -0.18615   -0.38237    0.34086
 17 Pd   -0.36798    0.53998   -0.02137
 18 Ag   -0.03086   -0.00649   -0.01445
 19 Ag   -0.00938    0.00270    0.02756
 20 Pt    0.03122   -0.04984   -0.02598
 21 Ag    0.00944    0.01404    0.02771
 22 Ag    0.01551   -0.01173    0.01365
 23 Ag   -0.01180   -0.00053    0.01718
 24 Pd    0.01132    0.02934    0.02066
 25 Pd    0.03632    0.03136    0.04599
 26 Ag   -0.00907   -0.01034    0.02688
 27 Pt    0.01400    0.03840    0.02392
 28 Pd    0.02256   -0.01082    0.13453
 29 Pd   -0.06183   -0.00041   -0.02279
 30 Pd    0.01986   -0.02685    0.00121
 31 Ru   -0.02656    0.05051   -0.18137
 32 Pt    0.00709   -0.05265   -0.01372
 33 Ag    0.00087    0.05024    0.00926
 34 Pt    0.01197    0.02777    0.00521
 35 Ru    0.03666    0.02841    0.06299
 36 Pd    0.05148    0.00737    0.01110
 37 Ru   -0.17413   -0.07838    0.01678
 38 Pd    0.05588   -0.04851    0.02263
 39 Pt   -0.21962   -0.04118   -0.02312
 40 Pd    0.22965   -0.01893    0.52683
 41 Pd    0.08134    0.00390    0.02405
 42 Pt   -0.12045    0.10272   -0.09722
 43 Pd    0.00417    0.10437   -0.08261
 44 Ru   -0.03247   -0.00055    0.01441
 45 O     0.24937    0.20171    0.02685
 46 H    -0.32630   -0.38999   -0.47721

System changes: positions 

Initializing position-dependent things.

Density initialized from wave functions
                                             
                                             
                                             
                                             
                                             
                                             
                     H                       
                   O                         
                 Pt      Pd    Ru            
            Pt    APd    PPd    Ru           
                                             
        Pd    Ru     Pd    Pt                
                                             
        Pt     Pd    PPd    Pd     Ag        
                Ag     Ag     Ag             
                                             
           Ag    PAg    APt    Pd            
                                             
            Pd     Ru     Ag     Pd          
       Ag     Ru     Ru                      
             Pd     Pd     Pt                
        Pd     Ag     Pt                     
                                             
                                             
                                             
                                             
                                             

Positions:
   0 Pd     0.000000    1.633958   10.000000    ( 0.0000,  0.0000,  0.0000)
   1 Ag     2.830098    1.633958   10.000000    ( 0.0000,  0.0000,  0.0000)
   2 Pt     5.660196    1.633958   10.000000    ( 0.0000,  0.0000,  0.0000)
   3 Pd     1.415049    4.084895   10.000000    ( 0.0000,  0.0000,  0.0000)
   4 Pd     4.245147    4.084895   10.000000    ( 0.0000,  0.0000,  0.0000)
   5 Pt     7.075245    4.084895   10.000000    ( 0.0000,  0.0000,  0.0000)
   6 Pd     2.830098    6.535832   10.000000    ( 0.0000,  0.0000,  0.0000)
   7 Ag     5.660196    6.535832   10.000000    ( 0.0000,  0.0000,  0.0000)
   8 Pd     8.490294    6.535832   10.000000    ( 0.0000,  0.0000,  0.0000)
   9 Ag     0.000000    0.000000   12.310765    ( 0.0000,  0.0000,  0.0000)
  10 Ru     2.830098    0.000000   12.310765    ( 0.0000,  0.0000,  0.0000)
  11 Ru     5.660196    0.000000   12.310765    ( 0.0000,  0.0000,  0.0000)
  12 Pd     1.415049    2.450937   12.310765    ( 0.0000,  0.0000,  0.0000)
  13 Ru     4.245147    2.450937   12.310765    ( 0.0000,  0.0000,  0.0000)
  14 Ag     7.075245    2.450937   12.310765    ( 0.0000,  0.0000,  0.0000)
  15 Pd     2.830098    4.901874   12.310765    ( 0.0000,  0.0000,  0.0000)
  16 Ag     5.660196    4.901874   12.310765    ( 0.0000,  0.0000,  0.0000)
  17 Pd     8.490294    4.901874   12.310765    ( 0.0000,  0.0000,  0.0000)
  18 Ag     1.419753    0.835710   14.685757    ( 0.0000,  0.0000,  0.0000)
  19 Ag     4.227352    0.834299   14.671293    ( 0.0000,  0.0000,  0.0000)
  20 Pt     7.003998    0.828437   14.674751    ( 0.0000,  0.0000,  0.0000)
  21 Ag     2.850354    3.276458   14.700418    ( 0.0000,  0.0000,  0.0000)
  22 Ag     5.608570    3.274861   14.717128    ( 0.0000,  0.0000,  0.0000)
  23 Ag     8.406456    3.278518   14.703403    ( 0.0000,  0.0000,  0.0000)
  24 Pd     4.227782    5.667375   14.785956    ( 0.0000,  0.0000,  0.0000)
  25 Pd     7.025156    5.720632   14.700369    ( 0.0000,  0.0000,  0.0000)
  26 Ag     9.809254    5.687337   14.693178    ( 0.0000,  0.0000,  0.0000)
  27 Pt     0.031763    1.658419   17.056702    ( 0.0000,  0.0000,  0.0000)
  28 Pd     2.865892    1.667128   17.093705    ( 0.0000,  0.0000,  0.0000)
  29 Pd     5.578628    1.668348   17.075489    ( 0.0000,  0.0000,  0.0000)
  30 Pd     1.453659    4.082095   17.054547    ( 0.0000,  0.0000,  0.0000)
  31 Ru     4.284560    4.075260   17.281328    ( 0.0000,  0.0000,  0.0000)
  32 Pt     6.976963    4.085749   17.094606    ( 0.0000,  0.0000,  0.0000)
  33 Ag     2.791916    6.506289   17.071862    ( 0.0000,  0.0000,  0.0000)
  34 Pt     5.618250    6.452278   17.093264    ( 0.0000,  0.0000,  0.0000)
  35 Ru     8.292736    6.447549   17.193016    ( 0.0000,  0.0000,  0.0000)
  36 Pd     0.115117    0.039156   19.433255    ( 0.0000,  0.0000,  0.0000)
  37 Ru     2.896519   -0.067957   19.213505    ( 0.0000,  0.0000,  0.0000)
  38 Pd     5.613244   -0.001653   19.434295    ( 0.0000,  0.0000,  0.0000)
  39 Pt     1.419392    2.454731   19.367093    ( 0.0000,  0.0000,  0.0000)
  40 Pd     4.234398    2.425481   19.516325    ( 0.0000,  0.0000,  0.0000)
  41 Pd     7.090765    2.483696   19.417321    ( 0.0000,  0.0000,  0.0000)
  42 Pt     2.802754    4.846290   19.375022    ( 0.0000,  0.0000,  0.0000)
  43 Pd     5.686958    4.898006   19.514470    ( 0.0000,  0.0000,  0.0000)
  44 Ru     8.425116    4.985762   19.205252    ( 0.0000,  0.0000,  0.0000)
  45 O      4.236369    2.447545   21.525416    ( 0.0000,  0.0000,  0.0000)
  46 H      4.828802    3.038375   21.875010    ( 0.0000,  0.0000,  0.0000)

Unit cell:
           periodic     x           y           z      points  spacing
  1. axis:    yes    8.379498    0.000000    0.000000    35     0.2073
  2. axis:    yes    4.189749    7.256858    0.000000    35     0.2073
  3. axis:    no     0.000000    0.000000   29.243062   135     0.2166

  Lengths:   8.379498   8.379498  29.243062
  Angles:   90.000000  90.000000  60.000000

Effective grid spacing dv^(1/3) = 0.2207

                     log10-error:    total        iterations:
           time      wfs    density  energy       fermi  poisson
iter:   1  01:40:53  -2.45   +inf  -188.624718    4             
iter:   2  01:42:06  -1.51  -1.94  -271.646303    35            
iter:   3  01:43:18  -1.47  -1.34  -203.973457    37            
iter:   4  01:44:31  -2.71  -1.65  -187.624985    37            
iter:   5  01:45:45  -2.99  -2.14  -185.712951    3             
iter:   6  01:46:59  -3.35  -2.44  -185.243436    3             
iter:   7  01:48:14  -3.92  -2.76  -185.187575    3             
iter:   8  01:49:26  -4.13  -2.83  -185.229027    2             
iter:   9  01:50:39  -4.28  -2.64  -185.165089    2             
iter:  10  01:51:51  -4.03  -2.99  -185.164376    3             
iter:  11  01:53:04  -4.65  -2.82  -185.123114    2             
iter:  12  01:54:17  -5.00  -3.23  -185.121656    2             
iter:  13  01:55:31  -5.47  -3.34  -185.121901    2             
iter:  14  01:56:45  -5.53  -3.27  -185.118546    2             
iter:  15  01:57:58  -5.52  -3.41  -185.125498    2             
iter:  16  01:59:10  -5.94  -3.28  -185.118313    2             
iter:  17  02:00:22  -5.51  -3.55  -185.116859    2             
iter:  18  02:01:34  -5.43  -3.58  -185.118424    2             
iter:  19  02:02:46  -5.89  -3.72  -185.120822    2             
iter:  20  02:03:58  -5.94  -3.62  -185.117249    2             
iter:  21  02:05:11  -6.53  -3.93  -185.117014    2             
iter:  22  02:06:22  -6.45  -4.03  -185.118154    2             
iter:  23  02:07:34  -6.69  -4.16  -185.117355    2             
iter:  24  02:08:46  -7.35  -4.06  -185.117372    2             
iter:  25  02:09:57  -7.03  -4.36  -185.117695    2             
iter:  26  02:11:10  -7.59  -4.34  -185.117421    2             

Converged after 26 iterations.

Dipole moment: (26.861170, 22.452723, -0.304532) |e|*Ang

Energy contributions relative to reference atoms: (reference = -9073466.092496)

Kinetic:       -171.284538
Potential:      +26.383059
External:        +0.000000
XC:             -34.828948
Entropy (-ST):   -2.043444
Local:           -4.365272
--------------------------
Free energy:   -186.139143
Extrapolated:  -185.117421

Fermi level: 0.79533

Showing only first 2 kpts
 Kpt  Band  Eigenvalues  Occupancy
  0   367      0.75395    0.15050
  0   368      0.81189    0.11468
  0   369      0.82734    0.10517
  0   370      0.85756    0.08732

  1   367      0.66423    0.19692
  1   368      0.70025    0.18032
  1   369      0.73066    0.16407
  1   370      0.75588    0.14934



Forces in eV/Ang:
  0 Pd    0.09371    0.51827   -0.41537
  1 Ag    0.10464    0.49498   -0.51294
  2 Pt   -0.23013    0.51268    0.84100
  3 Pd    0.09407    0.03659   -0.07723
  4 Pd    0.10734   -0.37294    0.20805
  5 Pt   -0.12587   -0.29909   -0.08179
  6 Pd   -0.17773   -0.39791   -0.05094
  7 Ag   -0.12735   -0.45610   -0.70192
  8 Pd   -0.24495   -0.31547    0.26882
  9 Ag    0.52153    0.20722    0.41509
 10 Ru    2.21681    1.28630    0.41283
 11 Ru   -1.86592    0.87327   -0.35013
 12 Pd    1.11945   -0.23592    0.01097
 13 Ru   -0.53730   -1.48032   -0.87212
 14 Ag   -0.44001    0.13603    0.28675
 15 Pd    0.18693   -0.58627    0.07544
 16 Ag   -0.18078   -0.38142    0.35744
 17 Pd   -0.36951    0.53407   -0.01990
 18 Ag    0.01566    0.02173    0.00227
 19 Ag   -0.00610    0.01673    0.01976
 20 Pt   -0.00872   -0.00701   -0.01852
 21 Ag    0.00513   -0.00914    0.02087
 22 Ag    0.01426   -0.00434   -0.01779
 23 Ag   -0.00142   -0.00627   -0.00628
 24 Pd    0.01478   -0.01328    0.00707
 25 Pd    0.00580    0.00037    0.02161
 26 Ag    0.00231   -0.00800    0.01915
 27 Pt   -0.01046   -0.00471   -0.02329
 28 Pd    0.03916    0.03872    0.15698
 29 Pd   -0.04271    0.02543    0.06214
 30 Pd    0.01322    0.00739   -0.00467
 31 Ru   -0.03874   -0.03473   -0.00102
 32 Pt   -0.00664    0.00205   -0.00290
 33 Ag    0.00120    0.05420   -0.01306
 34 Pt    0.00612    0.00791   -0.04233
 35 Ru    0.00476    0.01745    0.04959
 36 Pd   -0.01409   -0.00395    0.02435
 37 Ru   -0.04058   -0.00075    0.02904
 38 Pd    0.00407    0.01128    0.00994
 39 Pt    0.03630    0.03786   -0.00660
 40 Pd    0.04300    0.05929   -0.14489
 41 Pd   -0.05972    0.01435    0.04926
 42 Pt   -0.00659   -0.06140   -0.08136
 43 Pd   -0.04628   -0.02891   -0.04866
 44 Ru   -0.00876   -0.02142    0.01282
 45 O    -3.13593   -3.19372   -1.61809
 46 H     3.11758    3.04497    1.62784

System changes: positions 

Initializing position-dependent things.

Density initialized from wave functions
                                             
                                             
                                             
                                             
                                             
                                             
                     H                       
                   O                         
                 Pt      Pd    Ru            
                                             
            Pt    APd    PPd    Ru           
        Pd           Pd                      
              Ru           Pt                
        Pt     Pd    PPd    Pd     Ag        
                                             
                Ag     Ag     Ag             
                                             
           Ag    PAg    APt    Pd            
                                             
            Pd     Ru     Ag     Pd          
       Ag    PRu    PRu    Pt                
                                             
        Pd     Ag     Pt                     
                                             
                                             
                                             
                                             
                                             

Positions:
   0 Pd     0.000000    1.633958   10.000000    ( 0.0000,  0.0000,  0.0000)
   1 Ag     2.830098    1.633958   10.000000    ( 0.0000,  0.0000,  0.0000)
   2 Pt     5.660196    1.633958   10.000000    ( 0.0000,  0.0000,  0.0000)
   3 Pd     1.415049    4.084895   10.000000    ( 0.0000,  0.0000,  0.0000)
   4 Pd     4.245147    4.084895   10.000000    ( 0.0000,  0.0000,  0.0000)
   5 Pt     7.075245    4.084895   10.000000    ( 0.0000,  0.0000,  0.0000)
   6 Pd     2.830098    6.535832   10.000000    ( 0.0000,  0.0000,  0.0000)
   7 Ag     5.660196    6.535832   10.000000    ( 0.0000,  0.0000,  0.0000)
   8 Pd     8.490294    6.535832   10.000000    ( 0.0000,  0.0000,  0.0000)
   9 Ag     0.000000    0.000000   12.310765    ( 0.0000,  0.0000,  0.0000)
  10 Ru     2.830098    0.000000   12.310765    ( 0.0000,  0.0000,  0.0000)
  11 Ru     5.660196    0.000000   12.310765    ( 0.0000,  0.0000,  0.0000)
  12 Pd     1.415049    2.450937   12.310765    ( 0.0000,  0.0000,  0.0000)
  13 Ru     4.245147    2.450937   12.310765    ( 0.0000,  0.0000,  0.0000)
  14 Ag     7.075245    2.450937   12.310765    ( 0.0000,  0.0000,  0.0000)
  15 Pd     2.830098    4.901874   12.310765    ( 0.0000,  0.0000,  0.0000)
  16 Ag     5.660196    4.901874   12.310765    ( 0.0000,  0.0000,  0.0000)
  17 Pd     8.490294    4.901874   12.310765    ( 0.0000,  0.0000,  0.0000)
  18 Ag     1.422082    0.836199   14.686848    ( 0.0000,  0.0000,  0.0000)
  19 Ag     4.228060    0.834095   14.669213    ( 0.0000,  0.0000,  0.0000)
  20 Pt     7.001641    0.832200   14.676712    ( 0.0000,  0.0000,  0.0000)
  21 Ag     2.849641    3.275399   14.698325    ( 0.0000,  0.0000,  0.0000)
  22 Ag     5.607400    3.275747   14.716098    ( 0.0000,  0.0000,  0.0000)
  23 Ag     8.407347    3.278558   14.702106    ( 0.0000,  0.0000,  0.0000)
  24 Pd     4.226927    5.665160   14.784396    ( 0.0000,  0.0000,  0.0000)
  25 Pd     7.022414    5.718264   14.696897    ( 0.0000,  0.0000,  0.0000)
  26 Ag     9.809939    5.688118   14.691148    ( 0.0000,  0.0000,  0.0000)
  27 Pt     0.030707    1.655520   17.054896    ( 0.0000,  0.0000,  0.0000)
  28 Pd     2.864189    1.667945   17.083550    ( 0.0000,  0.0000,  0.0000)
  29 Pd     5.583296    1.668379   17.077210    ( 0.0000,  0.0000,  0.0000)
  30 Pd     1.452160    4.084122   17.054456    ( 0.0000,  0.0000,  0.0000)
  31 Ru     4.286565    4.071447   17.295020    ( 0.0000,  0.0000,  0.0000)
  32 Pt     6.976428    4.089724   17.095642    ( 0.0000,  0.0000,  0.0000)
  33 Ag     2.791851    6.502496   17.071163    ( 0.0000,  0.0000,  0.0000)
  34 Pt     5.617346    6.450181   17.092871    ( 0.0000,  0.0000,  0.0000)
  35 Ru     8.289969    6.445405   17.188261    ( 0.0000,  0.0000,  0.0000)
  36 Pd     0.111230    0.038600   19.432417    ( 0.0000,  0.0000,  0.0000)
  37 Ru     2.909665   -0.062040   19.212238    ( 0.0000,  0.0000,  0.0000)
  38 Pd     5.609026    0.002009   19.432587    ( 0.0000,  0.0000,  0.0000)
  39 Pt     1.435972    2.457840   19.368838    ( 0.0000,  0.0000,  0.0000)
  40 Pd     4.217061    2.426910   19.476553    ( 0.0000,  0.0000,  0.0000)
  41 Pd     7.084624    2.483401   19.415505    ( 0.0000,  0.0000,  0.0000)
  42 Pt     2.811848    4.838536   19.382361    ( 0.0000,  0.0000,  0.0000)
  43 Pd     5.686643    4.890127   19.520706    ( 0.0000,  0.0000,  0.0000)
  44 Ru     8.427567    4.985803   19.204164    ( 0.0000,  0.0000,  0.0000)
  45 O      4.217544    2.432317   21.523389    ( 0.0000,  0.0000,  0.0000)
  46 H      4.853436    3.067816   21.911036    ( 0.0000,  0.0000,  0.0000)

Unit cell:
           periodic     x           y           z      points  spacing
  1. axis:    yes    8.379498    0.000000    0.000000    35     0.2073
  2. axis:    yes    4.189749    7.256858    0.000000    35     0.2073
  3. axis:    no     0.000000    0.000000   29.243062   135     0.2166

  Lengths:   8.379498   8.379498  29.243062
  Angles:   90.000000  90.000000  60.000000

Effective grid spacing dv^(1/3) = 0.2207

                     log10-error:    total        iterations:
           time      wfs    density  energy       fermi  poisson
iter:   1  02:12:55  -2.59   +inf  -185.886691    3             
iter:   2  02:14:08  -2.86  -2.43  -186.556290    4             
iter:   3  02:15:22  -2.90  -2.18  -189.823181    4             
iter:   4  02:16:33  -3.24  -1.86  -185.450196    3             
iter:   5  02:17:45  -3.65  -2.73  -185.619938    3             
iter:   6  02:18:57  -4.13  -2.40  -185.283333    3             
iter:   7  02:20:08  -4.98  -3.25  -185.287050    2             
iter:   8  02:21:20  -5.22  -3.29  -185.280439    2             
iter:   9  02:22:31  -4.54  -3.36  -185.273265    3             
iter:  10  02:23:43  -5.13  -3.54  -185.275528    2             
iter:  11  02:24:55  -5.64  -3.46  -185.276627    2             
iter:  12  02:26:07  -6.00  -3.29  -185.272095    2             
iter:  13  02:27:20  -6.02  -3.68  -185.273680    2             
iter:  14  02:28:34  -6.12  -3.69  -185.272022    2             
iter:  15  02:29:47  -6.41  -3.73  -185.272234    2             
iter:  16  02:30:59  -6.56  -3.73  -185.272124    2             
iter:  17  02:32:11  -6.15  -3.88  -185.272447    2             
iter:  18  02:33:23  -6.63  -4.24  -185.272123    2             
iter:  19  02:34:34  -6.80  -3.94  -185.272627    2             
iter:  20  02:35:46  -7.40  -4.10  -185.272329    2             

Converged after 20 iterations.

Dipole moment: (25.563782, 22.006143, -0.299083) |e|*Ang

Energy contributions relative to reference atoms: (reference = -9073466.092496)

Kinetic:       -175.502408
Potential:      +29.524821
External:        +0.000000
XC:             -33.812430
Entropy (-ST):   -2.042493
Local:           -4.461065
--------------------------
Free energy:   -186.293575
Extrapolated:  -185.272329

Fermi level: 0.79623

Showing only first 2 kpts
 Kpt  Band  Eigenvalues  Occupancy
  0   367      0.75610    0.14975
  0   368      0.81225    0.11501
  0   369      0.82937    0.10448
  0   370      0.85970    0.08661

  1   367      0.66388    0.19744
  1   368      0.69988    0.18096
  1   369      0.73138    0.16417
  1   370      0.75603    0.14980



Forces in eV/Ang:
  0 Pd    0.10060    0.51228   -0.42676
  1 Ag    0.10457    0.49096   -0.52108
  2 Pt   -0.23665    0.51132    0.82796
  3 Pd    0.09762    0.03337   -0.08796
  4 Pd    0.10750   -0.37273    0.19939
  5 Pt   -0.13001   -0.29330   -0.09575
  6 Pd   -0.17342   -0.39734   -0.06034
  7 Ag   -0.12584   -0.45285   -0.71218
  8 Pd   -0.25112   -0.30914    0.26300
  9 Ag    0.52222    0.20777    0.42640
 10 Ru    2.21768    1.28828    0.41025
 11 Ru   -1.86912    0.87620   -0.34923
 12 Pd    1.12650   -0.23895    0.01101
 13 Ru   -0.54043   -1.48521   -0.87323
 14 Ag   -0.44348    0.13637    0.29103
 15 Pd    0.18553   -0.58815    0.07575
 16 Ag   -0.18409   -0.38144    0.34699
 17 Pd   -0.36822    0.53804   -0.01565
 18 Ag   -0.01507    0.00140   -0.01265
 19 Ag   -0.01157    0.00479    0.02843
 20 Pt    0.01945   -0.03749   -0.02320
 21 Ag    0.00676    0.00273    0.02289
 22 Ag    0.01469   -0.01247    0.00352
 23 Ag   -0.00701   -0.00136    0.00704
 24 Pd    0.01517    0.02185    0.01132
 25 Pd    0.03392    0.02913    0.03901
 26 Ag   -0.01196   -0.00912    0.02151
 27 Pt    0.00206    0.02856   -0.00085
 28 Pd    0.04587    0.00735    0.14609
 29 Pd   -0.07056    0.00668    0.00345
 30 Pd    0.02920   -0.02652   -0.00700
 31 Ru   -0.02797    0.01491   -0.12701
 32 Pt   -0.00996   -0.04679   -0.01518
 33 Ag   -0.00106    0.05561    0.00033
 34 Pt    0.01140    0.01806   -0.01932
 35 Ru    0.03069    0.04406    0.04725
 36 Pd    0.03894    0.00413    0.01256
 37 Ru   -0.12191   -0.02851    0.04285
 38 Pd    0.02312   -0.02795    0.02156
 39 Pt   -0.11925   -0.02691   -0.00016
 40 Pd    0.15195   -0.03205    0.38516
 41 Pd    0.05587   -0.00721   -0.00322
 42 Pt   -0.10278    0.05333   -0.10642
 43 Pd   -0.00719    0.09475   -0.12171
 44 Ru   -0.01841    0.00260    0.02280
 45 O    -0.36790   -0.43306   -0.31776
 46 H     0.33300    0.27122   -0.04622

System changes: positions 

Initializing position-dependent things.

Density initialized from wave functions
                                             
                                             
                                             
                                             
                                             
                                             
                     H                       
                   O                         
                 Pt      Pd    Ru            
            Pt    APd    PPd    Ru           
                                             
        Pd    Ru     Pd    Pt                
                                             
        Pt     Pd    PPd    Pd     Ag        
                Ag     Ag     Ag             
                                             
           Ag    PAg    APt    Pd            
                                             
            Pd     Ru     Ag     Pd          
       Ag     Ru     Ru                      
             Pd     Pd     Pt                
        Pd     Ag     Pt                     
                                             
                                             
                                             
                                             
                                             

Positions:
   0 Pd     0.000000    1.633958   10.000000    ( 0.0000,  0.0000,  0.0000)
   1 Ag     2.830098    1.633958   10.000000    ( 0.0000,  0.0000,  0.0000)
   2 Pt     5.660196    1.633958   10.000000    ( 0.0000,  0.0000,  0.0000)
   3 Pd     1.415049    4.084895   10.000000    ( 0.0000,  0.0000,  0.0000)
   4 Pd     4.245147    4.084895   10.000000    ( 0.0000,  0.0000,  0.0000)
   5 Pt     7.075245    4.084895   10.000000    ( 0.0000,  0.0000,  0.0000)
   6 Pd     2.830098    6.535832   10.000000    ( 0.0000,  0.0000,  0.0000)
   7 Ag     5.660196    6.535832   10.000000    ( 0.0000,  0.0000,  0.0000)
   8 Pd     8.490294    6.535832   10.000000    ( 0.0000,  0.0000,  0.0000)
   9 Ag     0.000000    0.000000   12.310765    ( 0.0000,  0.0000,  0.0000)
  10 Ru     2.830098    0.000000   12.310765    ( 0.0000,  0.0000,  0.0000)
  11 Ru     5.660196    0.000000   12.310765    ( 0.0000,  0.0000,  0.0000)
  12 Pd     1.415049    2.450937   12.310765    ( 0.0000,  0.0000,  0.0000)
  13 Ru     4.245147    2.450937   12.310765    ( 0.0000,  0.0000,  0.0000)
  14 Ag     7.075245    2.450937   12.310765    ( 0.0000,  0.0000,  0.0000)
  15 Pd     2.830098    4.901874   12.310765    ( 0.0000,  0.0000,  0.0000)
  16 Ag     5.660196    4.901874   12.310765    ( 0.0000,  0.0000,  0.0000)
  17 Pd     8.490294    4.901874   12.310765    ( 0.0000,  0.0000,  0.0000)
  18 Ag     1.417928    0.835800   14.684322    ( 0.0000,  0.0000,  0.0000)
  19 Ag     4.226072    0.834819   14.674477    ( 0.0000,  0.0000,  0.0000)
  20 Pt     7.006280    0.824125   14.672123    ( 0.0000,  0.0000,  0.0000)
  21 Ag     2.851135    3.276859   14.703028    ( 0.0000,  0.0000,  0.0000)
  22 Ag     5.610227    3.273468   14.717608    ( 0.0000,  0.0000,  0.0000)
  23 Ag     8.405629    3.278373   14.704279    ( 0.0000,  0.0000,  0.0000)
  24 Pd     4.229453    5.669891   14.787305    ( 0.0000,  0.0000,  0.0000)
  25 Pd     7.028984    5.723921   14.704808    ( 0.0000,  0.0000,  0.0000)
  26 Ag     9.807936    5.686303   14.695637    ( 0.0000,  0.0000,  0.0000)
  27 Pt     0.032095    1.661707   17.056814    ( 0.0000,  0.0000,  0.0000)
  28 Pd     2.870846    1.667801   17.110008    ( 0.0000,  0.0000,  0.0000)
  29 Pd     5.570780    1.669038   17.075656    ( 0.0000,  0.0000,  0.0000)
  30 Pd     1.456859    4.079114   17.053830    ( 0.0000,  0.0000,  0.0000)
  31 Ru     4.281432    4.077232   17.266614    ( 0.0000,  0.0000,  0.0000)
  32 Pt     6.975988    4.080447   17.092914    ( 0.0000,  0.0000,  0.0000)
  33 Ag     2.791813    6.512487   17.071974    ( 0.0000,  0.0000,  0.0000)
  34 Pt     5.619534    6.454387   17.091301    ( 0.0000,  0.0000,  0.0000)
  35 Ru     8.296232    6.452364   17.198453    ( 0.0000,  0.0000,  0.0000)
  36 Pd     0.119594    0.039647   19.434653    ( 0.0000,  0.0000,  0.0000)
  37 Ru     2.882396   -0.071576   19.218097    ( 0.0000,  0.0000,  0.0000)
  38 Pd     5.616114   -0.004963   19.436724    ( 0.0000,  0.0000,  0.0000)
  39 Pt     1.405163    2.451591   19.366882    ( 0.0000,  0.0000,  0.0000)
  40 Pd     4.252108    2.421993   19.560752    ( 0.0000,  0.0000,  0.0000)
  41 Pd     7.097250    2.482980   19.417188    ( 0.0000,  0.0000,  0.0000)
  42 Pt     2.791068    4.852691   19.363152    ( 0.0000,  0.0000,  0.0000)
  43 Pd     5.686246    4.908723   19.501135    ( 0.0000,  0.0000,  0.0000)
  44 Ru     8.422931    4.986027   19.207742    ( 0.0000,  0.0000,  0.0000)
  45 O      4.200246    2.404253   21.492633    ( 0.0000,  0.0000,  0.0000)
  46 H      4.860655    3.063276   21.866206    ( 0.0000,  0.0000,  0.0000)

Unit cell:
           periodic     x           y           z      points  spacing
  1. axis:    yes    8.379498    0.000000    0.000000    35     0.2073
  2. axis:    yes    4.189749    7.256858    0.000000    35     0.2073
  3. axis:    no     0.000000    0.000000   29.243062   135     0.2166

  Lengths:   8.379498   8.379498  29.243062
  Angles:   90.000000  90.000000  60.000000

Effective grid spacing dv^(1/3) = 0.2207

                     log10-error:    total        iterations:
           time      wfs    density  energy       fermi  poisson
iter:   1  02:37:34  -2.19   +inf  -185.552261    3             
iter:   2  02:38:48  -2.79  -2.46  -190.041040    3             
iter:   3  02:40:03  -3.04  -1.86  -185.714377    3             
iter:   4  02:41:18  -3.95  -2.36  -185.301331    3             
iter:   5  02:42:33  -4.35  -2.86  -185.266388    3             
iter:   6  02:43:49  -4.49  -3.01  -185.272917    2             
iter:   7  02:45:03  -4.31  -2.94  -185.262363    2             
iter:   8  02:46:19  -4.50  -2.97  -185.246983    3             
iter:   9  02:47:34  -4.91  -3.30  -185.246697    2             
iter:  10  02:48:50  -5.19  -3.40  -185.245353    2             
iter:  11  02:50:07  -5.48  -3.56  -185.244266    2             
iter:  12  02:51:22  -5.80  -3.40  -185.245840    2             
iter:  13  02:52:38  -6.00  -3.49  -185.246019    2             
iter:  14  02:53:54  -5.79  -3.61  -185.242752    2             
iter:  15  02:55:09  -6.19  -3.80  -185.243643    2             
iter:  16  02:56:24  -6.26  -3.93  -185.243431    2             
iter:  17  02:57:41  -6.49  -4.11  -185.243265    2             
iter:  18  02:58:56  -6.90  -3.96  -185.243090    2             
iter:  19  03:00:10  -6.54  -4.21  -185.244392    2             
iter:  20  03:01:25  -6.74  -4.02  -185.243378    2             
iter:  21  03:02:40  -7.09  -4.08  -185.243514    2             
iter:  22  03:03:56  -7.37  -4.37  -185.243523    2             
iter:  23  03:05:14  -7.48  -4.48  -185.243636    2             

Converged after 23 iterations.

Dipole moment: (28.088429, 22.859866, -0.242775) |e|*Ang

Energy contributions relative to reference atoms: (reference = -9073466.092496)

Kinetic:       -173.835691
Potential:      +27.844217
External:        +0.000000
XC:             -33.837229
Entropy (-ST):   -2.041793
Local:           -4.394036
--------------------------
Free energy:   -186.264533
Extrapolated:  -185.243636

Fermi level: 0.82569

Showing only first 2 kpts
 Kpt  Band  Eigenvalues  Occupancy
  0   367      0.78265    0.15149
  0   368      0.84326    0.11405
  0   369      0.85696    0.10562
  0   370      0.88517    0.08888

  1   367      0.69731    0.19577
  1   368      0.73170    0.17977
  1   369      0.76070    0.16425
  1   370      0.78733    0.14869



Forces in eV/Ang:
  0 Pd    0.09852    0.51193   -0.41845
  1 Ag    0.10503    0.49167   -0.51554
  2 Pt   -0.23660    0.51211    0.83850
  3 Pd    0.09672    0.03351   -0.08056
  4 Pd    0.10871   -0.37327    0.20562
  5 Pt   -0.13169   -0.29370   -0.08776
  6 Pd   -0.17396   -0.39740   -0.05240
  7 Ag   -0.12521   -0.45409   -0.70728
  8 Pd   -0.25190   -0.30975    0.26758
  9 Ag    0.52708    0.20221    0.40688
 10 Ru    2.22579    1.28944    0.42319
 11 Ru   -1.87738    0.87103   -0.33294
 12 Pd    1.12506   -0.23512    0.01882
 13 Ru   -0.54024   -1.48933   -0.85944
 14 Ag   -0.44126    0.13500    0.29342
 15 Pd    0.18438   -0.58627    0.08828
 16 Ag   -0.17503   -0.37608    0.37245
 17 Pd   -0.36948    0.54063   -0.00696
 18 Ag    0.04927    0.03913    0.02352
 19 Ag    0.00206    0.02765    0.00909
 20 Pt   -0.03966    0.02368   -0.01168
 21 Ag    0.00642   -0.02132    0.01686
 22 Ag    0.00925    0.00315   -0.03222
 23 Ag    0.00498   -0.00996   -0.01297
 24 Pd    0.01319   -0.04669    0.00051
 25 Pd   -0.02364   -0.02468    0.00472
 26 Ag    0.01937   -0.00151    0.01046
 27 Pt   -0.01857   -0.03601   -0.05360
 28 Pd    0.00086    0.05876    0.11317
 29 Pd    0.00605    0.04617    0.11108
 30 Pd   -0.01594    0.04019   -0.01457
 31 Ru   -0.04631   -0.05942    0.08407
 32 Pt    0.00165    0.06546    0.00874
 33 Ag    0.00609    0.04409   -0.03261
 34 Pt    0.01514    0.00282   -0.06743
 35 Ru   -0.04123   -0.02347    0.05713
 36 Pd   -0.06453    0.00292    0.02091
 37 Ru    0.06192    0.03285    0.03337
 38 Pd   -0.03384    0.03934    0.01557
 39 Pt    0.19376    0.07705    0.03944
 40 Pd   -0.06076    0.05280   -1.25581
 41 Pd   -0.13320    0.01870    0.03899
 42 Pt    0.06197   -0.14347   -0.05564
 43 Pd   -0.06230   -0.11800   -0.05182
 44 Ru   -0.00225   -0.01647   -0.01592
 45 O     0.28911    0.31691    1.41284
 46 H    -0.41334   -0.47009   -0.31792

System changes: positions 

Initializing position-dependent things.

Density initialized from wave functions
                                             
                                             
                                             
                                             
                                             
                                             
                     H                       
                   O                         
                 Pt      Pd    Ru            
                                             
            Pt    APd    PPd    Ru           
        Pd           Pd    Pt                
              Ru                             
        Pt     Pd    PPd    Pd     Ag        
                                             
                Ag     Ag     Ag             
                                             
           Ag    PAg    APt    Pd            
                                             
            Pd     Ru     Ag     Pd          
       Ag    PRu    PRu    Pt                
                                             
        Pd     Ag     Pt                     
                                             
                                             
                                             
                                             
                                             

Positions:
   0 Pd     0.000000    1.633958   10.000000    ( 0.0000,  0.0000,  0.0000)
   1 Ag     2.830098    1.633958   10.000000    ( 0.0000,  0.0000,  0.0000)
   2 Pt     5.660196    1.633958   10.000000    ( 0.0000,  0.0000,  0.0000)
   3 Pd     1.415049    4.084895   10.000000    ( 0.0000,  0.0000,  0.0000)
   4 Pd     4.245147    4.084895   10.000000    ( 0.0000,  0.0000,  0.0000)
   5 Pt     7.075245    4.084895   10.000000    ( 0.0000,  0.0000,  0.0000)
   6 Pd     2.830098    6.535832   10.000000    ( 0.0000,  0.0000,  0.0000)
   7 Ag     5.660196    6.535832   10.000000    ( 0.0000,  0.0000,  0.0000)
   8 Pd     8.490294    6.535832   10.000000    ( 0.0000,  0.0000,  0.0000)
   9 Ag     0.000000    0.000000   12.310765    ( 0.0000,  0.0000,  0.0000)
  10 Ru     2.830098    0.000000   12.310765    ( 0.0000,  0.0000,  0.0000)
  11 Ru     5.660196    0.000000   12.310765    ( 0.0000,  0.0000,  0.0000)
  12 Pd     1.415049    2.450937   12.310765    ( 0.0000,  0.0000,  0.0000)
  13 Ru     4.245147    2.450937   12.310765    ( 0.0000,  0.0000,  0.0000)
  14 Ag     7.075245    2.450937   12.310765    ( 0.0000,  0.0000,  0.0000)
  15 Pd     2.830098    4.901874   12.310765    ( 0.0000,  0.0000,  0.0000)
  16 Ag     5.660196    4.901874   12.310765    ( 0.0000,  0.0000,  0.0000)
  17 Pd     8.490294    4.901874   12.310765    ( 0.0000,  0.0000,  0.0000)
  18 Ag     1.420447    0.836042   14.685854    ( 0.0000,  0.0000,  0.0000)
  19 Ag     4.227278    0.834380   14.671285    ( 0.0000,  0.0000,  0.0000)
  20 Pt     7.003467    0.829021   14.674905    ( 0.0000,  0.0000,  0.0000)
  21 Ag     2.850229    3.275974   14.700177    ( 0.0000,  0.0000,  0.0000)
  22 Ag     5.608513    3.274850   14.716692    ( 0.0000,  0.0000,  0.0000)
  23 Ag     8.406670    3.278485   14.702961    ( 0.0000,  0.0000,  0.0000)
  24 Pd     4.227922    5.667023   14.785541    ( 0.0000,  0.0000,  0.0000)
  25 Pd     7.025001    5.720491   14.700012    ( 0.0000,  0.0000,  0.0000)
  26 Ag     9.809150    5.687403   14.692915    ( 0.0000,  0.0000,  0.0000)
  27 Pt     0.031253    1.657956   17.055651    ( 0.0000,  0.0000,  0.0000)
  28 Pd     2.866810    1.667888   17.093966    ( 0.0000,  0.0000,  0.0000)
  29 Pd     5.578368    1.668638   17.076598    ( 0.0000,  0.0000,  0.0000)
  30 Pd     1.454010    4.082150   17.054210    ( 0.0000,  0.0000,  0.0000)
  31 Ru     4.284544    4.073724   17.283836    ( 0.0000,  0.0000,  0.0000)
  32 Pt     6.976255    4.086072   17.094568    ( 0.0000,  0.0000,  0.0000)
  33 Ag     2.791836    6.506429   17.071482    ( 0.0000,  0.0000,  0.0000)
  34 Pt     5.618207    6.451837   17.092253    ( 0.0000,  0.0000,  0.0000)
  35 Ru     8.292434    6.448145   17.192273    ( 0.0000,  0.0000,  0.0000)
  36 Pd     0.114523    0.039012   19.433297    ( 0.0000,  0.0000,  0.0000)
  37 Ru     2.898929   -0.065794   19.214544    ( 0.0000,  0.0000,  0.0000)
  38 Pd     5.611816   -0.000736   19.434216    ( 0.0000,  0.0000,  0.0000)
  39 Pt     1.423843    2.455380   19.368068    ( 0.0000,  0.0000,  0.0000)
  40 Pd     4.230859    2.424974   19.509701    ( 0.0000,  0.0000,  0.0000)
  41 Pd     7.089595    2.483235   19.416168    ( 0.0000,  0.0000,  0.0000)
  42 Pt     2.803667    4.844108   19.374799    ( 0.0000,  0.0000,  0.0000)
  43 Pd     5.686487    4.897448   19.513001    ( 0.0000,  0.0000,  0.0000)
  44 Ru     8.425742    4.985891   19.205573    ( 0.0000,  0.0000,  0.0000)
  45 O      4.210734    2.421269   21.511281    ( 0.0000,  0.0000,  0.0000)
  46 H      4.856278    3.066029   21.893387    ( 0.0000,  0.0000,  0.0000)

Unit cell:
           periodic     x           y           z      points  spacing
  1. axis:    yes    8.379498    0.000000    0.000000    35     0.2073
  2. axis:    yes    4.189749    7.256858    0.000000    35     0.2073
  3. axis:    no     0.000000    0.000000   29.243062   135     0.2166

  Lengths:   8.379498   8.379498  29.243062
  Angles:   90.000000  90.000000  60.000000

Effective grid spacing dv^(1/3) = 0.2207

                     log10-error:    total        iterations:
           time      wfs    density  energy       fermi  poisson
iter:   1  03:07:02  -2.60   +inf  -185.546842    3             
iter:   2  03:08:18  -2.71  -2.51  -194.519818    4             
iter:   3  03:09:34  -2.94  -1.73  -185.455019    3             
iter:   4  03:10:50  -4.18  -2.68  -185.318630    3             
iter:   5  03:12:05  -4.51  -3.03  -185.302167    3             
iter:   6  03:13:20  -4.89  -3.10  -185.299432    3             
iter:   7  03:14:37  -5.11  -3.22  -185.302503    2             
iter:   8  03:15:54  -4.58  -3.25  -185.293845    2             
iter:   9  03:17:10  -5.10  -3.51  -185.301925    2             
iter:  10  03:18:26  -5.82  -3.22  -185.295414    2             
iter:  11  03:19:41  -5.61  -3.50  -185.293242    2             
iter:  12  03:20:56  -5.98  -3.47  -185.294274    2             
iter:  13  03:22:12  -6.14  -3.66  -185.293870    2             
iter:  14  03:23:28  -6.44  -3.83  -185.293186    2             
iter:  15  03:24:44  -6.50  -3.88  -185.293048    2             
iter:  16  03:26:00  -6.66  -4.03  -185.293566    2             
iter:  17  03:27:16  -6.64  -4.11  -185.293095    2             
iter:  18  03:28:32  -6.92  -4.09  -185.293278    2             
iter:  19  03:29:47  -7.09  -4.30  -185.293327    2             
iter:  20  03:31:03  -7.29  -4.34  -185.293134    2             
iter:  21  03:32:18  -7.21  -4.32  -185.293104    2             
iter:  22  03:33:35  -7.36  -4.47  -185.293382    2             
iter:  23  03:34:51  -7.53  -4.35  -185.293136    2             

Converged after 23 iterations.

Dipole moment: (26.557440, 22.342162, -0.278508) |e|*Ang

Energy contributions relative to reference atoms: (reference = -9073466.092496)

Kinetic:       -175.515451
Potential:      +29.399442
External:        +0.000000
XC:             -33.765856
Entropy (-ST):   -2.042351
Local:           -4.390095
--------------------------
Free energy:   -186.314311
Extrapolated:  -185.293136

Fermi level: 0.80719

Showing only first 2 kpts
 Kpt  Band  Eigenvalues  Occupancy
  0   367      0.76572    0.15055
  0   368      0.82379    0.11465
  0   369      0.83963    0.10490
  0   370      0.86917    0.08746

  1   367      0.67633    0.19682
  1   368      0.71168    0.18054
  1   369      0.74221    0.16424
  1   370      0.76763    0.14941



Forces in eV/Ang:
  0 Pd    0.09845    0.51369   -0.42213
  1 Ag    0.10474    0.49207   -0.51817
  2 Pt   -0.23510    0.51247    0.83429
  3 Pd    0.09643    0.03390   -0.08276
  4 Pd    0.10832   -0.37297    0.20306
  5 Pt   -0.13020   -0.29473   -0.08927
  6 Pd   -0.17443   -0.39743   -0.05660
  7 Ag   -0.12591   -0.45420   -0.70937
  8 Pd   -0.25062   -0.31060    0.26569
  9 Ag    0.52379    0.20630    0.41781
 10 Ru    2.22094    1.28874    0.41362
 11 Ru   -1.87191    0.87468   -0.34514
 12 Pd    1.12593   -0.23591    0.01378
 13 Ru   -0.54029   -1.48409   -0.86914
 14 Ag   -0.44272    0.13675    0.28998
 15 Pd    0.18570   -0.58940    0.07912
 16 Ag   -0.18087   -0.38156    0.35504
 17 Pd   -0.36868    0.53687   -0.01295
 18 Ag    0.01137    0.01781    0.00250
 19 Ag   -0.00473    0.01269    0.02156
 20 Pt   -0.00716   -0.00945   -0.01599
 21 Ag    0.00679   -0.00711    0.01880
 22 Ag    0.01228   -0.00619   -0.01207
 23 Ag   -0.00198   -0.00369   -0.00342
 24 Pd    0.01164   -0.00797    0.00533
 25 Pd    0.00955    0.00304    0.02122
 26 Ag   -0.00029   -0.00607    0.01676
 27 Pt   -0.00355    0.00158   -0.02393
 28 Pd    0.02458    0.02834    0.12341
 29 Pd   -0.03248    0.02048    0.05155
 30 Pd    0.00858    0.00135   -0.00510
 31 Ru   -0.03728   -0.02670   -0.01480
 32 Pt   -0.00595    0.00339   -0.00372
 33 Ag    0.00149    0.04733   -0.01281
 34 Pt    0.01540    0.01100   -0.03568
 35 Ru    0.00034    0.01899    0.05286
 36 Pd   -0.01330   -0.00766    0.02315
 37 Ru   -0.04462   -0.01475    0.02531
 38 Pd    0.00192    0.00655    0.02164
 39 Pt    0.01515    0.02871    0.00480
 40 Pd    0.04940    0.04045   -0.22344
 41 Pd   -0.04781    0.01723    0.03641
 42 Pt   -0.00523   -0.03889   -0.07027
 43 Pd   -0.04147   -0.03187   -0.05360
 44 Ru   -0.01618   -0.01084    0.01481
 45 O    -0.08541   -0.14769    0.11992
 46 H     0.03582   -0.02985   -0.20178

System changes: positions 

Initializing position-dependent things.

Density initialized from wave functions
                                             
                                             
                                             
                                             
                                             
                                             
                     H                       
                   O                         
                 Pt      Pd    Ru            
            Pt    APd    PPd    Ru           
                                             
        Pd    Ru     Pd    Pt                
                                             
        Pt     Pd    PPd    Pd     Ag        
                Ag     Ag     Ag             
                                             
           Ag    PAg    APt    Pd            
                                             
            Pd     Ru     Ag     Pd          
       Ag     Ru     Ru                      
             Pd     Pd     Pt                
        Pd     Ag     Pt                     
                                             
                                             
                                             
                                             
                                             

Positions:
   0 Pd     0.000000    1.633958   10.000000    ( 0.0000,  0.0000,  0.0000)
   1 Ag     2.830098    1.633958   10.000000    ( 0.0000,  0.0000,  0.0000)
   2 Pt     5.660196    1.633958   10.000000    ( 0.0000,  0.0000,  0.0000)
   3 Pd     1.415049    4.084895   10.000000    ( 0.0000,  0.0000,  0.0000)
   4 Pd     4.245147    4.084895   10.000000    ( 0.0000,  0.0000,  0.0000)
   5 Pt     7.075245    4.084895   10.000000    ( 0.0000,  0.0000,  0.0000)
   6 Pd     2.830098    6.535832   10.000000    ( 0.0000,  0.0000,  0.0000)
   7 Ag     5.660196    6.535832   10.000000    ( 0.0000,  0.0000,  0.0000)
   8 Pd     8.490294    6.535832   10.000000    ( 0.0000,  0.0000,  0.0000)
   9 Ag     0.000000    0.000000   12.310765    ( 0.0000,  0.0000,  0.0000)
  10 Ru     2.830098    0.000000   12.310765    ( 0.0000,  0.0000,  0.0000)
  11 Ru     5.660196    0.000000   12.310765    ( 0.0000,  0.0000,  0.0000)
  12 Pd     1.415049    2.450937   12.310765    ( 0.0000,  0.0000,  0.0000)
  13 Ru     4.245147    2.450937   12.310765    ( 0.0000,  0.0000,  0.0000)
  14 Ag     7.075245    2.450937   12.310765    ( 0.0000,  0.0000,  0.0000)
  15 Pd     2.830098    4.901874   12.310765    ( 0.0000,  0.0000,  0.0000)
  16 Ag     5.660196    4.901874   12.310765    ( 0.0000,  0.0000,  0.0000)
  17 Pd     8.490294    4.901874   12.310765    ( 0.0000,  0.0000,  0.0000)
  18 Ag     1.420756    0.837759   14.685612    ( 0.0000,  0.0000,  0.0000)
  19 Ag     4.226415    0.835810   14.674506    ( 0.0000,  0.0000,  0.0000)
  20 Pt     7.003671    0.826453   14.672375    ( 0.0000,  0.0000,  0.0000)
  21 Ag     2.851220    3.275564   14.703021    ( 0.0000,  0.0000,  0.0000)
  22 Ag     5.610317    3.273777   14.715783    ( 0.0000,  0.0000,  0.0000)
  23 Ag     8.406121    3.278075   14.703063    ( 0.0000,  0.0000,  0.0000)
  24 Pd     4.229589    5.667150   14.786677    ( 0.0000,  0.0000,  0.0000)
  25 Pd     7.027258    5.721906   14.703733    ( 0.0000,  0.0000,  0.0000)
  26 Ag     9.808739    5.686428   14.695513    ( 0.0000,  0.0000,  0.0000)
  27 Pt     0.031194    1.659346   17.053652    ( 0.0000,  0.0000,  0.0000)
  28 Pd     2.870547    1.670701   17.111666    ( 0.0000,  0.0000,  0.0000)
  29 Pd     5.572646    1.670836   17.081482    ( 0.0000,  0.0000,  0.0000)
  30 Pd     1.455772    4.081314   17.053590    ( 0.0000,  0.0000,  0.0000)
  31 Ru     4.279747    4.072224   17.276655    ( 0.0000,  0.0000,  0.0000)
  32 Pt     6.975610    4.084598   17.093662    ( 0.0000,  0.0000,  0.0000)
  33 Ag     2.791986    6.513185   17.070358    ( 0.0000,  0.0000,  0.0000)
  34 Pt     5.620205    6.453804   17.088377    ( 0.0000,  0.0000,  0.0000)
  35 Ru     8.293703    6.451392   17.199690    ( 0.0000,  0.0000,  0.0000)
  36 Pd     0.114827    0.038443   19.436090    ( 0.0000,  0.0000,  0.0000)
  37 Ru     2.888932   -0.069290   19.218192    ( 0.0000,  0.0000,  0.0000)
  38 Pd     5.613480   -0.001479   19.437230    ( 0.0000,  0.0000,  0.0000)
  39 Pt     1.419122    2.457054   19.368114    ( 0.0000,  0.0000,  0.0000)
  40 Pd     4.242926    2.428182   19.503664    ( 0.0000,  0.0000,  0.0000)
  41 Pd     7.087242    2.484942   19.420285    ( 0.0000,  0.0000,  0.0000)
  42 Pt     2.799046    4.843029   19.363921    ( 0.0000,  0.0000,  0.0000)
  43 Pd     5.682211    4.897838   19.503838    ( 0.0000,  0.0000,  0.0000)
  44 Ru     8.423151    4.984820   19.207756    ( 0.0000,  0.0000,  0.0000)
  45 O      4.200371    2.402508   21.518493    ( 0.0000,  0.0000,  0.0000)
  46 H      4.859507    3.060266   21.862893    ( 0.0000,  0.0000,  0.0000)

Unit cell:
           periodic     x           y           z      points  spacing
  1. axis:    yes    8.379498    0.000000    0.000000    35     0.2073
  2. axis:    yes    4.189749    7.256858    0.000000    35     0.2073
  3. axis:    no     0.000000    0.000000   29.243062   135     0.2166

  Lengths:   8.379498   8.379498  29.243062
  Angles:   90.000000  90.000000  60.000000

Effective grid spacing dv^(1/3) = 0.2207

                     log10-error:    total        iterations:
           time      wfs    density  energy       fermi  poisson
iter:   1  03:36:39  -3.13   +inf  -185.637529    3             
iter:   2  03:37:54  -2.53  -2.43  -201.025836    4             
iter:   3  03:39:10  -2.79  -1.64  -185.414714    3             
iter:   4  03:40:26  -4.10  -2.82  -185.334494    3             
iter:   5  03:41:41  -4.58  -3.01  -185.309166    3             
iter:   6  03:42:56  -5.39  -3.37  -185.310077    2             
iter:   7  03:44:11  -5.67  -3.49  -185.311158    2             
iter:   8  03:45:27  -5.81  -3.51  -185.309087    2             
iter:   9  03:46:44  -5.81  -3.72  -185.312486    2             
iter:  10  03:47:59  -6.22  -3.40  -185.308361    2             
iter:  11  03:49:16  -5.99  -3.70  -185.310555    2             
iter:  12  03:50:33  -5.88  -3.61  -185.307948    2             
iter:  13  03:51:50  -6.49  -4.04  -185.308892    2             
iter:  14  03:53:05  -6.98  -4.01  -185.308109    2             
iter:  15  03:54:20  -7.28  -4.10  -185.308167    2             
iter:  16  03:55:35  -6.58  -4.21  -185.308497    2             
iter:  17  03:56:51  -7.05  -4.42  -185.308286    2             
iter:  18  03:58:07  -7.65  -4.23  -185.308266    2             

Converged after 18 iterations.

Dipole moment: (27.181593, 22.739687, -0.300841) |e|*Ang

Energy contributions relative to reference atoms: (reference = -9073466.092496)

Kinetic:       -175.239556
Potential:      +29.089332
External:        +0.000000
XC:             -33.740264
Entropy (-ST):   -2.041302
Local:           -4.397127
--------------------------
Free energy:   -186.328917
Extrapolated:  -185.308266

Fermi level: 0.79780

Showing only first 2 kpts
 Kpt  Band  Eigenvalues  Occupancy
  0   367      0.75706    0.15011
  0   368      0.81547    0.11399
  0   369      0.83041    0.10480
  0   370      0.85902    0.08789

  1   367      0.66614    0.19715
  1   368      0.70278    0.18029
  1   369      0.73344    0.16389
  1   370      0.75993    0.14839



Forces in eV/Ang:
  0 Pd    0.09976    0.51327   -0.42079
  1 Ag    0.10453    0.49104   -0.51807
  2 Pt   -0.23575    0.51122    0.83506
  3 Pd    0.09646    0.03312   -0.08410
  4 Pd    0.10766   -0.37319    0.20247
  5 Pt   -0.12934   -0.29376   -0.09199
  6 Pd   -0.17381   -0.39687   -0.05429
  7 Ag   -0.12500   -0.45288   -0.70909
  8 Pd   -0.25184   -0.31032    0.26440
  9 Ag    0.52655    0.20542    0.41125
 10 Ru    2.22127    1.28842    0.41462
 11 Ru   -1.87351    0.87179   -0.34158
 12 Pd    1.12515   -0.23457    0.01188
 13 Ru   -0.54145   -1.48684   -0.86756
 14 Ag   -0.44046    0.13549    0.28477
 15 Pd    0.18395   -0.58768    0.08686
 16 Ag   -0.17678   -0.37695    0.36387
 17 Pd   -0.36826    0.53879   -0.01146
 18 Ag    0.01870    0.01595    0.01424
 19 Ag    0.00046    0.01114    0.02296
 20 Pt   -0.01019    0.00800   -0.00631
 21 Ag    0.00454   -0.00643    0.01603
 22 Ag    0.00837   -0.00172   -0.00961
 23 Ag    0.00187   -0.00367   -0.00763
 24 Pd    0.00377   -0.01550   -0.00538
 25 Pd   -0.00506   -0.01020    0.00221
 26 Ag    0.00933   -0.00325    0.00855
 27 Pt   -0.00830    0.00428    0.01040
 28 Pd   -0.03891    0.00546    0.01721
 29 Pd    0.04225    0.00803    0.00835
 30 Pd   -0.02882    0.03098   -0.01705
 31 Ru   -0.00964    0.01844   -0.02463
 32 Pt    0.00808    0.02059    0.00279
 33 Ag    0.00145    0.02124   -0.00563
 34 Pt   -0.00554    0.00642   -0.01612
 35 Ru   -0.00670   -0.01294    0.03198
 36 Pd   -0.02226    0.01294   -0.01418
 37 Ru    0.00875    0.00649    0.02843
 38 Pd   -0.02763   -0.00451    0.01080
 39 Pt    0.02873    0.01377    0.02003
 40 Pd   -0.06361   -0.01092   -0.02831
 41 Pd   -0.00762   -0.00086    0.00248
 42 Pt    0.00763   -0.02440   -0.03210
 43 Pd   -0.03372   -0.02109   -0.04598
 44 Ru   -0.00511   -0.01193   -0.00951
 45 O     0.01317   -0.01005    0.10399
 46 H    -0.08537   -0.15208   -0.16979

System changes: positions 

Initializing position-dependent things.

Density initialized from wave functions
                                             
                                             
                                             
                                             
                                             
                                             
                     H                       
                   O                         
                 Pt     Pd     Ru            
            Pt    APd    PPd    Ru           
                                             
        Pd    Ru     Pd    Pt                
                                             
        Pt     Pd    PPd    Pd     Ag        
                Ag     Ag     Ag             
                                             
           Ag    PAg    APt    Pd            
                                             
            Pd     Ru     Ag     Pd          
       Ag     Ru     Ru                      
             Pd     Pd     Pt                
        Pd     Ag     Pt                     
                                             
                                             
                                             
                                             
                                             

Positions:
   0 Pd     0.000000    1.633958   10.000000    ( 0.0000,  0.0000,  0.0000)
   1 Ag     2.830098    1.633958   10.000000    ( 0.0000,  0.0000,  0.0000)
   2 Pt     5.660196    1.633958   10.000000    ( 0.0000,  0.0000,  0.0000)
   3 Pd     1.415049    4.084895   10.000000    ( 0.0000,  0.0000,  0.0000)
   4 Pd     4.245147    4.084895   10.000000    ( 0.0000,  0.0000,  0.0000)
   5 Pt     7.075245    4.084895   10.000000    ( 0.0000,  0.0000,  0.0000)
   6 Pd     2.830098    6.535832   10.000000    ( 0.0000,  0.0000,  0.0000)
   7 Ag     5.660196    6.535832   10.000000    ( 0.0000,  0.0000,  0.0000)
   8 Pd     8.490294    6.535832   10.000000    ( 0.0000,  0.0000,  0.0000)
   9 Ag     0.000000    0.000000   12.310765    ( 0.0000,  0.0000,  0.0000)
  10 Ru     2.830098    0.000000   12.310765    ( 0.0000,  0.0000,  0.0000)
  11 Ru     5.660196    0.000000   12.310765    ( 0.0000,  0.0000,  0.0000)
  12 Pd     1.415049    2.450937   12.310765    ( 0.0000,  0.0000,  0.0000)
  13 Ru     4.245147    2.450937   12.310765    ( 0.0000,  0.0000,  0.0000)
  14 Ag     7.075245    2.450937   12.310765    ( 0.0000,  0.0000,  0.0000)
  15 Pd     2.830098    4.901874   12.310765    ( 0.0000,  0.0000,  0.0000)
  16 Ag     5.660196    4.901874   12.310765    ( 0.0000,  0.0000,  0.0000)
  17 Pd     8.490294    4.901874   12.310765    ( 0.0000,  0.0000,  0.0000)
  18 Ag     1.423530    0.841220   14.687399    ( 0.0000,  0.0000,  0.0000)
  19 Ag     4.225728    0.838427   14.680515    ( 0.0000,  0.0000,  0.0000)
  20 Pt     7.002632    0.825465   14.669489    ( 0.0000,  0.0000,  0.0000)
  21 Ag     2.852606    3.274360   14.707576    ( 0.0000,  0.0000,  0.0000)
  22 Ag     5.612939    3.272625   14.713850    ( 0.0000,  0.0000,  0.0000)
  23 Ag     8.405972    3.277249   14.702052    ( 0.0000,  0.0000,  0.0000)
  24 Pd     4.231455    5.665322   14.786666    ( 0.0000,  0.0000,  0.0000)
  25 Pd     7.028506    5.721790   14.706982    ( 0.0000,  0.0000,  0.0000)
  26 Ag     9.809662    5.685183   14.698726    ( 0.0000,  0.0000,  0.0000)
  27 Pt     0.029854    1.661436   17.054111    ( 0.0000,  0.0000,  0.0000)
  28 Pd     2.867686    1.673285   17.127356    ( 0.0000,  0.0000,  0.0000)
  29 Pd     5.574435    1.673435   17.085519    ( 0.0000,  0.0000,  0.0000)
  30 Pd     1.452972    4.085047   17.050370    ( 0.0000,  0.0000,  0.0000)
  31 Ru     4.275030    4.074562   17.266027    ( 0.0000,  0.0000,  0.0000)
  32 Pt     6.976196    4.085867   17.093226    ( 0.0000,  0.0000,  0.0000)
  33 Ag     2.792252    6.521477   17.068862    ( 0.0000,  0.0000,  0.0000)
  34 Pt     5.620657    6.456247   17.083225    ( 0.0000,  0.0000,  0.0000)
  35 Ru     8.294082    6.452269   17.209679    ( 0.0000,  0.0000,  0.0000)
  36 Pd     0.112456    0.040276   19.435635    ( 0.0000,  0.0000,  0.0000)
  37 Ru     2.882225   -0.070564   19.225788    ( 0.0000,  0.0000,  0.0000)
  38 Pd     5.610442   -0.003203   19.441033    ( 0.0000,  0.0000,  0.0000)
  39 Pt     1.418567    2.459434   19.371393    ( 0.0000,  0.0000,  0.0000)
  40 Pd     4.242748    2.427196   19.505596    ( 0.0000,  0.0000,  0.0000)
  41 Pd     7.086189    2.485434   19.422561    ( 0.0000,  0.0000,  0.0000)
  42 Pt     2.795248    4.839807   19.350450    ( 0.0000,  0.0000,  0.0000)
  43 Pd     5.674481    4.897183   19.488510    ( 0.0000,  0.0000,  0.0000)
  44 Ru     8.420606    4.982484   19.208026    ( 0.0000,  0.0000,  0.0000)
  45 O      4.184266    2.376644   21.528354    ( 0.0000,  0.0000,  0.0000)
  46 H      4.859918    3.043978   21.821591    ( 0.0000,  0.0000,  0.0000)

Unit cell:
           periodic     x           y           z      points  spacing
  1. axis:    yes    8.379498    0.000000    0.000000    35     0.2073
  2. axis:    yes    4.189749    7.256858    0.000000    35     0.2073
  3. axis:    no     0.000000    0.000000   29.243062   135     0.2166

  Lengths:   8.379498   8.379498  29.243062
  Angles:   90.000000  90.000000  60.000000

Effective grid spacing dv^(1/3) = 0.2207

                     log10-error:    total        iterations:
           time      wfs    density  energy       fermi  poisson
iter:   1  03:59:56  -3.00   +inf  -185.871843    3             
iter:   2  04:01:12  -2.29  -2.32  -210.587354    4             
iter:   3  04:02:27  -2.57  -1.57  -185.497263    4             
iter:   4  04:03:42  -3.79  -2.70  -185.360665    3             
iter:   5  04:04:56  -4.39  -2.89  -185.321191    2             
iter:   6  04:06:10  -5.19  -3.31  -185.319259    2             
iter:   7  04:07:25  -5.52  -3.37  -185.320464    2             
iter:   8  04:08:40  -5.57  -3.45  -185.316539    2             
iter:   9  04:09:57  -5.73  -3.66  -185.320930    2             
iter:  10  04:11:13  -5.94  -3.36  -185.315600    2             
iter:  11  04:12:29  -5.87  -3.69  -185.318046    2             
iter:  12  04:13:45  -5.99  -3.59  -185.315638    2             
iter:  13  04:14:59  -6.32  -3.98  -185.316189    2             
iter:  14  04:16:13  -6.88  -4.00  -185.315721    2             
iter:  15  04:17:27  -7.02  -4.09  -185.315756    2             
iter:  16  04:18:40  -6.62  -4.19  -185.315840    2             
iter:  17  04:19:55  -6.96  -3.91  -185.316453    2             
iter:  18  04:21:09  -6.80  -4.06  -185.315748    2             
iter:  19  04:22:23  -7.19  -4.15  -185.315932    2             
iter:  20  04:23:38  -7.43  -4.50  -185.315703    2             

Converged after 20 iterations.

Dipole moment: (27.558918, 23.039480, -0.327508) |e|*Ang

Energy contributions relative to reference atoms: (reference = -9073466.092496)

Kinetic:       -175.030301
Potential:      +28.877138
External:        +0.000000
XC:             -33.758463
Entropy (-ST):   -2.040945
Local:           -4.383604
--------------------------
Free energy:   -186.336175
Extrapolated:  -185.315703

Fermi level: 0.78657

Showing only first 2 kpts
 Kpt  Band  Eigenvalues  Occupancy
  0   367      0.74584    0.15011
  0   368      0.80476    0.11366
  0   369      0.81854    0.10518
  0   370      0.84685    0.08843

  1   367      0.65465    0.19726
  1   368      0.69212    0.18000
  1   369      0.72306    0.16341
  1   370      0.75043    0.14734



Forces in eV/Ang:
  0 Pd    0.09913    0.51413   -0.42383
  1 Ag    0.10516    0.49132   -0.51951
  2 Pt   -0.23561    0.51138    0.83233
  3 Pd    0.09647    0.03352   -0.08684
  4 Pd    0.10782   -0.37357    0.20070
  5 Pt   -0.12949   -0.29451   -0.09399
  6 Pd   -0.17451   -0.39702   -0.05658
  7 Ag   -0.12501   -0.45350   -0.70993
  8 Pd   -0.25136   -0.31041    0.26290
  9 Ag    0.53326    0.20554    0.41284
 10 Ru    2.22747    1.29038    0.42508
 11 Ru   -1.88241    0.87037   -0.33155
 12 Pd    1.12948   -0.23261    0.01431
 13 Ru   -0.54465   -1.49204   -0.86128
 14 Ag   -0.43934    0.13747    0.27422
 15 Pd    0.18233   -0.59208    0.09389
 16 Ag   -0.17242   -0.37431    0.36413
 17 Pd   -0.36729    0.54294   -0.00555
 18 Ag   -0.00105   -0.00727    0.01003
 19 Ag    0.00558   -0.01245    0.01990
 20 Pt    0.00701    0.00674   -0.00220
 21 Ag    0.00199   -0.00019    0.00198
 22 Ag    0.00008    0.00076   -0.00507
 23 Ag    0.00747    0.00015   -0.00880
 24 Pd   -0.00280    0.00341   -0.01351
 25 Pd    0.00253    0.00116   -0.01544
 26 Ag   -0.00087    0.01212   -0.01499
 27 Pt    0.00787    0.01835    0.01263
 28 Pd   -0.01101   -0.00431   -0.04842
 29 Pd   -0.00024    0.01699    0.00640
 30 Pd   -0.02709    0.01757   -0.01683
 31 Ru    0.00645   -0.00700   -0.00308
 32 Pt   -0.00334    0.01008   -0.01402
 33 Ag   -0.00927   -0.01291   -0.00187
 34 Pt    0.00466    0.02136    0.01260
 35 Ru   -0.02361    0.01671   -0.01113
 36 Pd   -0.01924    0.01366   -0.01002
 37 Ru    0.01884    0.00525    0.00822
 38 Pd   -0.02173   -0.00002    0.01466
 39 Pt   -0.00623    0.00859    0.03489
 40 Pd   -0.10461   -0.05270    0.02712
 41 Pd   -0.01321    0.00362    0.00869
 42 Pt    0.01979    0.00902    0.01721
 43 Pd   -0.02359   -0.02402   -0.00938
 44 Ru   -0.00605   -0.02818    0.03252
 45 O     0.05862    0.02113   -0.08408
 46 H    -0.13531   -0.18396   -0.02219

System changes: positions 

Initializing position-dependent things.

Density initialized from wave functions
                                             
                                             
                                             
                                             
                                             
                                             
                     H                       
                   O                         
                 Pt     Pd     Ru            
            Pt    APd    PPd    Ru           
                                             
        Pd    Ru    RPd    Pt                
                                             
        Pt     Pd    PPd    Pd     Ag        
                Ag     Ag     Ag             
                                             
           Ag    PAg    APt    Pd            
                                             
            Pd     Ru     Ag     Pd          
       Ag     Ru     Ru                      
             Pd     Pd     Pt                
        Pd     Ag     Pt                     
                                             
                                             
                                             
                                             
                                             

Positions:
   0 Pd     0.000000    1.633958   10.000000    ( 0.0000,  0.0000,  0.0000)
   1 Ag     2.830098    1.633958   10.000000    ( 0.0000,  0.0000,  0.0000)
   2 Pt     5.660196    1.633958   10.000000    ( 0.0000,  0.0000,  0.0000)
   3 Pd     1.415049    4.084895   10.000000    ( 0.0000,  0.0000,  0.0000)
   4 Pd     4.245147    4.084895   10.000000    ( 0.0000,  0.0000,  0.0000)
   5 Pt     7.075245    4.084895   10.000000    ( 0.0000,  0.0000,  0.0000)
   6 Pd     2.830098    6.535832   10.000000    ( 0.0000,  0.0000,  0.0000)
   7 Ag     5.660196    6.535832   10.000000    ( 0.0000,  0.0000,  0.0000)
   8 Pd     8.490294    6.535832   10.000000    ( 0.0000,  0.0000,  0.0000)
   9 Ag     0.000000    0.000000   12.310765    ( 0.0000,  0.0000,  0.0000)
  10 Ru     2.830098    0.000000   12.310765    ( 0.0000,  0.0000,  0.0000)
  11 Ru     5.660196    0.000000   12.310765    ( 0.0000,  0.0000,  0.0000)
  12 Pd     1.415049    2.450937   12.310765    ( 0.0000,  0.0000,  0.0000)
  13 Ru     4.245147    2.450937   12.310765    ( 0.0000,  0.0000,  0.0000)
  14 Ag     7.075245    2.450937   12.310765    ( 0.0000,  0.0000,  0.0000)
  15 Pd     2.830098    4.901874   12.310765    ( 0.0000,  0.0000,  0.0000)
  16 Ag     5.660196    4.901874   12.310765    ( 0.0000,  0.0000,  0.0000)
  17 Pd     8.490294    4.901874   12.310765    ( 0.0000,  0.0000,  0.0000)
  18 Ag     1.424617    0.842049   14.689083    ( 0.0000,  0.0000,  0.0000)
  19 Ag     4.225912    0.838265   14.685393    ( 0.0000,  0.0000,  0.0000)
  20 Pt     7.002933    0.825506   14.667785    ( 0.0000,  0.0000,  0.0000)
  21 Ag     2.853467    3.273706   14.709854    ( 0.0000,  0.0000,  0.0000)
  22 Ag     5.614192    3.272095   14.712317    ( 0.0000,  0.0000,  0.0000)
  23 Ag     8.406689    3.276891   14.700638    ( 0.0000,  0.0000,  0.0000)
  24 Pd     4.232164    5.664996   14.785303    ( 0.0000,  0.0000,  0.0000)
  25 Pd     7.029626    5.722127   14.707055    ( 0.0000,  0.0000,  0.0000)
  26 Ag     9.809762    5.685915   14.698631    ( 0.0000,  0.0000,  0.0000)
  27 Pt     0.030119    1.664300   17.054899    ( 0.0000,  0.0000,  0.0000)
  28 Pd     2.866584    1.674515   17.131150    ( 0.0000,  0.0000,  0.0000)
  29 Pd     5.573704    1.676743   17.088988    ( 0.0000,  0.0000,  0.0000)
  30 Pd     1.449527    4.088074   17.047223    ( 0.0000,  0.0000,  0.0000)
  31 Ru     4.273113    4.073766   17.261403    ( 0.0000,  0.0000,  0.0000)
  32 Pt     6.975687    4.087212   17.091339    ( 0.0000,  0.0000,  0.0000)
  33 Ag     2.791332    6.524311   17.067796    ( 0.0000,  0.0000,  0.0000)
  34 Pt     5.621752    6.459713   17.081761    ( 0.0000,  0.0000,  0.0000)
  35 Ru     8.291771    6.455256   17.213184    ( 0.0000,  0.0000,  0.0000)
  36 Pd     0.109402    0.042210   19.435018    ( 0.0000,  0.0000,  0.0000)
  37 Ru     2.880631   -0.070562   19.230278    ( 0.0000,  0.0000,  0.0000)
  38 Pd     5.606993   -0.003649   19.444547    ( 0.0000,  0.0000,  0.0000)
  39 Pt     1.418027    2.461770   19.376607    ( 0.0000,  0.0000,  0.0000)
  40 Pd     4.232735    2.421700   19.505455    ( 0.0000,  0.0000,  0.0000)
  41 Pd     7.083440    2.486267   19.424896    ( 0.0000,  0.0000,  0.0000)
  42 Pt     2.795506    4.838802   19.345476    ( 0.0000,  0.0000,  0.0000)
  43 Pd     5.668222    4.894126   19.480055    ( 0.0000,  0.0000,  0.0000)
  44 Ru     8.418705    4.978393   19.212262    ( 0.0000,  0.0000,  0.0000)
  45 O      4.176281    2.359280   21.520436    ( 0.0000,  0.0000,  0.0000)
  46 H      4.853194    3.024442   21.803743    ( 0.0000,  0.0000,  0.0000)

Unit cell:
           periodic     x           y           z      points  spacing
  1. axis:    yes    8.379498    0.000000    0.000000    35     0.2073
  2. axis:    yes    4.189749    7.256858    0.000000    35     0.2073
[...]
  19 Ag     4.226209    0.838818   14.682424    ( 0.0000,  0.0000,  0.0000)
  20 Pt     7.004650    0.829387   14.670451    ( 0.0000,  0.0000,  0.0000)
  21 Ag     2.852240    3.276415   14.705656    ( 0.0000,  0.0000,  0.0000)
  22 Ag     5.612905    3.274624   14.711199    ( 0.0000,  0.0000,  0.0000)
  23 Ag     8.407904    3.280091   14.702483    ( 0.0000,  0.0000,  0.0000)
  24 Pd     4.231528    5.668354   14.784974    ( 0.0000,  0.0000,  0.0000)
  25 Pd     7.028702    5.724059   14.704493    ( 0.0000,  0.0000,  0.0000)
  26 Ag     9.809822    5.688329   14.695527    ( 0.0000,  0.0000,  0.0000)
  27 Pt     0.021458    1.671056   17.057995    ( 0.0000,  0.0000,  0.0000)
  28 Pd     2.850279    1.671148   17.116619    ( 0.0000,  0.0000,  0.0000)
  29 Pd     5.564672    1.676749   17.083609    ( 0.0000,  0.0000,  0.0000)
  30 Pd     1.444580    4.092715   17.049871    ( 0.0000,  0.0000,  0.0000)
  31 Ru     4.265054    4.077916   17.258782    ( 0.0000,  0.0000,  0.0000)
  32 Pt     6.967666    4.093550   17.090834    ( 0.0000,  0.0000,  0.0000)
  33 Ag     2.785983    6.526747   17.070514    ( 0.0000,  0.0000,  0.0000)
  34 Pt     5.614432    6.460333   17.086354    ( 0.0000,  0.0000,  0.0000)
  35 Ru     8.284045    6.457238   17.214007    ( 0.0000,  0.0000,  0.0000)
  36 Pd     0.099196    0.044933   19.436524    ( 0.0000,  0.0000,  0.0000)
  37 Ru     2.869010   -0.079363   19.227815    ( 0.0000,  0.0000,  0.0000)
  38 Pd     5.593042   -0.008177   19.444219    ( 0.0000,  0.0000,  0.0000)
  39 Pt     1.387857    2.474638   19.378710    ( 0.0000,  0.0000,  0.0000)
  40 Pd     4.201529    2.410246   19.470081    ( 0.0000,  0.0000,  0.0000)
  41 Pd     7.056303    2.484392   19.425289    ( 0.0000,  0.0000,  0.0000)
  42 Pt     2.787594    4.842340   19.353172    ( 0.0000,  0.0000,  0.0000)
  43 Pd     5.647056    4.888268   19.486524    ( 0.0000,  0.0000,  0.0000)
  44 Ru     8.402366    4.976284   19.211581    ( 0.0000,  0.0000,  0.0000)
  45 O      4.171936    2.274858   21.485436    ( 0.0000,  0.0000,  0.0000)
  46 H      4.835050    2.929633   21.817798    ( 0.0000,  0.0000,  0.0000)

Unit cell:
           periodic     x           y           z      points  spacing
  1. axis:    yes    8.379498    0.000000    0.000000    35     0.2073
  2. axis:    yes    4.189749    7.256858    0.000000    35     0.2073
  3. axis:    no     0.000000    0.000000   29.243062   135     0.2166

  Lengths:   8.379498   8.379498  29.243062
  Angles:   90.000000  90.000000  60.000000

Effective grid spacing dv^(1/3) = 0.2207

                     log10-error:    total        iterations:
           time      wfs    density  energy       fermi  poisson
iter:   1  06:07:48  -3.62   +inf  -185.356601    2             
iter:   2  06:09:02  -4.57  -3.32  -185.343150    3             
iter:   3  06:10:17  -4.77  -3.27  -185.411017    2             
iter:   4  06:11:25  -5.17  -2.77  -185.342144    2             
iter:   5  06:12:36  -5.80  -3.72  -185.340320    2             
iter:   6  06:13:50  -6.10  -3.70  -185.342072    2             
iter:   7  06:15:04  -6.15  -3.68  -185.340755    2             
iter:   8  06:16:20  -6.34  -3.91  -185.340410    2             
iter:   9  06:17:33  -6.63  -4.17  -185.340408    2             
iter:  10  06:18:48  -7.14  -4.28  -185.340417    2             
iter:  11  06:20:03  -6.98  -4.33  -185.340249    2             
iter:  12  06:21:17  -6.98  -4.18  -185.341113    2             
iter:  13  06:22:31  -7.19  -3.98  -185.340419    2             
iter:  14  06:23:45  -7.73  -4.55  -185.340404    2             

Converged after 14 iterations.

Dipole moment: (30.039218, 23.749083, -0.302078) |e|*Ang

Energy contributions relative to reference atoms: (reference = -9073466.092496)

Kinetic:       -174.187286
Potential:      +28.239346
External:        +0.000000
XC:             -33.970847
Entropy (-ST):   -2.037702
Local:           -4.402765
--------------------------
Free energy:   -186.359255
Extrapolated:  -185.340404

Fermi level: 0.79743

Showing only first 2 kpts
 Kpt  Band  Eigenvalues  Occupancy
  0   367      0.75701    0.14993
  0   368      0.81617    0.11333
  0   369      0.83081    0.10433
  0   370      0.85787    0.08834

  1   367      0.66434    0.19775
  1   368      0.70101    0.18099
  1   369      0.73486    0.16288
  1   370      0.75952    0.14841



Forces in eV/Ang:
  0 Pd    0.09854    0.51343   -0.41837
  1 Ag    0.10504    0.49115   -0.51674
  2 Pt   -0.23566    0.51190    0.83788
  3 Pd    0.09603    0.03345   -0.08057
  4 Pd    0.10802   -0.37327    0.20607
  5 Pt   -0.12979   -0.29454   -0.08748
  6 Pd   -0.17445   -0.39764   -0.05061
  7 Ag   -0.12533   -0.45367   -0.70695
  8 Pd   -0.25274   -0.30993    0.26903
  9 Ag    0.53303    0.20676    0.41517
 10 Ru    2.22779    1.29171    0.43298
 11 Ru   -1.88076    0.87470   -0.33285
 12 Pd    1.12832   -0.23437    0.01376
 13 Ru   -0.54425   -1.49583   -0.86337
 14 Ag   -0.43545    0.13917    0.27413
 15 Pd    0.18265   -0.58831    0.08946
 16 Ag   -0.17302   -0.37066    0.35817
 17 Pd   -0.36648    0.54220   -0.00801
 18 Ag    0.00006   -0.00674    0.00672
 19 Ag    0.00235   -0.00367    0.00812
 20 Pt   -0.01972   -0.00626    0.00748
 21 Ag    0.00137    0.00267    0.00756
 22 Ag   -0.00153   -0.00110    0.00517
 23 Ag   -0.00938    0.00248   -0.01053
 24 Pd   -0.01248    0.00498   -0.00295
 25 Pd   -0.00482    0.00311   -0.00513
 26 Ag    0.00423    0.01500    0.00428
 27 Pt   -0.00874   -0.00636    0.00009
 28 Pd   -0.02198    0.01181   -0.02651
 29 Pd    0.01102   -0.00278   -0.03298
 30 Pd   -0.00708    0.01117   -0.00951
 31 Ru   -0.01411   -0.00382   -0.00365
 32 Pt   -0.01171   -0.03929   -0.01848
 33 Ag   -0.01288   -0.00812   -0.00945
 34 Pt   -0.04145    0.01841   -0.01579
 35 Ru    0.02561    0.00868   -0.05609
 36 Pd   -0.01458    0.00429   -0.00670
 37 Ru   -0.02121    0.03197    0.03782
 38 Pd   -0.00180    0.01490    0.01507
 39 Pt    0.01206    0.00393    0.00235
 40 Pd   -0.02749    0.00947    0.08444
 41 Pd    0.00690   -0.00088   -0.00957
 42 Pt   -0.00472   -0.00632    0.00233
 43 Pd   -0.01985    0.00268   -0.00295
 44 Ru    0.01561   -0.04010    0.02779
 45 O     0.09631    0.01455   -0.06713
 46 H    -0.00104   -0.04558   -0.00233

System changes: positions 

Initializing position-dependent things.

Density initialized from wave functions
                                             
                                             
                                             
                                             
                                             
                                             
                     H                       
                   O                         
                 Pt     Pd     Ru            
            Pt    APd    PPd    Ru           
                                             
        Pd    Ru    RPd    Pt                
                                             
        Pt     Pd    PPd    Pd     Ag        
                Ag     Ag     Ag             
                                             
           Ag    PAg    APt    Pd            
                                             
            Pd     Ru     Ag     Pd          
       Ag     Ru     Ru                      
             Pd     Pd     Pt                
        Pd     Ag     Pt                     
                                             
                                             
                                             
                                             
                                             

Positions:
   0 Pd     0.000000    1.633958   10.000000    ( 0.0000,  0.0000,  0.0000)
   1 Ag     2.830098    1.633958   10.000000    ( 0.0000,  0.0000,  0.0000)
   2 Pt     5.660196    1.633958   10.000000    ( 0.0000,  0.0000,  0.0000)
   3 Pd     1.415049    4.084895   10.000000    ( 0.0000,  0.0000,  0.0000)
   4 Pd     4.245147    4.084895   10.000000    ( 0.0000,  0.0000,  0.0000)
   5 Pt     7.075245    4.084895   10.000000    ( 0.0000,  0.0000,  0.0000)
   6 Pd     2.830098    6.535832   10.000000    ( 0.0000,  0.0000,  0.0000)
   7 Ag     5.660196    6.535832   10.000000    ( 0.0000,  0.0000,  0.0000)
   8 Pd     8.490294    6.535832   10.000000    ( 0.0000,  0.0000,  0.0000)
   9 Ag     0.000000    0.000000   12.310765    ( 0.0000,  0.0000,  0.0000)
  10 Ru     2.830098    0.000000   12.310765    ( 0.0000,  0.0000,  0.0000)
  11 Ru     5.660196    0.000000   12.310765    ( 0.0000,  0.0000,  0.0000)
  12 Pd     1.415049    2.450937   12.310765    ( 0.0000,  0.0000,  0.0000)
  13 Ru     4.245147    2.450937   12.310765    ( 0.0000,  0.0000,  0.0000)
  14 Ag     7.075245    2.450937   12.310765    ( 0.0000,  0.0000,  0.0000)
  15 Pd     2.830098    4.901874   12.310765    ( 0.0000,  0.0000,  0.0000)
  16 Ag     5.660196    4.901874   12.310765    ( 0.0000,  0.0000,  0.0000)
  17 Pd     8.490294    4.901874   12.310765    ( 0.0000,  0.0000,  0.0000)
  18 Ag     1.421803    0.842328   14.687874    ( 0.0000,  0.0000,  0.0000)
  19 Ag     4.225710    0.838912   14.680665    ( 0.0000,  0.0000,  0.0000)
  20 Pt     7.002670    0.829190   14.670523    ( 0.0000,  0.0000,  0.0000)
  21 Ag     2.852095    3.276520   14.705382    ( 0.0000,  0.0000,  0.0000)
  22 Ag     5.612541    3.274880   14.710982    ( 0.0000,  0.0000,  0.0000)
  23 Ag     8.406574    3.280507   14.702115    ( 0.0000,  0.0000,  0.0000)
  24 Pd     4.230553    5.669276   14.784542    ( 0.0000,  0.0000,  0.0000)
  25 Pd     7.028187    5.724742   14.704386    ( 0.0000,  0.0000,  0.0000)
  26 Ag     9.809597    5.689753   14.696478    ( 0.0000,  0.0000,  0.0000)
  27 Pt     0.019500    1.670135   17.056593    ( 0.0000,  0.0000,  0.0000)
  28 Pd     2.847045    1.671291   17.116085    ( 0.0000,  0.0000,  0.0000)
  29 Pd     5.563229    1.675933   17.079304    ( 0.0000,  0.0000,  0.0000)
  30 Pd     1.442729    4.093709   17.048602    ( 0.0000,  0.0000,  0.0000)
  31 Ru     4.262908    4.077735   17.259463    ( 0.0000,  0.0000,  0.0000)
  32 Pt     6.965975    4.091310   17.091162    ( 0.0000,  0.0000,  0.0000)
  33 Ag     2.784570    6.527109   17.070647    ( 0.0000,  0.0000,  0.0000)
  34 Pt     5.611429    6.460521   17.085273    ( 0.0000,  0.0000,  0.0000)
  35 Ru     8.283979    6.456674   17.211937    ( 0.0000,  0.0000,  0.0000)
  36 Pd     0.096907    0.044407   19.437126    ( 0.0000,  0.0000,  0.0000)
  37 Ru     2.866309   -0.078474   19.228382    ( 0.0000,  0.0000,  0.0000)
  38 Pd     5.590571   -0.007619   19.444469    ( 0.0000,  0.0000,  0.0000)
  39 Pt     1.386706    2.475606   19.377520    ( 0.0000,  0.0000,  0.0000)
  40 Pd     4.200162    2.413698   19.470712    ( 0.0000,  0.0000,  0.0000)
  41 Pd     7.053406    2.483938   19.424251    ( 0.0000,  0.0000,  0.0000)
  42 Pt     2.785783    4.841824   19.354736    ( 0.0000,  0.0000,  0.0000)
  43 Pd     5.642999    4.888932   19.486941    ( 0.0000,  0.0000,  0.0000)
  44 Ru     8.401333    4.975586   19.211102    ( 0.0000,  0.0000,  0.0000)
  45 O      4.178815    2.267048   21.483071    ( 0.0000,  0.0000,  0.0000)
  46 H      4.838009    2.921350   21.821280    ( 0.0000,  0.0000,  0.0000)

Unit cell:
           periodic     x           y           z      points  spacing
  1. axis:    yes    8.379498    0.000000    0.000000    35     0.2073
  2. axis:    yes    4.189749    7.256858    0.000000    35     0.2073
  3. axis:    no     0.000000    0.000000   29.243062   135     0.2166

  Lengths:   8.379498   8.379498  29.243062
  Angles:   90.000000  90.000000  60.000000

Effective grid spacing dv^(1/3) = 0.2207

                     log10-error:    total        iterations:
           time      wfs    density  energy       fermi  poisson
iter:   1  06:25:31  -4.05   +inf  -185.360843    2             
iter:   2  06:26:44  -3.79  -3.05  -186.343431    2             
iter:   3  06:27:58  -4.05  -2.18  -185.343958    2             
iter:   4  06:29:11  -5.26  -3.63  -185.341903    2             
iter:   5  06:30:26  -6.00  -3.87  -185.342246    2             
iter:   6  06:31:40  -6.18  -3.85  -185.342344    2             
iter:   7  06:32:55  -6.41  -4.00  -185.341731    2             
iter:   8  06:34:09  -6.93  -3.69  -185.341738    2             
iter:   9  06:35:23  -6.46  -3.98  -185.342000    2             
iter:  10  06:36:37  -7.03  -4.35  -185.341559    2             
iter:  11  06:37:53  -7.22  -4.23  -185.341543    2             
iter:  12  06:39:07  -7.56  -4.43  -185.341844    2             

Converged after 12 iterations.

Dipole moment: (30.110689, 23.710256, -0.299948) |e|*Ang

Energy contributions relative to reference atoms: (reference = -9073466.092496)

Kinetic:       -174.604744
Potential:      +28.604209
External:        +0.000000
XC:             -33.937044
Entropy (-ST):   -2.037977
Local:           -4.385276
--------------------------
Free energy:   -186.360832
Extrapolated:  -185.341844

Fermi level: 0.79889

Showing only first 2 kpts
 Kpt  Band  Eigenvalues  Occupancy
  0   367      0.75816    0.15011
  0   368      0.81731    0.11352
  0   369      0.83227    0.10433
  0   370      0.85926    0.08837

  1   367      0.66604    0.19765
  1   368      0.70233    0.18106
  1   369      0.73604    0.16303
  1   370      0.76111    0.14833



Forces in eV/Ang:
  0 Pd    0.09829    0.51282   -0.41572
  1 Ag    0.10526    0.49127   -0.51609
  2 Pt   -0.23615    0.51190    0.84034
  3 Pd    0.09587    0.03305   -0.07829
  4 Pd    0.10819   -0.37409    0.20910
  5 Pt   -0.13021   -0.29443   -0.08402
  6 Pd   -0.17492   -0.39728   -0.04686
  7 Ag   -0.12485   -0.45330   -0.70516
  8 Pd   -0.25300   -0.30960    0.27093
  9 Ag    0.53135    0.20918    0.41757
 10 Ru    2.22498    1.29197    0.43100
 11 Ru   -1.87702    0.87446   -0.33945
 12 Pd    1.12779   -0.23375    0.02040
 13 Ru   -0.54626   -1.49180   -0.86594
 14 Ag   -0.43374    0.13761    0.27616
 15 Pd    0.18179   -0.59034    0.09334
 16 Ag   -0.17406   -0.37103    0.36036
 17 Pd   -0.36557    0.54017   -0.00357
 18 Ag   -0.00617    0.00074    0.00344
 19 Ag   -0.01545    0.00265    0.01322
 20 Pt    0.01260    0.00736   -0.00799
 21 Ag   -0.00665    0.00575    0.00995
 22 Ag   -0.00777    0.01394    0.00194
 23 Ag    0.00355    0.00097   -0.01066
 24 Pd   -0.00052   -0.00977   -0.00348
 25 Pd   -0.01281   -0.00937    0.00782
 26 Ag   -0.00179   -0.01255   -0.00847
 27 Pt    0.00338    0.00799    0.01671
 28 Pd    0.01167   -0.00291   -0.00294
 29 Pd   -0.00978    0.00338    0.02568
 30 Pd   -0.00388   -0.00571    0.00355
 31 Ru    0.00062   -0.00472   -0.00582
 32 Pt   -0.01420    0.01395    0.00234
 33 Ag   -0.01189   -0.01792    0.00967
 34 Pt    0.02017   -0.00525    0.01393
 35 Ru   -0.03238    0.00855    0.01976
 36 Pd   -0.00270    0.01918   -0.00582
 37 Ru    0.00566   -0.00489   -0.01781
 38 Pd   -0.01069    0.00471   -0.00835
 39 Pt   -0.00366   -0.01462    0.00942
 40 Pd   -0.01755   -0.01569    0.02647
 41 Pd    0.02379    0.00460   -0.01430
 42 Pt   -0.00597    0.00736    0.00079
 43 Pd    0.02158    0.00636   -0.00942
 44 Ru   -0.00899   -0.00034    0.00333
 45 O     0.03936   -0.02251   -0.01146
 46 H     0.02980   -0.04215    0.01103

Timing:                                      incl.     excl.
-------------------------------------------------------------------
Density initialized from wave functions:    44.391    44.390   0.2% |
 Symmetrize density:                         0.001     0.001   0.0% |
Forces:                                    255.590   255.590   1.2% |
Hamiltonian:                                40.430     0.141   0.0% |
 Atomic:                                     9.220     4.124   0.0% |
  XC Correction:                             5.095     5.095   0.0% |
 Calculate atomic Hamiltonians:             15.862    15.862   0.1% |
 Communicate:                                0.367     0.367   0.0% |
 Initialize Hamiltonian:                     0.001     0.001   0.0% |
 Poisson:                                    0.072     0.072   0.0% |
 XC 3D grid:                                14.767    14.767   0.1% |
LCAO initialization:                        59.277     3.468   0.0% |
 LCAO eigensolver:                           6.676     0.003   0.0% |
  Calculate projections:                     0.066     0.066   0.0% |
  DenseAtomicCorrection:                     0.056     0.056   0.0% |
  Distribute overlap matrix:                 0.497     0.497   0.0% |
  Orbital Layouts:                           0.557     0.557   0.0% |
  Potential matrix:                          5.456     5.456   0.0% |
  Sum over cells:                            0.042     0.042   0.0% |
 LCAO to grid:                              46.812    46.812   0.2% |
 Set positions (LCAO WFS):                   2.321     0.874   0.0% |
  Basic WFS set positions:                   0.003     0.003   0.0% |
  Basis functions set positions:             0.001     0.001   0.0% |
  P tci:                                     0.538     0.538   0.0% |
  ST tci:                                    0.668     0.668   0.0% |
  mktci:                                     0.238     0.238   0.0% |
PWDescriptor:                                0.046     0.046   0.0% |
Redistribute:                                0.085     0.085   0.0% |
SCF-cycle:                               20552.465   834.692   4.0% |-|
 Davidson:                               17944.094  4127.766  19.6% |-------|
  Apply H:                                2974.185  2905.500  13.8% |-----|
   HMM T:                                   68.685    68.685   0.3% |
  Subspace diag:                          2513.282     0.092   0.0% |
   calc_h_matrix:                         1467.789   501.467   2.4% ||
    Apply H:                               966.322   942.757   4.5% |-|
     HMM T:                                 23.565    23.565   0.1% |
   diagonalize:                             99.033    99.033   0.5% |
   rotate_psi:                             946.367   946.367   4.5% |-|
  calc. matrices:                         5612.166  3669.902  17.4% |------|
   Apply H:                               1942.263  1895.947   9.0% |---|
    HMM T:                                  46.317    46.317   0.2% |
  diagonalize:                             868.340   868.340   4.1% |-|
  rotate_psi:                             1848.355  1848.355   8.8% |---|
 Density:                                  931.551     0.017   0.0% |
  Atomic density matrices:                   4.995     4.995   0.0% |
  Mix:                                     340.381   340.381   1.6% ||
  Multipole moments:                         0.457     0.457   0.0% |
  Pseudo density:                          585.701   585.678   2.8% ||
   Symmetrize density:                       0.023     0.023   0.0% |
 Hamiltonian:                              752.257     2.531   0.0% |
  Atomic:                                  181.465    91.003   0.4% |
   XC Correction:                           90.462    90.462   0.4% |
  Calculate atomic Hamiltonians:           275.892   275.892   1.3% ||
  Communicate:                              12.135    12.135   0.1% |
  Poisson:                                   1.290     1.290   0.0% |
  XC 3D grid:                              278.944   278.944   1.3% ||
 Orthonormalize:                            89.870     0.007   0.0% |
  calc_s_matrix:                            12.896    12.896   0.1% |
  inverse-cholesky:                          2.639     2.639   0.0% |
  projections:                              49.803    49.803   0.2% |
  rotate_psi_s:                             24.526    24.526   0.1% |
Set symmetry:                                0.002     0.002   0.0% |
Other:                                     108.108   108.108   0.5% |
-------------------------------------------------------------------
Total:                                             21060.394 100.0%

Date: Fri Mar  4 06:39:26 2022
