
  ___ ___ ___ _ _ _  
 |   |   |_  | | | | 
 | | | | | . | | | | 
 |__ |  _|___|_____|  1.5.1
 |___|_|             

User:   clausen@node040.cluster
Date:   Thu Mar  3 14:20:50 2022
Arch:   x86_64
Pid:    3321
Python: 3.6.12
gpaw:   /software/kemi/gpaw/1.5.1/gpaw
_gpaw:  /software/kemi/gpaw/1.5.1/bin/gpaw-python
ase:    /software/kemi/ase/3.17.0/ase (version 3.17.0)
numpy:  /opt/rh/rh-python36/root/usr/lib64/python3.6/site-packages/numpy (version 1.13.1)
scipy:  /opt/rh/rh-python36/root/usr/lib64/python3.6/site-packages/scipy (version 0.19.1)
units:  Angstrom and eV
cores:  16

Input parameters:
  kpts: [4 4 1]
  mode: {ecut: 400.0,
         gammacentered: False,
         name: pw}
  xc: RPBE

System changes: positions, numbers, cell, pbc, initial_charges, initial_magmoms 

Initialize ...

Pd-setup:
  name: Palladium
  id: 6da19bfba079f22767af9506641940b9
  Z: 46
  valence: 16
  core: 30
  charge: 0.0
  file: /software/kemi/gpaw-setups/0.9.20000/Pd.RPBE.gz
  cutoffs: 1.19(comp), 2.38(filt), 2.28(core), lmax=2
  valence states:
                energy  radius
    5s(0.00)    -3.225   1.228
    4p(6.00)   -51.131   1.360
    5p(0.00)    -0.373   1.360
    4d(10.00)    -3.964   1.228
    *s          23.987   1.228
    *d          23.247   1.228

  Using partial waves for Pd as LCAO basis

Ir-setup:
  name: Iridium
  id: 73b603359d1d5397a85ae3c2440f9033
  Z: 77
  valence: 15
  core: 62
  charge: 0.0
  file: /software/kemi/gpaw-setups/0.9.20000/Ir.RPBE.gz
  cutoffs: 1.26(comp), 2.40(filt), 2.36(core), lmax=2
  valence states:
                energy  radius
    6s(2.00)    -6.219   1.296
    5p(6.00)   -54.684   1.328
    6p(0.00)    -1.215   1.328
    5d(7.00)    -7.118   1.286
    *s          20.992   1.296
    *d          20.093   1.286

  Using partial waves for Ir as LCAO basis

Ru-setup:
  name: Ruthenium
  id: 76477906e28f51dc1b29884d53556fe9
  Z: 44
  valence: 16
  core: 28
  charge: 0.0
  file: /software/kemi/gpaw-setups/0.9.20000/Ru.RPBE.gz
  cutoffs: 1.23(comp), 2.16(filt), 1.30(core), lmax=2
  valence states:
                energy  radius
    4s(2.00)   -76.255   1.281
    5s(1.00)    -4.126   1.281
    4p(6.00)   -46.371   1.286
    5p(0.00)    -0.913   1.286
    4d(7.00)    -5.146   1.254
    *d          22.066   1.254

  Using partial waves for Ru as LCAO basis

Pt-setup:
  name: Platinum
  id: f04f522592575c47ad794f6b4a415b4b
  Z: 78
  valence: 16
  core: 62
  charge: 0.0
  file: /software/kemi/gpaw-setups/0.9.20000/Pt.RPBE.gz
  cutoffs: 1.29(comp), 2.26(filt), 2.26(core), lmax=2
  valence states:
                energy  radius
    6s(1.00)    -5.516   1.307
    5p(6.00)   -55.971   1.371
    6p(0.00)    -0.856   1.371
    5d(9.00)    -6.087   1.307
    *s          21.695   1.307
    *d          21.125   1.307

  Using partial waves for Pt as LCAO basis

Ag-setup:
  name: Silver
  id: c05e55bab2c3858b3f9398f6d75cb77c
  Z: 47
  valence: 17
  core: 30
  charge: 0.0
  file: /software/kemi/gpaw-setups/0.9.20000/Ag.RPBE.gz
  cutoffs: 1.25(comp), 2.35(filt), 2.19(core), lmax=2
  valence states:
                energy  radius
    5s(1.00)    -4.277   1.286
    4p(6.00)   -58.523   1.328
    5p(0.00)    -0.755   1.328
    4d(10.00)    -7.386   1.180
    *s          22.934   1.286
    *d          19.826   1.180

  Using partial waves for Ag as LCAO basis

O-setup:
  name: Oxygen
  id: 08071ca1eed670e7821b24b7eb4d558c
  Z: 8
  valence: 6
  core: 2
  charge: 0.0
  file: /software/kemi/gpaw-setups/0.9.20000/O.RPBE.gz
  cutoffs: 0.67(comp), 1.17(filt), 0.83(core), lmax=2
  valence states:
                energy  radius
    2s(2.00)   -24.041   0.688
    2p(4.00)    -8.984   0.598
    *s           3.170   0.688
    *p          18.228   0.598
    *d           0.000   0.619

  Using partial waves for O as LCAO basis

Reference energy: -12877847.605335

Spin-paired calculation

Occupation numbers:
  Fermi-Dirac: width=0.1000 eV

Convergence criteria:
  Maximum total energy change: 0.0005 eV / electron
  Maximum integral of absolute density change: 0.0001 electrons
  Maximum integral of absolute eigenstate change: 4e-08 eV^2
  Maximum number of iterations: 333

Symmetries present (total): 1

  ( 1  0  0)
  ( 0  1  0)
  ( 0  0  1)

16 k-points: 4 x 4 x 1 Monkhorst-Pack grid
8 k-points in the irreducible part of the Brillouin zone
       k-points in crystal coordinates                weights
   0:     0.12500000   -0.37500000    0.00000000          2/16
   1:     0.12500000   -0.12500000    0.00000000          2/16
   2:     0.12500000    0.12500000    0.00000000          2/16
   3:     0.12500000    0.37500000    0.00000000          2/16
   4:     0.37500000   -0.37500000    0.00000000          2/16
   5:     0.37500000   -0.12500000    0.00000000          2/16
   6:     0.37500000    0.12500000    0.00000000          2/16
   7:     0.37500000    0.37500000    0.00000000          2/16

Wave functions: Plane wave expansion
  Cutoff energy: 400.000 eV
  Number of coefficients (min, max): 32894, 32940
  Pulay-stress correction: 0.000000 eV/Ang^3 (de/decut=0.000000)
  Using FFTW library
  ScaLapack parameters: grid=1x1, blocksize=None
  Wavefunction extrapolation:
    Improved wavefunction reuse through dual PAW basis 

Eigensolver
   Davidson(niter=2, smin=None, normalize=True) 

Densities:
  Coarse grid: 35*35*135 grid
  Fine grid: 70*70*270 grid
  Total Charge: 0.000000 

Density mixing:
  Method: separate
  Backend: pulay
  Linear mixing parameter: 0.05
  Mixing with 5 old densities
  Damping of long wave oscillations: 50 

Hamiltonian:
  XC and Coulomb potentials evaluated on a 70*70*270 grid
  Using the RPBE Exchange-Correlation functional
 

XC parameters: RPBE with 2 nearest neighbor stencil

Memory estimate:
  Process memory now: 151.31 MiB
  Calculator: 549.89 MiB
    Density: 51.27 MiB
      Arrays: 16.41 MiB
      Localized functions: 28.50 MiB
      Mixer: 6.36 MiB
    Hamiltonian: 11.63 MiB
      Arrays: 10.73 MiB
      XC: 0.00 MiB
      Poisson: 0.00 MiB
      vbar: 0.90 MiB
    Wavefunctions: 487.00 MiB
      Arrays psit_nG: 220.15 MiB
      Eigensolver: 251.95 MiB
      Projections: 2.75 MiB
      Projectors: 5.53 MiB
      PW-descriptor: 6.62 MiB

Total number of cores used: 16
Parallelization over k-points: 8
Domain decomposition: 1 x 1 x 2

Number of atoms: 46
Number of atomic orbitals: 550
Number of bands in calculation: 438
Bands to converge: occupied states only
Number of valence electrons: 723

... initialized

Initializing position-dependent things.

Density initialized from atomic densities
Creating initial wave functions:
  438 bands from LCAO basis set

                                             
                                             
                                             
                                             
                                             
                                             
                  Ag                         
                         Ir    Ir            
           OPd      Pd     Ir                
                   Ru     Pd     Ir          
        Ir    Pt    PAg    Pd                
                                             
        Ir     Pd    IAg    Ir     Pt        
                Ag     Ru     Pd             
                                             
           Pt     Ag    PPd    Ir            
                                             
            Pt     Pt    PPt    Ru           
       Ag     Ag     Ag                      
              Ru    Ir     Pt                
         Pd    Ir     Ru                     
                                             
                                             
                                             
                                             
                                             

Positions:
   0 Pd     0.000000    1.624086   10.000000    ( 0.0000,  0.0000,  0.0000)
   1 Ir     2.812999    1.624086   10.000000    ( 0.0000,  0.0000,  0.0000)
   2 Ru     5.625998    1.624086   10.000000    ( 0.0000,  0.0000,  0.0000)
   3 Ru     1.406500    4.060215   10.000000    ( 0.0000,  0.0000,  0.0000)
   4 Ir     4.219499    4.060215   10.000000    ( 0.0000,  0.0000,  0.0000)
   5 Pt     7.032498    4.060215   10.000000    ( 0.0000,  0.0000,  0.0000)
   6 Pd     2.812999    6.496343   10.000000    ( 0.0000,  0.0000,  0.0000)
   7 Pd     5.625998    6.496343   10.000000    ( 0.0000,  0.0000,  0.0000)
   8 Ru     8.438997    6.496343   10.000000    ( 0.0000,  0.0000,  0.0000)
   9 Ag     0.000000    0.000000   12.296804    ( 0.0000,  0.0000,  0.0000)
  10 Ag     2.812999    0.000000   12.296804    ( 0.0000,  0.0000,  0.0000)
  11 Ag     5.625998    0.000000   12.296804    ( 0.0000,  0.0000,  0.0000)
  12 Pt     1.406500    2.436129   12.296804    ( 0.0000,  0.0000,  0.0000)
  13 Pt     4.219499    2.436129   12.296804    ( 0.0000,  0.0000,  0.0000)
  14 Pt     7.032498    2.436129   12.296804    ( 0.0000,  0.0000,  0.0000)
  15 Ru     2.812999    4.872257   12.296804    ( 0.0000,  0.0000,  0.0000)
  16 Pt     5.625998    4.872257   12.296804    ( 0.0000,  0.0000,  0.0000)
  17 Ir     8.438997    4.872257   12.296804    ( 0.0000,  0.0000,  0.0000)
  18 Pt     1.331112    0.739375   14.657283    ( 0.0000,  0.0000,  0.0000)
  19 Ag     4.181622    0.793852   14.645499    ( 0.0000,  0.0000,  0.0000)
  20 Pd     7.001587    0.862206   14.620346    ( 0.0000,  0.0000,  0.0000)
  21 Ag     2.800841    3.198617   14.645984    ( 0.0000,  0.0000,  0.0000)
  22 Ru     5.661352    3.374873   14.464570    ( 0.0000,  0.0000,  0.0000)
  23 Pd     8.454364    3.209063   14.568969    ( 0.0000,  0.0000,  0.0000)
  24 Ir     4.203312    5.613553   14.568997    ( 0.0000,  0.0000,  0.0000)
  25 Ir     7.031881    5.578044   14.561300    ( 0.0000,  0.0000,  0.0000)
  26 Pt     9.857688    5.665883   14.596939    ( 0.0000,  0.0000,  0.0000)
  27 Ir    -0.077764    1.506761   16.938800    ( 0.0000,  0.0000,  0.0000)
  28 Pd     2.746751    1.593087   16.991368    ( 0.0000,  0.0000,  0.0000)
  29 Ag     5.532334    1.594992   16.918159    ( 0.0000,  0.0000,  0.0000)
  30 Pd     1.401555    4.031321   16.973309    ( 0.0000,  0.0000,  0.0000)
  31 Pd     4.186062    4.107308   16.892321    ( 0.0000,  0.0000,  0.0000)
  32 Pd     7.007491    3.969527   16.736476    ( 0.0000,  0.0000,  0.0000)
  33 Ru     2.845276    6.541012   16.753610    ( 0.0000,  0.0000,  0.0000)
  34 Pd     5.662228    6.450069   16.794393    ( 0.0000,  0.0000,  0.0000)
  35 Ir     8.552515    6.378355   16.920371    ( 0.0000,  0.0000,  0.0000)
  36 Ir     0.061963   -0.029589   18.981657    ( 0.0000,  0.0000,  0.0000)
  37 Pt     2.802470   -0.097062   19.141410    ( 0.0000,  0.0000,  0.0000)
  38 Ag     5.661265    0.013033   19.406409    ( 0.0000,  0.0000,  0.0000)
  39 Pd     1.350042    2.376862   19.278970    ( 0.0000,  0.0000,  0.0000)
  40 Pd     4.315258    2.518491   19.256067    ( 0.0000,  0.0000,  0.0000)
  41 Ir     7.173708    2.513849   19.018418    ( 0.0000,  0.0000,  0.0000)
  42 Ag     2.809713    4.893314   19.379442    ( 0.0000,  0.0000,  0.0000)
  43 Ir     5.700233    4.913916   19.039342    ( 0.0000,  0.0000,  0.0000)
  44 Ir     8.278779    4.849064   19.000358    ( 0.0000,  0.0000,  0.0000)
  45 O      1.404825    0.750070   20.706409    ( 0.0000,  0.0000,  0.0000)

Unit cell:
           periodic     x           y           z      points  spacing
  1. axis:    yes    8.465341    0.000000    0.000000    35     0.2095
  2. axis:    yes    4.232670    7.331200    0.000000    35     0.2095
  3. axis:    no     0.000000    0.000000   29.187217   135     0.2162

  Lengths:   8.465341   8.465341  29.187217
  Angles:   90.000000  90.000000  60.000000

Effective grid spacing dv^(1/3) = 0.2221

                     log10-error:    total        iterations:
           time      wfs    density  energy       fermi  poisson
iter:   1  14:23:17  +0.32   +inf  -321.441596    2             
iter:   2  14:24:26  -0.55  -1.16  -412.517278    36            
iter:   3  14:25:37  -0.67  -1.07  -332.234983    36            
iter:   4  14:26:45  -1.33  -1.17  -265.822400    37            
iter:   5  14:27:57  -1.78  -1.36  -245.163986    37            
iter:   6  14:29:08  -2.04  -1.47  -241.387202    3             
iter:   7  14:30:19  -2.20  -1.52  -239.758354    3             
iter:   8  14:31:26  -2.23  -1.57  -236.876728    3             
iter:   9  14:32:27  -1.83  -1.70  -241.500638    3             
iter:  10  14:33:35  -2.27  -1.68  -237.245581    2             
iter:  11  14:34:45  -2.81  -1.88  -235.011456    3             
iter:  12  14:35:55  -3.33  -2.10  -234.967453    3             
iter:  13  14:37:05  -3.54  -2.17  -235.041669    3             
iter:  14  14:38:14  -3.48  -2.18  -235.040702    3             
iter:  15  14:39:25  -3.83  -2.25  -234.988442    3             
iter:  16  14:40:34  -3.24  -2.28  -235.040021    3             
iter:  17  14:41:43  -3.36  -2.28  -235.041722    3             
iter:  18  14:42:51  -3.36  -2.32  -234.733901    3             
iter:  19  14:44:01  -3.94  -2.59  -234.671437    3             
iter:  20  14:45:12  -4.16  -2.78  -234.666461    2             
iter:  21  14:46:22  -4.58  -2.78  -234.650788    2             
iter:  22  14:47:30  -4.77  -2.90  -234.652334    2             
iter:  23  14:48:40  -4.28  -2.90  -234.663957    2             
iter:  24  14:49:49  -4.84  -2.83  -234.647205    2             
iter:  25  14:50:59  -5.12  -3.00  -234.644016    2             
iter:  26  14:52:10  -5.28  -3.09  -234.642480    2             
iter:  27  14:53:19  -5.45  -3.12  -234.643106    2             
iter:  28  14:54:29  -5.35  -3.16  -234.641317    2             
iter:  29  14:55:38  -5.43  -3.23  -234.640652    2             
iter:  30  14:56:40  -5.28  -3.22  -234.651447    2             
iter:  31  14:57:31  -5.39  -3.05  -234.640086    2             
iter:  32  14:58:22  -5.77  -3.37  -234.638337    2             
iter:  33  14:59:14  -5.81  -3.40  -234.638072    2             
iter:  34  15:00:10  -6.37  -3.48  -234.637734    2             
iter:  35  15:01:14  -6.10  -3.51  -234.637368    2             
iter:  36  15:02:18  -6.12  -3.53  -234.639799    2             
iter:  37  15:03:22  -5.96  -3.41  -234.637948    2             
iter:  38  15:04:27  -6.54  -3.57  -234.637115    2             
iter:  39  15:05:31  -6.42  -3.64  -234.637267    2             
iter:  40  15:06:35  -6.55  -3.70  -234.637149    2             
iter:  41  15:07:40  -6.30  -3.75  -234.636971    2             
iter:  42  15:08:31  -6.68  -3.80  -234.637513    2             
iter:  43  15:09:20  -7.04  -3.75  -234.637166    2             
iter:  44  15:10:09  -6.92  -3.86  -234.636825    2             
iter:  45  15:11:01  -6.68  -3.86  -234.637023    2             
iter:  46  15:11:57  -6.89  -4.00  -234.636915    2             
iter:  47  15:12:52  -7.27  -4.10  -234.636840    2             
iter:  48  15:13:48  -7.62  -4.14  -234.636987    2             

Converged after 48 iterations.

Dipole moment: (22.655351, 15.024737, -0.257893) |e|*Ang

Energy contributions relative to reference atoms: (reference = -12877847.605335)

Kinetic:       -240.742584
Potential:     +115.165089
External:        +0.000000
XC:            -101.128101
Entropy (-ST):   -2.253682
Local:           -6.804550
--------------------------
Free energy:   -235.763828
Extrapolated:  -234.636987

Fermi level: 0.93201

Showing only first 2 kpts
 Kpt  Band  Eigenvalues  Occupancy
  0   359      0.91306    0.13681
  0   360      0.93512    0.12306
  0   361      0.95722    0.10933
  0   362      0.97991    0.09563

  1   359      0.83716    0.18020
  1   360      0.84733    0.17498
  1   361      0.86905    0.16310
  1   362      0.91551    0.13529



Forces in eV/Ang:
  0 Pd   -0.12150    0.33354   -0.34622
  1 Ir    0.95480    0.69653    0.60132
  2 Ru   -1.08279    0.30173    0.68291
  3 Ru    0.43191    0.28289    1.59467
  4 Ir   -0.57858   -0.78917    1.18262
  5 Pt    0.16390    0.16467    0.07173
  6 Pd   -0.49452   -0.42641   -0.24376
  7 Pd    0.38706   -0.27158   -0.58224
  8 Ru    0.33943   -0.15665    0.53554
  9 Ag   -0.23990   -0.09749    0.06214
 10 Ag   -0.02524   -0.10237    0.04562
 11 Ag    0.07673   -0.16752   -0.14271
 12 Pt    0.09641    0.76213   -0.54937
 13 Pt    0.12371    0.56611   -0.73106
 14 Pt   -0.11202    0.21014   -0.19211
 15 Ru   -0.37023   -0.74834   -0.98523
 16 Pt   -0.41004    0.16329   -0.11590
 17 Ir    0.90153   -0.08406   -1.02273
 18 Pt    0.02739   -0.01888    0.02319
 19 Ag   -0.01081   -0.05155    0.01593
 20 Pd   -0.00579   -0.08338    0.08870
 21 Ag   -0.00518   -0.00816   -0.02326
 22 Ru   -0.01451   -0.00078   -0.03837
 23 Pd   -0.05067   -0.03052    0.06225
 24 Ir   -0.02993   -0.02509    0.00595
 25 Ir    0.01442   -0.04275    0.07527
 26 Pt   -0.03785   -0.09916   -0.24754
 27 Ir   -0.09388   -0.04523   -0.25120
 28 Pd    0.01634   -0.02154   -0.22810
 29 Ag   -0.02614   -0.01494   -0.00443
 30 Pd   -0.09462   -0.07959    0.16984
 31 Pd    0.02338   -0.03500    0.01778
 32 Pd    0.03090   -0.01509    0.03827
 33 Ru    0.12063    0.10801    0.23254
 34 Pd   -0.01997    0.01968   -0.06194
 35 Ir   -0.17012   -0.04844    0.24509
 36 Ir    0.51324    0.33732    0.99074
 37 Pt    0.09797    0.13126    0.91290
 38 Ag    0.03644   -0.03263   -0.05206
 39 Pd    0.06058    0.14806    0.49306
 40 Pd    0.07087    0.07923   -0.02470
 41 Ir   -0.33077    0.22975   -0.08901
 42 Ag   -0.04920   -0.00448   -0.03379
 43 Ir    0.10142   -0.40337   -0.11646
 44 Ir   -0.06569   -0.05818   -0.04915
 45 O    -0.08173   -0.47148   -1.93805

System changes: positions 

Initializing position-dependent things.

Density initialized from wave functions
                                             
                                             
                                             
                                             
                                             
                                             
                  Ag                         
                         Ir    Ir            
           OPd     RPd    PIr   Ir           
                     Ag                      
        Ir    Pt    Pd     Pd                
               Pd                            
        Ir           IAg    Ir     Pt        
                Ag     Ru     Pd             
                                             
           Pt     Ag    PPd    Ir            
                                             
            Pt     Pt    PPt    Ru           
       Ag     Ag    IAg    Pt                
                                             
         Pd    Ir     Ru                     
                                             
                                             
                                             
                                             
                                             

Positions:
   0 Pd     0.000000    1.624086   10.000000    ( 0.0000,  0.0000,  0.0000)
   1 Ir     2.812999    1.624086   10.000000    ( 0.0000,  0.0000,  0.0000)
   2 Ru     5.625998    1.624086   10.000000    ( 0.0000,  0.0000,  0.0000)
   3 Ru     1.406500    4.060215   10.000000    ( 0.0000,  0.0000,  0.0000)
   4 Ir     4.219499    4.060215   10.000000    ( 0.0000,  0.0000,  0.0000)
   5 Pt     7.032498    4.060215   10.000000    ( 0.0000,  0.0000,  0.0000)
   6 Pd     2.812999    6.496343   10.000000    ( 0.0000,  0.0000,  0.0000)
   7 Pd     5.625998    6.496343   10.000000    ( 0.0000,  0.0000,  0.0000)
   8 Ru     8.438997    6.496343   10.000000    ( 0.0000,  0.0000,  0.0000)
   9 Ag     0.000000    0.000000   12.296804    ( 0.0000,  0.0000,  0.0000)
  10 Ag     2.812999    0.000000   12.296804    ( 0.0000,  0.0000,  0.0000)
  11 Ag     5.625998    0.000000   12.296804    ( 0.0000,  0.0000,  0.0000)
  12 Pt     1.406500    2.436129   12.296804    ( 0.0000,  0.0000,  0.0000)
  13 Pt     4.219499    2.436129   12.296804    ( 0.0000,  0.0000,  0.0000)
  14 Pt     7.032498    2.436129   12.296804    ( 0.0000,  0.0000,  0.0000)
  15 Ru     2.812999    4.872257   12.296804    ( 0.0000,  0.0000,  0.0000)
  16 Pt     5.625998    4.872257   12.296804    ( 0.0000,  0.0000,  0.0000)
  17 Ir     8.438997    4.872257   12.296804    ( 0.0000,  0.0000,  0.0000)
  18 Pt     1.333851    0.737486   14.659602    ( 0.0000,  0.0000,  0.0000)
  19 Ag     4.180542    0.788697   14.647092    ( 0.0000,  0.0000,  0.0000)
  20 Pd     7.001008    0.853868   14.629216    ( 0.0000,  0.0000,  0.0000)
  21 Ag     2.800322    3.197802   14.643658    ( 0.0000,  0.0000,  0.0000)
  22 Ru     5.659901    3.374795   14.460733    ( 0.0000,  0.0000,  0.0000)
  23 Pd     8.449297    3.206011   14.575194    ( 0.0000,  0.0000,  0.0000)
  24 Ir     4.200320    5.611044   14.569591    ( 0.0000,  0.0000,  0.0000)
  25 Ir     7.033322    5.573769   14.568827    ( 0.0000,  0.0000,  0.0000)
  26 Pt     9.853903    5.655966   14.572185    ( 0.0000,  0.0000,  0.0000)
  27 Ir    -0.087151    1.502238   16.913680    ( 0.0000,  0.0000,  0.0000)
  28 Pd     2.748384    1.590933   16.968557    ( 0.0000,  0.0000,  0.0000)
  29 Ag     5.529720    1.593498   16.917716    ( 0.0000,  0.0000,  0.0000)
  30 Pd     1.392093    4.023361   16.990293    ( 0.0000,  0.0000,  0.0000)
  31 Pd     4.188400    4.103808   16.894099    ( 0.0000,  0.0000,  0.0000)
  32 Pd     7.010581    3.968018   16.740303    ( 0.0000,  0.0000,  0.0000)
  33 Ru     2.857339    6.551813   16.776864    ( 0.0000,  0.0000,  0.0000)
  34 Pd     5.660231    6.452037   16.788199    ( 0.0000,  0.0000,  0.0000)
  35 Ir     8.535503    6.373512   16.944880    ( 0.0000,  0.0000,  0.0000)
  36 Ir     0.113287    0.004143   19.080732    ( 0.0000,  0.0000,  0.0000)
  37 Pt     2.812267   -0.083936   19.232700    ( 0.0000,  0.0000,  0.0000)
  38 Ag     5.664909    0.009770   19.401203    ( 0.0000,  0.0000,  0.0000)
  39 Pd     1.356100    2.391668   19.328276    ( 0.0000,  0.0000,  0.0000)
  40 Pd     4.322345    2.526414   19.253596    ( 0.0000,  0.0000,  0.0000)
  41 Ir     7.140631    2.536824   19.009518    ( 0.0000,  0.0000,  0.0000)
  42 Ag     2.804793    4.892866   19.376064    ( 0.0000,  0.0000,  0.0000)
  43 Ir     5.710375    4.873579   19.027696    ( 0.0000,  0.0000,  0.0000)
  44 Ir     8.272211    4.843245   18.995443    ( 0.0000,  0.0000,  0.0000)
  45 O      1.396652    0.702923   20.512604    ( 0.0000,  0.0000,  0.0000)

Unit cell:
           periodic     x           y           z      points  spacing
  1. axis:    yes    8.465341    0.000000    0.000000    35     0.2095
  2. axis:    yes    4.232670    7.331200    0.000000    35     0.2095
  3. axis:    no     0.000000    0.000000   29.187217   135     0.2162

  Lengths:   8.465341   8.465341  29.187217
  Angles:   90.000000  90.000000  60.000000

Effective grid spacing dv^(1/3) = 0.2221

                     log10-error:    total        iterations:
           time      wfs    density  energy       fermi  poisson
iter:   1  15:15:11  -1.75   +inf  -246.435388    4             
iter:   2  15:16:07  -0.78  -1.66  -409.298800    38            
iter:   3  15:17:01  -1.17  -1.13  -259.504100    37            
iter:   4  15:17:57  -2.00  -1.55  -236.504211    36            
iter:   5  15:18:52  -2.78  -2.19  -236.952685    3             
iter:   6  15:19:48  -3.07  -2.03  -235.916201    3             
iter:   7  15:20:43  -3.48  -2.21  -235.293866    3             
iter:   8  15:21:37  -3.51  -2.51  -235.164483    2             
iter:   9  15:22:32  -3.91  -2.60  -235.090873    3             
iter:  10  15:23:27  -3.97  -2.75  -235.250437    2             
iter:  11  15:24:22  -3.79  -2.45  -235.115988    3             
iter:  12  15:25:17  -4.09  -2.67  -235.035780    3             
iter:  13  15:26:11  -4.59  -3.10  -235.032021    2             
iter:  14  15:27:10  -5.05  -3.14  -235.028593    2             
iter:  15  15:28:03  -5.15  -3.19  -235.027981    2             
iter:  16  15:28:56  -5.27  -3.23  -235.027865    2             
iter:  17  15:29:51  -5.51  -3.15  -235.025023    2             
iter:  18  15:30:43  -5.43  -3.39  -235.024912    2             
iter:  19  15:31:38  -5.76  -3.34  -235.022904    2             
iter:  20  15:32:32  -5.59  -3.59  -235.022614    2             
iter:  21  15:33:28  -5.77  -3.66  -235.023721    2             
iter:  22  15:34:24  -5.84  -3.45  -235.022358    2             
iter:  23  15:35:17  -6.01  -3.55  -235.022651    2             
iter:  24  15:36:07  -6.36  -3.79  -235.022378    2             
iter:  25  15:37:00  -6.30  -3.69  -235.022466    2             
iter:  26  15:37:52  -6.54  -3.98  -235.022278    2             
iter:  27  15:38:43  -6.84  -4.09  -235.022234    2             
iter:  28  15:39:34  -6.75  -4.09  -235.022194    2             
iter:  29  15:40:25  -6.99  -3.97  -235.022413    2             
iter:  30  15:41:16  -7.03  -4.24  -235.022165    2             
iter:  31  15:42:08  -7.48  -4.16  -235.022230    2             

Converged after 31 iterations.

Dipole moment: (20.006156, 12.524676, -0.112847) |e|*Ang

Energy contributions relative to reference atoms: (reference = -12877847.605335)

Kinetic:       -224.742285
Potential:     +100.668216
External:        +0.000000
XC:            -102.936110
Entropy (-ST):   -2.232894
Local:           -6.895605
--------------------------
Free energy:   -236.138678
Extrapolated:  -235.022230

Fermi level: 1.01025

Showing only first 2 kpts
 Kpt  Band  Eigenvalues  Occupancy
  0   359      0.98216    0.14244
  0   360      1.00847    0.12611
  0   361      1.04039    0.10630
  0   362      1.05940    0.09488

  1   359      0.90320    0.18617
  1   360      0.92828    0.17354
  1   361      0.94751    0.16297
  1   362      0.99276    0.13590



Forces in eV/Ang:
  0 Pd   -0.12473    0.32002   -0.35446
  1 Ir    0.95091    0.68243    0.61043
  2 Ru   -1.07583    0.28392    0.68390
  3 Ru    0.43240    0.27682    1.58618
  4 Ir   -0.58540   -0.77815    1.17588
  5 Pt    0.17826    0.16969    0.08118
  6 Pd   -0.49141   -0.41677   -0.23836
  7 Pd    0.38035   -0.25814   -0.57654
  8 Ru    0.33803   -0.14359    0.53988
  9 Ag   -0.24821   -0.09207    0.07554
 10 Ag   -0.02090   -0.10864    0.06362
 11 Ag    0.08547   -0.13251   -0.15526
 12 Pt    0.08386    0.75299   -0.54181
 13 Pt    0.11436    0.54479   -0.73160
 14 Pt   -0.10370    0.17512   -0.17876
 15 Ru   -0.36475   -0.73026   -0.97885
 16 Pt   -0.39847    0.20146   -0.11885
 17 Ir    0.88589   -0.10322   -0.98607
 18 Pt    0.00782   -0.02103   -0.06055
 19 Ag    0.03051   -0.07175    0.00571
 20 Pd   -0.05672   -0.09821    0.01253
 21 Ag   -0.01715    0.00827    0.00888
 22 Ru   -0.01353   -0.05199    0.03193
 23 Pd   -0.01368   -0.05601    0.05204
 24 Ir   -0.05497    0.00543    0.05974
 25 Ir    0.00818   -0.01094    0.03341
 26 Pt   -0.00072   -0.00748    0.05423
 27 Ir   -0.06745   -0.22426    0.33109
 28 Pd   -0.07933   -0.11059    0.12427
 29 Ag   -0.06795   -0.06571   -0.04967
 30 Pd    0.03591   -0.04624    0.06992
 31 Pd   -0.07355    0.01000   -0.02882
 32 Pd   -0.03763   -0.00561   -0.12247
 33 Ru   -0.03938   -0.03633    0.01020
 34 Pd    0.00278    0.03575    0.27005
 35 Ir   -0.01328    0.03263    0.04595
 36 Ir   -0.25313    0.03242   -0.38436
 37 Pt    0.78169   -0.45810   -0.25680
 38 Ag    0.12510   -0.01369   -0.05860
 39 Pd   -0.01192    1.01431   -0.39826
 40 Pd   -0.03065   -0.04081   -0.02501
 41 Ir   -0.02966   -0.00131   -0.04868
 42 Ag    0.03498    0.10836   -0.05382
 43 Ir    0.02464   -0.10600   -0.06353
 44 Ir    0.10149    0.15678    0.11277
 45 O    -0.35459   -0.61961    0.44100

System changes: positions 

Initializing position-dependent things.

Density initialized from wave functions
                                             
                                             
                                             
                                             
                                             
                                             
                  Ag                         
                         Ir    Ir            
           OPd     RPd    PIr   Ir           
                     Ag                      
        Ir    Pt    Pd     Pd                
               Pd     Ag                     
        Ir           Ir     Ir     Pt        
                Ag      Ru    Pd             
                                             
           Pt     Ag    PPd    Ir            
                                             
             Pt    Pt    PPt    Ru           
       Ag     Ag    IAg    Pt                
                                             
         Pd    Ir     Ru                     
                                             
                                             
                                             
                                             
                                             

Positions:
   0 Pd     0.000000    1.624086   10.000000    ( 0.0000,  0.0000,  0.0000)
   1 Ir     2.812999    1.624086   10.000000    ( 0.0000,  0.0000,  0.0000)
   2 Ru     5.625998    1.624086   10.000000    ( 0.0000,  0.0000,  0.0000)
   3 Ru     1.406500    4.060215   10.000000    ( 0.0000,  0.0000,  0.0000)
   4 Ir     4.219499    4.060215   10.000000    ( 0.0000,  0.0000,  0.0000)
   5 Pt     7.032498    4.060215   10.000000    ( 0.0000,  0.0000,  0.0000)
   6 Pd     2.812999    6.496343   10.000000    ( 0.0000,  0.0000,  0.0000)
   7 Pd     5.625998    6.496343   10.000000    ( 0.0000,  0.0000,  0.0000)
   8 Ru     8.438997    6.496343   10.000000    ( 0.0000,  0.0000,  0.0000)
   9 Ag     0.000000    0.000000   12.296804    ( 0.0000,  0.0000,  0.0000)
  10 Ag     2.812999    0.000000   12.296804    ( 0.0000,  0.0000,  0.0000)
  11 Ag     5.625998    0.000000   12.296804    ( 0.0000,  0.0000,  0.0000)
  12 Pt     1.406500    2.436129   12.296804    ( 0.0000,  0.0000,  0.0000)
  13 Pt     4.219499    2.436129   12.296804    ( 0.0000,  0.0000,  0.0000)
  14 Pt     7.032498    2.436129   12.296804    ( 0.0000,  0.0000,  0.0000)
  15 Ru     2.812999    4.872257   12.296804    ( 0.0000,  0.0000,  0.0000)
  16 Pt     5.625998    4.872257   12.296804    ( 0.0000,  0.0000,  0.0000)
  17 Ir     8.438997    4.872257   12.296804    ( 0.0000,  0.0000,  0.0000)
  18 Pt     1.335373    0.735116   14.655212    ( 0.0000,  0.0000,  0.0000)
  19 Ag     4.182782    0.781012   14.648075    ( 0.0000,  0.0000,  0.0000)
  20 Pd     6.996031    0.842946   14.633060    ( 0.0000,  0.0000,  0.0000)
  21 Ag     2.798710    3.198245   14.643678    ( 0.0000,  0.0000,  0.0000)
  22 Ru     5.658301    3.370375   14.462228    ( 0.0000,  0.0000,  0.0000)
  23 Pd     8.446549    3.200317   14.581549    ( 0.0000,  0.0000,  0.0000)
  24 Ir     4.194733    5.610715   14.574829    ( 0.0000,  0.0000,  0.0000)
  25 Ir     7.034467    5.571501   14.574015    ( 0.0000,  0.0000,  0.0000)
  26 Pt     9.852654    5.652220   14.568996    ( 0.0000,  0.0000,  0.0000)
  27 Ir    -0.095802    1.481857   16.933783    ( 0.0000,  0.0000,  0.0000)
  28 Pd     2.742190    1.580906   16.971900    ( 0.0000,  0.0000,  0.0000)
  29 Ag     5.523154    1.587473   16.913378    ( 0.0000,  0.0000,  0.0000)
  30 Pd     1.392157    4.016953   17.001538    ( 0.0000,  0.0000,  0.0000)
  31 Pd     4.182916    4.103554   16.892221    ( 0.0000,  0.0000,  0.0000)
  32 Pd     7.008370    3.967069   16.731151    ( 0.0000,  0.0000,  0.0000)
  33 Ru     2.857798    6.552134   16.785029    ( 0.0000,  0.0000,  0.0000)
  34 Pd     5.659839    6.455678   16.809085    ( 0.0000,  0.0000,  0.0000)
  35 Ir     8.529038    6.374750   16.956463    ( 0.0000,  0.0000,  0.0000)
  36 Ir     0.108004    0.017477   19.079351    ( 0.0000,  0.0000,  0.0000)
  37 Pt     2.881433   -0.118544   19.239659    ( 0.0000,  0.0000,  0.0000)
  38 Ag     5.676629    0.007588   19.394613    ( 0.0000,  0.0000,  0.0000)
  39 Pd     1.356995    2.482073   19.310090    ( 0.0000,  0.0000,  0.0000)
  40 Pd     4.321980    2.525452   19.250706    ( 0.0000,  0.0000,  0.0000)
  41 Ir     7.127735    2.543929   19.002607    ( 0.0000,  0.0000,  0.0000)
  42 Ag     2.806205    4.901887   19.370452    ( 0.0000,  0.0000,  0.0000)
  43 Ir     5.715644    4.851949   19.018667    ( 0.0000,  0.0000,  0.0000)
  44 Ir     8.278728    4.854673   19.003433    ( 0.0000,  0.0000,  0.0000)
  45 O      1.364106    0.635730   20.489022    ( 0.0000,  0.0000,  0.0000)

Unit cell:
           periodic     x           y           z      points  spacing
  1. axis:    yes    8.465341    0.000000    0.000000    35     0.2095
  2. axis:    yes    4.232670    7.331200    0.000000    35     0.2095
  3. axis:    no     0.000000    0.000000   29.187217   135     0.2162

  Lengths:   8.465341   8.465341  29.187217
  Angles:   90.000000  90.000000  60.000000

Effective grid spacing dv^(1/3) = 0.2221

                     log10-error:    total        iterations:
           time      wfs    density  energy       fermi  poisson
iter:   1  15:43:38  -2.00   +inf  -241.368995    3             
iter:   2  15:44:46  -1.00  -1.75  -402.609087    37            
iter:   3  15:45:55  -1.59  -1.13  -245.381509    37            
iter:   4  15:47:03  -2.23  -1.76  -236.055867    34            
iter:   5  15:48:11  -3.05  -2.25  -235.261489    3             
iter:   6  15:49:20  -3.76  -2.71  -235.204258    2             
iter:   7  15:50:28  -4.29  -2.83  -235.194521    2             
iter:   8  15:51:37  -4.14  -2.88  -235.166542    2             
iter:   9  15:52:45  -4.09  -3.07  -235.157959    2             
iter:  10  15:53:56  -4.64  -3.20  -235.178706    2             
iter:  11  15:55:06  -4.76  -2.95  -235.185889    2             
iter:  12  15:56:16  -5.05  -2.87  -235.154950    2             
iter:  13  15:57:25  -5.40  -3.38  -235.155747    2             
iter:  14  15:58:35  -5.45  -3.34  -235.153179    2             
iter:  15  15:59:45  -5.47  -3.51  -235.152136    2             
iter:  16  16:00:55  -5.85  -3.57  -235.153356    2             
iter:  17  16:02:03  -5.64  -3.50  -235.158320    2             
iter:  18  16:03:13  -5.78  -3.22  -235.151505    2             
iter:  19  16:04:23  -5.89  -3.66  -235.152229    2             
iter:  20  16:05:33  -6.12  -3.64  -235.151477    2             
iter:  21  16:06:42  -6.38  -3.94  -235.151332    2             
iter:  22  16:07:52  -6.28  -4.00  -235.151972    2             
iter:  23  16:09:01  -6.13  -3.95  -235.152378    2             
iter:  24  16:10:10  -6.55  -3.67  -235.151225    2             
iter:  25  16:11:19  -6.79  -4.05  -235.151590    2             
iter:  26  16:12:26  -7.03  -4.08  -235.151488    2             
iter:  27  16:13:36  -7.33  -4.17  -235.151462    2             
iter:  28  16:14:45  -7.39  -4.20  -235.151639    2             
iter:  29  16:15:54  -7.25  -4.28  -235.151614    2             
iter:  30  16:17:05  -7.38  -4.10  -235.151382    2             
iter:  31  16:18:14  -7.16  -4.27  -235.151763    2             
iter:  32  16:19:23  -7.45  -4.11  -235.151584    2             

Converged after 32 iterations.

Dipole moment: (22.889144, 12.449388, -0.119739) |e|*Ang

Energy contributions relative to reference atoms: (reference = -12877847.605335)

Kinetic:       -224.507802
Potential:     +100.389007
External:        +0.000000
XC:            -103.013829
Entropy (-ST):   -2.243912
Local:           -6.897004
--------------------------
Free energy:   -236.273540
Extrapolated:  -235.151584

Fermi level: 1.00674

Showing only first 2 kpts
 Kpt  Band  Eigenvalues  Occupancy
  0   359      0.97794    0.14288
  0   360      1.00213    0.12788
  0   361      1.04454    0.10166
  0   362      1.05522    0.09528

  1   359      0.90554    0.18335
  1   360      0.92298    0.17449
  1   361      0.95115    0.15888
  1   362      0.98545    0.13826



Forces in eV/Ang:
  0 Pd   -0.12508    0.32391   -0.35453
  1 Ir    0.95944    0.68555    0.60424
  2 Ru   -1.08071    0.28360    0.68502
  3 Ru    0.43625    0.27726    1.59533
  4 Ir   -0.58918   -0.78420    1.17538
  5 Pt    0.18179    0.17171    0.08233
  6 Pd   -0.49417   -0.41868   -0.24041
  7 Pd    0.38388   -0.25827   -0.57926
  8 Ru    0.33347   -0.14038    0.54410
  9 Ag   -0.25155   -0.09565    0.08272
 10 Ag   -0.01949   -0.11650    0.06723
 11 Ag    0.08634   -0.12867   -0.16541
 12 Pt    0.07238    0.75858   -0.52783
 13 Pt    0.11504    0.54140   -0.71957
 14 Pt   -0.10198    0.16743   -0.14980
 15 Ru   -0.36225   -0.73657   -0.97714
 16 Pt   -0.39820    0.19756   -0.07381
 17 Ir    0.87542   -0.11994   -0.97997
 18 Pt   -0.01882   -0.06145    0.03955
 19 Ag   -0.01854   -0.03975    0.00155
 20 Pd   -0.00137   -0.05056   -0.01054
 21 Ag   -0.02106   -0.03986    0.02857
 22 Ru   -0.01761   -0.01774   -0.00465
 23 Pd   -0.00458   -0.06020    0.01185
 24 Ir    0.00285    0.02561    0.05150
 25 Ir   -0.02783   -0.00722    0.01179
 26 Pt   -0.01734   -0.02174    0.14187
 27 Ir   -0.03926   -0.10342    0.16588
 28 Pd   -0.07416   -0.09695    0.18965
 29 Ag   -0.07264   -0.01520   -0.04582
 30 Pd    0.03389    0.07238   -0.13968
 31 Pd   -0.06048   -0.00663   -0.02997
 32 Pd   -0.00680   -0.02649   -0.04422
 33 Ru   -0.12540   -0.14782   -0.11975
 34 Pd   -0.02826    0.02398    0.10788
 35 Ir    0.08290    0.02604   -0.12116
 36 Ir    0.02583    0.15388   -0.20645
 37 Pt   -0.02143   -0.03850   -0.14831
 38 Ag    0.20817    0.03906   -0.00566
 39 Pd   -0.11105    0.05864   -0.02515
 40 Pd   -0.09756   -0.07087   -0.01126
 41 Ir    0.11030   -0.00701    0.01764
 42 Ag    0.14691    0.15093   -0.00960
 43 Ir    0.02061   -0.00712    0.01535
 44 Ir    0.15087   -0.14532    0.11685
 45 O    -0.15340   -0.21549    0.18111

System changes: positions 

Initializing position-dependent things.

Density initialized from wave functions
                                             
                                             
                                             
                                             
                                             
                                             
                  Ag                         
                         Ir    Ir            
           OPd     RPd    PIr    Ir          
                     Ag                      
        Ir    Pt    Pd     Pd                
               Pd                            
        Ir           IAg    Ir     Pt        
                Ag      Ru    Pd             
                                             
           Pt     Ag    PPd    Ir            
                                             
             Pt    Pt    PPt    Ru           
        Ag    Ag    IAg    Pt                
                                             
         Pd    Ir     Ru                     
                                             
                                             
                                             
                                             
                                             

Positions:
   0 Pd     0.000000    1.624086   10.000000    ( 0.0000,  0.0000,  0.0000)
   1 Ir     2.812999    1.624086   10.000000    ( 0.0000,  0.0000,  0.0000)
   2 Ru     5.625998    1.624086   10.000000    ( 0.0000,  0.0000,  0.0000)
   3 Ru     1.406500    4.060215   10.000000    ( 0.0000,  0.0000,  0.0000)
   4 Ir     4.219499    4.060215   10.000000    ( 0.0000,  0.0000,  0.0000)
   5 Pt     7.032498    4.060215   10.000000    ( 0.0000,  0.0000,  0.0000)
   6 Pd     2.812999    6.496343   10.000000    ( 0.0000,  0.0000,  0.0000)
   7 Pd     5.625998    6.496343   10.000000    ( 0.0000,  0.0000,  0.0000)
   8 Ru     8.438997    6.496343   10.000000    ( 0.0000,  0.0000,  0.0000)
   9 Ag     0.000000    0.000000   12.296804    ( 0.0000,  0.0000,  0.0000)
  10 Ag     2.812999    0.000000   12.296804    ( 0.0000,  0.0000,  0.0000)
  11 Ag     5.625998    0.000000   12.296804    ( 0.0000,  0.0000,  0.0000)
  12 Pt     1.406500    2.436129   12.296804    ( 0.0000,  0.0000,  0.0000)
  13 Pt     4.219499    2.436129   12.296804    ( 0.0000,  0.0000,  0.0000)
  14 Pt     7.032498    2.436129   12.296804    ( 0.0000,  0.0000,  0.0000)
  15 Ru     2.812999    4.872257   12.296804    ( 0.0000,  0.0000,  0.0000)
  16 Pt     5.625998    4.872257   12.296804    ( 0.0000,  0.0000,  0.0000)
  17 Ir     8.438997    4.872257   12.296804    ( 0.0000,  0.0000,  0.0000)
  18 Pt     1.333621    0.727573   14.659307    ( 0.0000,  0.0000,  0.0000)
  19 Ag     4.180888    0.774977   14.648508    ( 0.0000,  0.0000,  0.0000)
  20 Pd     6.995127    0.834978   14.633033    ( 0.0000,  0.0000,  0.0000)
  21 Ag     2.796021    3.193662   14.646801    ( 0.0000,  0.0000,  0.0000)
  22 Ru     5.655943    3.367702   14.461627    ( 0.0000,  0.0000,  0.0000)
  23 Pd     8.445267    3.192363   14.584263    ( 0.0000,  0.0000,  0.0000)
  24 Ir     4.194052    5.613434   14.581539    ( 0.0000,  0.0000,  0.0000)
  25 Ir     7.031530    5.570040   14.576651    ( 0.0000,  0.0000,  0.0000)
  26 Pt     9.850208    5.648472   14.583079    ( 0.0000,  0.0000,  0.0000)
  27 Ir    -0.102223    1.466744   16.953901    ( 0.0000,  0.0000,  0.0000)
  28 Pd     2.732897    1.568175   16.992547    ( 0.0000,  0.0000,  0.0000)
  29 Ag     5.513677    1.584762   16.907459    ( 0.0000,  0.0000,  0.0000)
  30 Pd     1.395382    4.023797   16.988287    ( 0.0000,  0.0000,  0.0000)
  31 Pd     4.175349    4.102501   16.888635    ( 0.0000,  0.0000,  0.0000)
  32 Pd     7.007498    3.963779   16.725042    ( 0.0000,  0.0000,  0.0000)
  33 Ru     2.844306    6.535951   16.774088    ( 0.0000,  0.0000,  0.0000)
  34 Pd     5.656387    6.459095   16.824009    ( 0.0000,  0.0000,  0.0000)
  35 Ir     8.536431    6.377571   16.945934    ( 0.0000,  0.0000,  0.0000)
  36 Ir     0.113937    0.039510   19.062561    ( 0.0000,  0.0000,  0.0000)
  37 Pt     2.889474   -0.126928   19.230178    ( 0.0000,  0.0000,  0.0000)
  38 Ag     5.702505    0.011537   19.392652    ( 0.0000,  0.0000,  0.0000)
  39 Pd     1.344782    2.502698   19.308183    ( 0.0000,  0.0000,  0.0000)
  40 Pd     4.311216    2.517733   19.248822    ( 0.0000,  0.0000,  0.0000)
  41 Ir     7.136208    2.545788   19.003014    ( 0.0000,  0.0000,  0.0000)
  42 Ag     2.822953    4.920498   19.368309    ( 0.0000,  0.0000,  0.0000)
  43 Ir     5.719494    4.845150   19.018313    ( 0.0000,  0.0000,  0.0000)
  44 Ir     8.296536    4.839152   19.017655    ( 0.0000,  0.0000,  0.0000)
  45 O      1.341254    0.598010   20.492513    ( 0.0000,  0.0000,  0.0000)

Unit cell:
           periodic     x           y           z      points  spacing
  1. axis:    yes    8.465341    0.000000    0.000000    35     0.2095
  2. axis:    yes    4.232670    7.331200    0.000000    35     0.2095
  3. axis:    no     0.000000    0.000000   29.187217   135     0.2162

  Lengths:   8.465341   8.465341  29.187217
  Angles:   90.000000  90.000000  60.000000

Effective grid spacing dv^(1/3) = 0.2221

                     log10-error:    total        iterations:
           time      wfs    density  energy       fermi  poisson
iter:   1  16:21:10  -2.48   +inf  -235.595967    3             
iter:   2  16:22:19  -2.84  -2.45  -238.074804    3             
iter:   3  16:23:30  -2.96  -1.93  -236.647179    3             
iter:   4  16:24:41  -3.72  -2.06  -235.215076    3             
iter:   5  16:25:52  -4.44  -2.93  -235.212277    3             
iter:   6  16:27:03  -4.64  -3.00  -235.198122    3             
iter:   7  16:28:12  -4.93  -3.09  -235.194975    2             
iter:   8  16:29:23  -4.69  -3.22  -235.190818    2             
iter:   9  16:30:33  -4.98  -3.43  -235.190705    2             
iter:  10  16:31:44  -5.31  -3.38  -235.195765    2             
iter:  11  16:32:47  -5.74  -3.19  -235.189223    2             
iter:  12  16:33:39  -5.93  -3.65  -235.188368    2             
iter:  13  16:34:32  -6.16  -3.65  -235.189495    2             
iter:  14  16:35:23  -6.26  -3.68  -235.188966    2             
iter:  15  16:36:15  -6.39  -3.80  -235.188874    2             
iter:  16  16:37:06  -6.54  -3.90  -235.189603    2             
iter:  17  16:37:50  -6.65  -3.65  -235.189009    2             
iter:  18  16:38:34  -6.61  -3.92  -235.188553    2             
iter:  19  16:39:19  -6.81  -4.01  -235.189094    2             
iter:  20  16:40:03  -6.85  -4.04  -235.188755    2             
iter:  21  16:40:47  -6.95  -4.22  -235.188674    2             
iter:  22  16:41:32  -7.14  -4.25  -235.188752    2             
iter:  23  16:42:16  -7.27  -4.11  -235.188704    2             
iter:  24  16:43:00  -7.21  -4.21  -235.188511    2             
iter:  25  16:43:44  -7.20  -4.30  -235.188908    2             
iter:  26  16:44:33  -7.28  -4.25  -235.188648    2             
iter:  27  16:45:22  -7.65  -4.41  -235.188610    2             

Converged after 27 iterations.

Dipole moment: (22.774644, 10.577513, -0.121606) |e|*Ang

Energy contributions relative to reference atoms: (reference = -12877847.605335)

Kinetic:       -223.273068
Potential:      +99.271343
External:        +0.000000
XC:            -103.159846
Entropy (-ST):   -2.248923
Local:           -6.902578
--------------------------
Free energy:   -236.313072
Extrapolated:  -235.188610

Fermi level: 1.00576

Showing only first 2 kpts
 Kpt  Band  Eigenvalues  Occupancy
  0   359      0.97882    0.14174
  0   360      0.99814    0.12976
  0   361      1.04003    0.10379
  0   362      1.05634    0.09405

  1   359      0.90095    0.18510
  1   360      0.91940    0.17585
  1   361      0.95093    0.15844
  1   362      0.98325    0.13901



Forces in eV/Ang:
  0 Pd   -0.12505    0.32453   -0.35398
  1 Ir    0.96023    0.68683    0.60111
  2 Ru   -1.08069    0.28531    0.68453
  3 Ru    0.43570    0.28324    1.60602
  4 Ir   -0.58764   -0.78380    1.18297
  5 Pt    0.18036    0.16913    0.07792
  6 Pd   -0.49321   -0.41755   -0.23994
  7 Pd    0.38407   -0.25811   -0.57820
  8 Ru    0.33253   -0.14252    0.55125
  9 Ag   -0.24773   -0.09917    0.08470
 10 Ag   -0.02691   -0.11910    0.07095
 11 Ag    0.08536   -0.15321   -0.14477
 12 Pt    0.06986    0.75676   -0.51677
 13 Pt    0.10871    0.53823   -0.70806
 14 Pt   -0.09938    0.16322   -0.13690
 15 Ru   -0.37030   -0.74255   -0.96943
 16 Pt   -0.40376    0.19824   -0.05551
 17 Ir    0.88054   -0.12372   -0.96257
 18 Pt   -0.01446   -0.03287    0.05933
 19 Ag   -0.04975    0.00199   -0.01424
 20 Pd    0.00160   -0.00707   -0.01909
 21 Ag   -0.00301   -0.07025    0.01210
 22 Ru   -0.01550   -0.00386   -0.01730
 23 Pd   -0.01717   -0.04189   -0.02991
 24 Ir    0.02029   -0.03146   -0.00863
 25 Ir   -0.05198   -0.02013    0.01028
 26 Pt   -0.01558   -0.03532   -0.02248
 27 Ir   -0.06341   -0.00057   -0.16377
 28 Pd   -0.04539   -0.01211    0.08988
 29 Ag   -0.01437    0.04536    0.00315
 30 Pd    0.00620    0.02121   -0.07841
 31 Pd    0.02299   -0.03540    0.00114
 32 Pd    0.01320    0.00053    0.07118
 33 Ru   -0.09539   -0.07199   -0.09495
 34 Pd   -0.03782   -0.07338   -0.00397
 35 Ir    0.00262   -0.09305    0.06670
 36 Ir    0.04677    0.05440    0.07495
 37 Pt   -0.04627   -0.05157   -0.06018
 38 Ag    0.07620    0.06316   -0.02054
 39 Pd   -0.00926   -0.06737    0.08699
 40 Pd   -0.06461   -0.04709   -0.01260
 41 Ir   -0.05422   -0.01049    0.02916
 42 Ag    0.12830    0.04786   -0.01417
 43 Ir    0.11190   -0.05830   -0.00316
 44 Ir    0.04456    0.03216   -0.07662
 45 O     0.06523   -0.04796    0.12020

System changes: positions 

Initializing position-dependent things.

Density initialized from wave functions
                                             
                                             
                                             
                                             
                                             
                                             
                  Ag                         
                         Ir    Ir            
           OPd     RPd    PIr    Ir          
                     Ag                      
        Ir    Pt    Pd     Pd                
               Pd                            
        Ir           IAg    Ir     Pt        
                Ag      Ru    Pd             
                                             
           Pt     Ag    PPd    Ir            
                                             
             Pt    Pt     Pt    Ru           
        Ag    Ag    IAg    Pt                
                                             
         Pd    Ir     Ru                     
                                             
                                             
                                             
                                             
                                             

Positions:
   0 Pd     0.000000    1.624086   10.000000    ( 0.0000,  0.0000,  0.0000)
   1 Ir     2.812999    1.624086   10.000000    ( 0.0000,  0.0000,  0.0000)
   2 Ru     5.625998    1.624086   10.000000    ( 0.0000,  0.0000,  0.0000)
   3 Ru     1.406500    4.060215   10.000000    ( 0.0000,  0.0000,  0.0000)
   4 Ir     4.219499    4.060215   10.000000    ( 0.0000,  0.0000,  0.0000)
   5 Pt     7.032498    4.060215   10.000000    ( 0.0000,  0.0000,  0.0000)
   6 Pd     2.812999    6.496343   10.000000    ( 0.0000,  0.0000,  0.0000)
   7 Pd     5.625998    6.496343   10.000000    ( 0.0000,  0.0000,  0.0000)
   8 Ru     8.438997    6.496343   10.000000    ( 0.0000,  0.0000,  0.0000)
   9 Ag     0.000000    0.000000   12.296804    ( 0.0000,  0.0000,  0.0000)
  10 Ag     2.812999    0.000000   12.296804    ( 0.0000,  0.0000,  0.0000)
  11 Ag     5.625998    0.000000   12.296804    ( 0.0000,  0.0000,  0.0000)
  12 Pt     1.406500    2.436129   12.296804    ( 0.0000,  0.0000,  0.0000)
  13 Pt     4.219499    2.436129   12.296804    ( 0.0000,  0.0000,  0.0000)
  14 Pt     7.032498    2.436129   12.296804    ( 0.0000,  0.0000,  0.0000)
  15 Ru     2.812999    4.872257   12.296804    ( 0.0000,  0.0000,  0.0000)
  16 Pt     5.625998    4.872257   12.296804    ( 0.0000,  0.0000,  0.0000)
  17 Ir     8.438997    4.872257   12.296804    ( 0.0000,  0.0000,  0.0000)
  18 Pt     1.331379    0.721059   14.667318    ( 0.0000,  0.0000,  0.0000)
  19 Ag     4.174613    0.772784   14.647039    ( 0.0000,  0.0000,  0.0000)
  20 Pd     6.994740    0.830944   14.630881    ( 0.0000,  0.0000,  0.0000)
  21 Ag     2.794662    3.183983   14.649321    ( 0.0000,  0.0000,  0.0000)
  22 Ru     5.653269    3.366092   14.459559    ( 0.0000,  0.0000,  0.0000)
  23 Pd     8.442769    3.184503   14.581985    ( 0.0000,  0.0000,  0.0000)
  24 Ir     4.195911    5.610758   14.583138    ( 0.0000,  0.0000,  0.0000)
  25 Ir     7.024538    5.567152   14.578913    ( 0.0000,  0.0000,  0.0000)
  26 Pt     9.847552    5.643043   14.585582    ( 0.0000,  0.0000,  0.0000)
  27 Ir    -0.112101    1.460417   16.943409    ( 0.0000,  0.0000,  0.0000)
  28 Pd     2.724066    1.561856   17.010645    ( 0.0000,  0.0000,  0.0000)
  29 Ag     5.508419    1.588770   16.905546    ( 0.0000,  0.0000,  0.0000)
  30 Pd     1.397371    4.028406   16.974957    ( 0.0000,  0.0000,  0.0000)
  31 Pd     4.175055    4.098084   16.887395    ( 0.0000,  0.0000,  0.0000)
  32 Pd     7.008555    3.962672   16.730607    ( 0.0000,  0.0000,  0.0000)
  33 Ru     2.828427    6.521860   16.759380    ( 0.0000,  0.0000,  0.0000)
  34 Pd     5.650826    6.451955   16.829943    ( 0.0000,  0.0000,  0.0000)
  35 Ir     8.539220    6.367928   16.950234    ( 0.0000,  0.0000,  0.0000)
  36 Ir     0.120301    0.053617   19.063758    ( 0.0000,  0.0000,  0.0000)
  37 Pt     2.890471   -0.137871   19.218847    ( 0.0000,  0.0000,  0.0000)
  38 Ag     5.720861    0.020148   19.389325    ( 0.0000,  0.0000,  0.0000)
  39 Pd     1.339429    2.506679   19.315820    ( 0.0000,  0.0000,  0.0000)
  40 Pd     4.299878    2.509432   19.246595    ( 0.0000,  0.0000,  0.0000)
  41 Ir     7.132706    2.545234   19.006299    ( 0.0000,  0.0000,  0.0000)
  42 Ag     2.843755    4.932977   19.365678    ( 0.0000,  0.0000,  0.0000)
  43 Ir     5.733896    4.835530   19.017525    ( 0.0000,  0.0000,  0.0000)
  44 Ir     8.308318    4.838202   19.014227    ( 0.0000,  0.0000,  0.0000)
  45 O      1.339261    0.576528   20.509455    ( 0.0000,  0.0000,  0.0000)

Unit cell:
           periodic     x           y           z      points  spacing
  1. axis:    yes    8.465341    0.000000    0.000000    35     0.2095
  2. axis:    yes    4.232670    7.331200    0.000000    35     0.2095
  3. axis:    no     0.000000    0.000000   29.187217   135     0.2162

  Lengths:   8.465341   8.465341  29.187217
  Angles:   90.000000  90.000000  60.000000

Effective grid spacing dv^(1/3) = 0.2221

                     log10-error:    total        iterations:
           time      wfs    density  energy       fermi  poisson
iter:   1  16:47:01  -2.76   +inf  -235.397444    2             
iter:   2  16:47:50  -2.89  -2.56  -240.856501    3             
iter:   3  16:48:39  -3.05  -1.78  -235.317374    2             
iter:   4  16:49:28  -4.02  -2.61  -235.252243    3             
iter:   5  16:50:17  -4.71  -2.85  -235.212234    3             
iter:   6  16:51:06  -5.17  -3.23  -235.208996    2             
iter:   7  16:51:55  -5.20  -3.35  -235.207071    2             
iter:   8  16:52:44  -5.13  -3.46  -235.206206    2             
iter:   9  16:53:38  -5.36  -3.53  -235.212931    2             
iter:  10  16:54:33  -5.67  -3.22  -235.206426    2             
iter:  11  16:55:28  -6.06  -3.60  -235.205614    2             
iter:  12  16:56:24  -6.36  -3.66  -235.205926    2             
iter:  13  16:57:19  -6.46  -3.82  -235.205739    2             
iter:  14  16:58:14  -6.55  -3.90  -235.205735    2             
iter:  15  16:59:13  -6.45  -4.00  -235.206327    2             
iter:  16  17:00:20  -6.80  -3.78  -235.206009    2             
iter:  17  17:01:29  -6.80  -3.87  -235.205540    2             
iter:  18  17:02:37  -6.77  -4.06  -235.206014    2             
iter:  19  17:03:45  -7.03  -4.11  -235.205853    2             
iter:  20  17:04:52  -7.25  -4.29  -235.205813    2             
iter:  21  17:06:03  -7.21  -4.32  -235.205822    2             
iter:  22  17:07:15  -7.03  -4.27  -235.206089    2             
iter:  23  17:08:28  -6.94  -3.90  -235.205538    2             
iter:  24  17:09:43  -7.58  -4.42  -235.205740    2             

Converged after 24 iterations.

Dipole moment: (21.681608, 9.050246, -0.125680) |e|*Ang

Energy contributions relative to reference atoms: (reference = -12877847.605335)

Kinetic:       -222.626912
Potential:      +98.673782
External:        +0.000000
XC:            -103.224804
Entropy (-ST):   -2.250330
Local:           -6.902640
--------------------------
Free energy:   -236.330905
Extrapolated:  -235.205740

Fermi level: 1.00384

Showing only first 2 kpts
 Kpt  Band  Eigenvalues  Occupancy
  0   359      0.97836    0.14084
  0   360      0.99653    0.12957
  0   361      1.03706    0.10443
  0   362      1.05453    0.09398

  1   359      0.89704    0.18605
  1   360      0.91668    0.17627
  1   361      0.94964    0.15807
  1   362      0.97910    0.14038



Forces in eV/Ang:
  0 Pd   -0.12530    0.32539   -0.35483
  1 Ir    0.96099    0.68781    0.60039
  2 Ru   -1.07810    0.28708    0.68075
  3 Ru    0.43291    0.28353    1.61100
  4 Ir   -0.58603   -0.78192    1.18401
  5 Pt    0.17680    0.16660    0.06958
  6 Pd   -0.49286   -0.41726   -0.23956
  7 Pd    0.38461   -0.25857   -0.57794
  8 Ru    0.33185   -0.14402    0.55229
  9 Ag   -0.23887   -0.10013    0.09269
 10 Ag   -0.03861   -0.12281    0.07559
 11 Ag    0.08049   -0.16512   -0.13801
 12 Pt    0.07435    0.74719   -0.51998
 13 Pt    0.10115    0.54005   -0.71348
 14 Pt   -0.10307    0.15801   -0.15042
 15 Ru   -0.37483   -0.75259   -0.96470
 16 Pt   -0.40384    0.20013   -0.06686
 17 Ir    0.87925   -0.12559   -0.95138
 18 Pt   -0.00897   -0.00479    0.01695
 19 Ag   -0.01956   -0.02106    0.02681
 20 Pd   -0.04899    0.01244   -0.04097
 21 Ag   -0.00098   -0.03837   -0.00203
 22 Ru    0.00126   -0.02886    0.01140
 23 Pd   -0.03500    0.00401   -0.01220
 24 Ir   -0.01517   -0.06578   -0.04418
 25 Ir   -0.02534   -0.02995   -0.00433
 26 Pt   -0.03396   -0.02693   -0.12077
 27 Ir   -0.04874   -0.03630   -0.06948
 28 Pd   -0.02106    0.02818   -0.01916
 29 Ag   -0.01894    0.00651   -0.01948
 30 Pd    0.00766   -0.08605    0.01882
 31 Pd    0.04165   -0.05303    0.00597
 32 Pd    0.01558   -0.02850   -0.00645
 33 Ru    0.01260    0.04295   -0.00648
 34 Pd   -0.05619   -0.07117   -0.02532
 35 Ir   -0.01962    0.01816    0.00940
 36 Ir    0.09052    0.07653    0.13946
 37 Pt   -0.03447   -0.00671    0.04892
 38 Ag   -0.01461    0.03870   -0.01349
 39 Pd    0.03974   -0.05807    0.08631
 40 Pd   -0.01791   -0.01272    0.00767
 41 Ir   -0.02812   -0.01152   -0.01170
 42 Ag    0.07735   -0.01522   -0.02525
 43 Ir    0.03989   -0.08914    0.01868
 44 Ir    0.05185   -0.01783   -0.01291
 45 O     0.08520   -0.01065   -0.09897

System changes: positions 

Initializing position-dependent things.

Density initialized from wave functions
                                             
                                             
                                             
                                             
                                             
                                             
                  Ag                         
                         Ir    Ir            
           OPd     RPd    PIr    Ir          
                      Ag                     
        Ir    PPt   Pd     Pd                
               Pd                            
        Ir           IAg    Ir     Pt        
                Ag      Ru    Pd             
                                             
           Pt     Ag    PPd    Ir            
                                             
             Pt    Pt     Pt    Ru           
        Ag    Ag     Ag    Pt                
                                             
         Pd    Ir     Ru                     
                                             
                                             
                                             
                                             
                                             

Positions:
   0 Pd     0.000000    1.624086   10.000000    ( 0.0000,  0.0000,  0.0000)
   1 Ir     2.812999    1.624086   10.000000    ( 0.0000,  0.0000,  0.0000)
   2 Ru     5.625998    1.624086   10.000000    ( 0.0000,  0.0000,  0.0000)
   3 Ru     1.406500    4.060215   10.000000    ( 0.0000,  0.0000,  0.0000)
   4 Ir     4.219499    4.060215   10.000000    ( 0.0000,  0.0000,  0.0000)
   5 Pt     7.032498    4.060215   10.000000    ( 0.0000,  0.0000,  0.0000)
   6 Pd     2.812999    6.496343   10.000000    ( 0.0000,  0.0000,  0.0000)
   7 Pd     5.625998    6.496343   10.000000    ( 0.0000,  0.0000,  0.0000)
   8 Ru     8.438997    6.496343   10.000000    ( 0.0000,  0.0000,  0.0000)
   9 Ag     0.000000    0.000000   12.296804    ( 0.0000,  0.0000,  0.0000)
  10 Ag     2.812999    0.000000   12.296804    ( 0.0000,  0.0000,  0.0000)
  11 Ag     5.625998    0.000000   12.296804    ( 0.0000,  0.0000,  0.0000)
  12 Pt     1.406500    2.436129   12.296804    ( 0.0000,  0.0000,  0.0000)
  13 Pt     4.219499    2.436129   12.296804    ( 0.0000,  0.0000,  0.0000)
  14 Pt     7.032498    2.436129   12.296804    ( 0.0000,  0.0000,  0.0000)
  15 Ru     2.812999    4.872257   12.296804    ( 0.0000,  0.0000,  0.0000)
  16 Pt     5.625998    4.872257   12.296804    ( 0.0000,  0.0000,  0.0000)
  17 Ir     8.438997    4.872257   12.296804    ( 0.0000,  0.0000,  0.0000)
  18 Pt     1.329004    0.716154   14.673451    ( 0.0000,  0.0000,  0.0000)
  19 Ag     4.169096    0.767855   14.649703    ( 0.0000,  0.0000,  0.0000)
  20 Pd     6.988040    0.828792   14.624881    ( 0.0000,  0.0000,  0.0000)
  21 Ag     2.793409    3.173989   14.650774    ( 0.0000,  0.0000,  0.0000)
  22 Ru     5.651715    3.361064   14.460081    ( 0.0000,  0.0000,  0.0000)
  23 Pd     8.436991    3.179727   14.580077    ( 0.0000,  0.0000,  0.0000)
  24 Ir     4.194503    5.601767   14.579779    ( 0.0000,  0.0000,  0.0000)
  25 Ir     7.017673    5.561797   14.580060    ( 0.0000,  0.0000,  0.0000)
  26 Pt     9.841760    5.636538   14.574192    ( 0.0000,  0.0000,  0.0000)
  27 Ir    -0.124215    1.449379   16.934594    ( 0.0000,  0.0000,  0.0000)
  28 Pd     2.715407    1.559810   17.020694    ( 0.0000,  0.0000,  0.0000)
  29 Ag     5.501824    1.590737   16.901111    ( 0.0000,  0.0000,  0.0000)
  30 Pd     1.399948    4.020688   16.969476    ( 0.0000,  0.0000,  0.0000)
  31 Pd     4.178538    4.089343   16.886858    ( 0.0000,  0.0000,  0.0000)
  32 Pd     7.010618    3.958167   16.730922    ( 0.0000,  0.0000,  0.0000)
  33 Ru     2.820164    6.517867   16.750018    ( 0.0000,  0.0000,  0.0000)
  34 Pd     5.640774    6.440409   16.833512    ( 0.0000,  0.0000,  0.0000)
  35 Ir     8.539054    6.366015   16.952433    ( 0.0000,  0.0000,  0.0000)
  36 Ir     0.133596    0.073014   19.076682    ( 0.0000,  0.0000,  0.0000)
  37 Pt     2.893048   -0.148239   19.216332    ( 0.0000,  0.0000,  0.0000)
  38 Ag     5.732284    0.029541   19.385388    ( 0.0000,  0.0000,  0.0000)
  39 Pd     1.340008    2.511031   19.327224    ( 0.0000,  0.0000,  0.0000)
  40 Pd     4.290512    2.502521   19.246031    ( 0.0000,  0.0000,  0.0000)
  41 Ir     7.128441    2.543785   19.006199    ( 0.0000,  0.0000,  0.0000)
  42 Ag     2.865861    4.940384   19.360649    ( 0.0000,  0.0000,  0.0000)
  43 Ir     5.746519    4.818275   19.018954    ( 0.0000,  0.0000,  0.0000)
  44 Ir     8.323459    4.834582   19.013576    ( 0.0000,  0.0000,  0.0000)
  45 O      1.343367    0.555594   20.509035    ( 0.0000,  0.0000,  0.0000)

Unit cell:
           periodic     x           y           z      points  spacing
  1. axis:    yes    8.465341    0.000000    0.000000    35     0.2095
  2. axis:    yes    4.232670    7.331200    0.000000    35     0.2095
  3. axis:    no     0.000000    0.000000   29.187217   135     0.2162

  Lengths:   8.465341   8.465341  29.187217
  Angles:   90.000000  90.000000  60.000000

Effective grid spacing dv^(1/3) = 0.2221

                     log10-error:    total        iterations:
           time      wfs    density  energy       fermi  poisson
iter:   1  17:11:32  -2.75   +inf  -235.289744    2             
iter:   2  17:12:43  -3.54  -2.76  -235.906633    2             
iter:   3  17:13:56  -3.58  -2.23  -235.531072    3             
iter:   4  17:15:09  -4.38  -2.39  -235.229351    2             
iter:   5  17:16:22  -4.75  -3.12  -235.225156    3             
iter:   6  17:17:34  -5.03  -3.15  -235.219469    2             
iter:   7  17:18:47  -5.27  -3.40  -235.218556    2             
iter:   8  17:19:59  -5.44  -3.47  -235.218492    2             
iter:   9  17:21:11  -5.20  -3.45  -235.239895    2             
iter:  10  17:22:22  -5.14  -2.94  -235.218943    2             
iter:  11  17:23:33  -5.64  -3.48  -235.216109    2             
iter:  12  17:24:44  -6.06  -3.67  -235.217173    2             
iter:  13  17:25:55  -6.59  -3.75  -235.216492    2             
iter:  14  17:27:06  -6.75  -3.97  -235.216392    2             
iter:  15  17:28:17  -6.20  -4.02  -235.216653    2             
iter:  16  17:29:30  -6.54  -3.78  -235.216713    2             
iter:  17  17:30:41  -6.44  -3.82  -235.216187    2             
iter:  18  17:31:43  -6.84  -4.26  -235.216713    2             
iter:  19  17:32:54  -7.08  -4.18  -235.216252    2             
iter:  20  17:34:03  -7.68  -4.37  -235.216263    2             

Converged after 20 iterations.

Dipole moment: (20.068125, 7.385365, -0.117318) |e|*Ang

Energy contributions relative to reference atoms: (reference = -12877847.605335)

Kinetic:       -221.026100
Potential:      +97.290487
External:        +0.000000
XC:            -103.448400
Entropy (-ST):   -2.249102
Local:           -6.907699
--------------------------
Free energy:   -236.340814
Extrapolated:  -235.216263

Fermi level: 1.00931

Showing only first 2 kpts
 Kpt  Band  Eigenvalues  Occupancy
  0   359      0.98340    0.14110
  0   360      1.00243    0.12930
  0   361      1.04365    0.10375
  0   362      1.05849    0.09487

  1   359      0.90517    0.18478
  1   360      0.92175    0.17647
  1   361      0.95483    0.15823
  1   362      0.98292    0.14140



Forces in eV/Ang:
  0 Pd   -0.12591    0.32680   -0.35478
  1 Ir    0.96357    0.68942    0.59979
  2 Ru   -1.07678    0.28725    0.68111
  3 Ru    0.42891    0.27960    1.61059
  4 Ir   -0.58384   -0.78177    1.17988
  5 Pt    0.17395    0.16545    0.06155
  6 Pd   -0.49392   -0.41805   -0.23793
  7 Pd    0.38453   -0.25989   -0.57862
  8 Ru    0.33112   -0.14470    0.55277
  9 Ag   -0.23089   -0.10027    0.10171
 10 Ag   -0.04573   -0.12440    0.08763
 11 Ag    0.06722   -0.15908   -0.15908
 12 Pt    0.07166    0.73947   -0.51810
 13 Pt    0.09518    0.53341   -0.71008
 14 Pt   -0.10790    0.15456   -0.17454
 15 Ru   -0.37496   -0.76585   -0.96511
 16 Pt   -0.40676    0.18522   -0.07532
 17 Ir    0.86482   -0.13708   -0.96358
 18 Pt   -0.02649   -0.01474   -0.01341
 19 Ag   -0.01476   -0.04006    0.02142
 20 Pd   -0.03630   -0.00404   -0.02318
 21 Ag   -0.01298   -0.00214   -0.00987
 22 Ru   -0.00430   -0.03142   -0.00419
 23 Pd   -0.00211    0.01691   -0.00969
 24 Ir   -0.04263   -0.03008   -0.02291
 25 Ir   -0.00252   -0.00057   -0.00987
 26 Pt   -0.00384   -0.00595   -0.03139
 27 Ir    0.00218   -0.04216    0.04822
 28 Pd   -0.01338   -0.01272   -0.04948
 29 Ag   -0.01334   -0.01983   -0.00398
 30 Pd   -0.01639   -0.05783    0.05340
 31 Pd    0.00244   -0.03290   -0.00727
 32 Pd    0.03458   -0.02349   -0.00788
 33 Ru    0.00751    0.02941   -0.01018
 34 Pd   -0.02667   -0.00686    0.00258
 35 Ir    0.00539   -0.00751   -0.02730
 36 Ir   -0.13610   -0.00101   -0.10378
 37 Pt    0.06107   -0.02801    0.01065
 38 Ag   -0.04087   -0.01417   -0.01413
 39 Pd    0.06005    0.02779    0.03735
 40 Pd    0.01668    0.00094    0.02302
 41 Ir    0.05945   -0.03605   -0.01973
 42 Ag    0.02897   -0.01315   -0.02609
 43 Ir    0.02252   -0.06426    0.03535
 44 Ir    0.01490   -0.03092   -0.00241
 45 O     0.17775    0.09036    0.16324

System changes: positions 

Initializing position-dependent things.

Density initialized from wave functions
                                             
                                             
                                             
                                             
                                             
                                             
                  Ag                         
                         Ir    Ir            
           O Pd    RPd    PIr    Ir          
                      Ag                     
        Ir    PPt   Pd     Pd                
               Pd                            
        Ir           IAg    Ir     Pt        
                Ag      Ru    Pd             
                                             
           Pt     Ag    PPd    Ir            
                                             
             Pt    Pt     Pt    Ru           
        Ag    Ag     Ag    Pt                
                                             
         Pd     Ir    Ru                     
                                             
                                             
                                             
                                             
                                             

Positions:
   0 Pd     0.000000    1.624086   10.000000    ( 0.0000,  0.0000,  0.0000)
   1 Ir     2.812999    1.624086   10.000000    ( 0.0000,  0.0000,  0.0000)
   2 Ru     5.625998    1.624086   10.000000    ( 0.0000,  0.0000,  0.0000)
   3 Ru     1.406500    4.060215   10.000000    ( 0.0000,  0.0000,  0.0000)
   4 Ir     4.219499    4.060215   10.000000    ( 0.0000,  0.0000,  0.0000)
   5 Pt     7.032498    4.060215   10.000000    ( 0.0000,  0.0000,  0.0000)
   6 Pd     2.812999    6.496343   10.000000    ( 0.0000,  0.0000,  0.0000)
   7 Pd     5.625998    6.496343   10.000000    ( 0.0000,  0.0000,  0.0000)
   8 Ru     8.438997    6.496343   10.000000    ( 0.0000,  0.0000,  0.0000)
   9 Ag     0.000000    0.000000   12.296804    ( 0.0000,  0.0000,  0.0000)
  10 Ag     2.812999    0.000000   12.296804    ( 0.0000,  0.0000,  0.0000)
  11 Ag     5.625998    0.000000   12.296804    ( 0.0000,  0.0000,  0.0000)
  12 Pt     1.406500    2.436129   12.296804    ( 0.0000,  0.0000,  0.0000)
  13 Pt     4.219499    2.436129   12.296804    ( 0.0000,  0.0000,  0.0000)
  14 Pt     7.032498    2.436129   12.296804    ( 0.0000,  0.0000,  0.0000)
  15 Ru     2.812999    4.872257   12.296804    ( 0.0000,  0.0000,  0.0000)
  16 Pt     5.625998    4.872257   12.296804    ( 0.0000,  0.0000,  0.0000)
  17 Ir     8.438997    4.872257   12.296804    ( 0.0000,  0.0000,  0.0000)
  18 Pt     1.324397    0.711169   14.677039    ( 0.0000,  0.0000,  0.0000)
  19 Ag     4.163253    0.760628   14.653874    ( 0.0000,  0.0000,  0.0000)
  20 Pd     6.979609    0.827646   14.617669    ( 0.0000,  0.0000,  0.0000)
  21 Ag     2.791274    3.166201   14.650830    ( 0.0000,  0.0000,  0.0000)
  22 Ru     5.650245    3.354387   14.459940    ( 0.0000,  0.0000,  0.0000)
  23 Pd     8.432584    3.178357   14.577156    ( 0.0000,  0.0000,  0.0000)
  24 Ir     4.189488    5.591849   14.574408    ( 0.0000,  0.0000,  0.0000)
  25 Ir     7.012161    5.557841   14.579509    ( 0.0000,  0.0000,  0.0000)
  26 Pt     9.837054    5.631282   14.562352    ( 0.0000,  0.0000,  0.0000)
  27 Ir    -0.132477    1.438363   16.931103    ( 0.0000,  0.0000,  0.0000)
  28 Pd     2.708044    1.557851   17.022703    ( 0.0000,  0.0000,  0.0000)
  29 Ag     5.496017    1.590660   16.897696    ( 0.0000,  0.0000,  0.0000)
  30 Pd     1.400169    4.009284   16.970085    ( 0.0000,  0.0000,  0.0000)
  31 Pd     4.181931    4.079347   16.885887    ( 0.0000,  0.0000,  0.0000)
  32 Pd     7.015915    3.952409   16.731069    ( 0.0000,  0.0000,  0.0000)
  33 Ru     2.814836    6.518037   16.741444    ( 0.0000,  0.0000,  0.0000)
  34 Pd     5.630447    6.430654   16.834683    ( 0.0000,  0.0000,  0.0000)
  35 Ir     8.539878    6.363765   16.950471    ( 0.0000,  0.0000,  0.0000)
  36 Ir     0.130426    0.086609   19.076538    ( 0.0000,  0.0000,  0.0000)
  37 Pt     2.895665   -0.156031   19.215478    ( 0.0000,  0.0000,  0.0000)
  38 Ag     5.735643    0.035338   19.381484    ( 0.0000,  0.0000,  0.0000)
  39 Pd     1.346634    2.509840   19.341379    ( 0.0000,  0.0000,  0.0000)
  40 Pd     4.285264    2.497553   19.248205    ( 0.0000,  0.0000,  0.0000)
  41 Ir     7.132174    2.538515   19.004588    ( 0.0000,  0.0000,  0.0000)
  42 Ag     2.885332    4.943788   19.354608    ( 0.0000,  0.0000,  0.0000)
  43 Ir     5.757927    4.800202   19.024354    ( 0.0000,  0.0000,  0.0000)
  44 Ir     8.335839    4.827748   19.012165    ( 0.0000,  0.0000,  0.0000)
  45 O      1.367363    0.554388   20.526272    ( 0.0000,  0.0000,  0.0000)

Unit cell:
           periodic     x           y           z      points  spacing
  1. axis:    yes    8.465341    0.000000    0.000000    35     0.2095
  2. axis:    yes    4.232670    7.331200    0.000000    35     0.2095
  3. axis:    no     0.000000    0.000000   29.187217   135     0.2162

  Lengths:   8.465341   8.465341  29.187217
  Angles:   90.000000  90.000000  60.000000

Effective grid spacing dv^(1/3) = 0.2221

                     log10-error:    total        iterations:
           time      wfs    density  energy       fermi  poisson
iter:   1  17:35:31  -2.72   +inf  -236.777274    3             
iter:   2  17:36:34  -1.76  -2.07  -294.195657    36            
iter:   3  17:37:37  -2.07  -1.35  -235.564592    36            
iter:   4  17:38:41  -3.11  -2.42  -235.366831    3             
iter:   5  17:39:42  -4.09  -2.59  -235.242065    3             
iter:   6  17:40:35  -4.82  -3.05  -235.229526    2             
iter:   7  17:41:28  -5.07  -3.21  -235.224473    2             
iter:   8  17:42:21  -5.29  -3.35  -235.224346    2             
iter:   9  17:43:13  -5.50  -3.30  -235.225492    2             
iter:  10  17:44:06  -5.08  -3.33  -235.221135    2             
iter:  11  17:44:59  -5.58  -3.68  -235.221163    2             
iter:  12  17:45:52  -6.08  -3.79  -235.220677    2             
iter:  13  17:46:45  -6.52  -3.85  -235.220917    2             
iter:  14  17:47:39  -6.24  -3.85  -235.220616    2             
iter:  15  17:48:32  -6.55  -4.01  -235.220913    2             
iter:  16  17:49:24  -6.50  -3.85  -235.220955    2             
iter:  17  17:50:17  -6.93  -3.95  -235.220450    2             
iter:  18  17:51:10  -7.10  -4.17  -235.220591    2             
iter:  19  17:52:03  -7.38  -4.34  -235.220488    2             
iter:  20  17:52:55  -7.45  -4.41  -235.220478    2             

Converged after 20 iterations.

Dipole moment: (19.110230, 6.390415, -0.127295) |e|*Ang

Energy contributions relative to reference atoms: (reference = -12877847.605335)

Kinetic:       -222.449591
Potential:      +98.516215
External:        +0.000000
XC:            -103.250005
Entropy (-ST):   -2.247721
Local:           -6.913237
--------------------------
Free energy:   -236.344338
Extrapolated:  -235.220478

Fermi level: 1.00317

Showing only first 2 kpts
 Kpt  Band  Eigenvalues  Occupancy
  0   359      0.97803    0.14063
  0   360      0.99503    0.13009
  0   361      1.03807    0.10340
  0   362      1.05141    0.09542

  1   359      0.89979    0.18441
  1   360      0.91651    0.17601
  1   361      0.94843    0.15838
  1   362      0.97514    0.14241



Forces in eV/Ang:
  0 Pd   -0.12737    0.32528   -0.36263
  1 Ir    0.96364    0.68893    0.58738
  2 Ru   -1.07168    0.28713    0.66683
  3 Ru    0.42387    0.27739    1.59707
  4 Ir   -0.58218   -0.77841    1.16396
  5 Pt    0.17126    0.16393    0.04850
  6 Pd   -0.49308   -0.41654   -0.24339
  7 Pd    0.38334   -0.25925   -0.58384
  8 Ru    0.33240   -0.14765    0.54387
  9 Ag   -0.22605   -0.10191    0.10039
 10 Ag   -0.05187   -0.12287    0.09444
 11 Ag    0.05104   -0.14998   -0.18541
 12 Pt    0.06855    0.72709   -0.52380
 13 Pt    0.08940    0.51763   -0.70377
 14 Pt   -0.11262    0.14848   -0.20335
 15 Ru   -0.37073   -0.77615   -0.97425
 16 Pt   -0.41191    0.16895   -0.08484
 17 Ir    0.84395   -0.14127   -0.99317
 18 Pt   -0.03432   -0.02448   -0.04007
 19 Ag   -0.01726   -0.03431   -0.01196
 20 Pd    0.00058   -0.01049    0.00516
 21 Ag   -0.02264    0.00939   -0.00942
 22 Ru   -0.01104   -0.00484   -0.01639
 23 Pd    0.02268    0.00145   -0.00551
 24 Ir   -0.03445    0.01617    0.00854
 25 Ir    0.00743    0.00599   -0.00058
 26 Pt    0.02105    0.00097    0.06879
 27 Ir    0.04204    0.01349    0.01043
 28 Pd   -0.00776   -0.06119   -0.03493
 29 Ag   -0.00323   -0.03273    0.01796
 30 Pd   -0.00896   -0.00233    0.04462
 31 Pd   -0.03263    0.00709   -0.01720
 32 Pd    0.00699    0.00375   -0.01547
 33 Ru   -0.00702   -0.02832    0.01860
 34 Pd    0.02098    0.00345    0.05166
 35 Ir    0.01174   -0.05775   -0.01055
 36 Ir    0.09674    0.02710    0.18641
 37 Pt   -0.00492   -0.05040    0.03096
 38 Ag   -0.05528   -0.07401   -0.01334
 39 Pd    0.06626    0.02013    0.04207
 40 Pd    0.04569    0.00215    0.01583
 41 Ir    0.09814   -0.07318   -0.00709
 42 Ag   -0.02411   -0.00182   -0.02610
 43 Ir    0.01018    0.00308   -0.01177
 44 Ir   -0.01112    0.02193   -0.00168
 45 O    -0.11384   -0.05699   -0.29381

System changes: positions 

Initializing position-dependent things.

Density initialized from wave functions
                                             
                                             
                                             
                                             
                                             
                                             
                  Ag                         
                         Ir    Ir            
           O Pd    RPd    PIr    Ir          
                      Ag                     
        Ir    PPt   Pd     Pd                
               Pd                            
        Ir           IAg    Ir     Pt        
                Ag      Ru    Pd             
                                             
           Pt     Ag    PPd    Ir            
                                             
             Pt    Pt     Pt    Ru           
        Ag    Ag     Ag    Pt                
                                             
         Pd     Ir    Ru                     
                                             
                                             
                                             
                                             
                                             

Positions:
   0 Pd     0.000000    1.624086   10.000000    ( 0.0000,  0.0000,  0.0000)
   1 Ir     2.812999    1.624086   10.000000    ( 0.0000,  0.0000,  0.0000)
   2 Ru     5.625998    1.624086   10.000000    ( 0.0000,  0.0000,  0.0000)
   3 Ru     1.406500    4.060215   10.000000    ( 0.0000,  0.0000,  0.0000)
   4 Ir     4.219499    4.060215   10.000000    ( 0.0000,  0.0000,  0.0000)
   5 Pt     7.032498    4.060215   10.000000    ( 0.0000,  0.0000,  0.0000)
   6 Pd     2.812999    6.496343   10.000000    ( 0.0000,  0.0000,  0.0000)
   7 Pd     5.625998    6.496343   10.000000    ( 0.0000,  0.0000,  0.0000)
   8 Ru     8.438997    6.496343   10.000000    ( 0.0000,  0.0000,  0.0000)
   9 Ag     0.000000    0.000000   12.296804    ( 0.0000,  0.0000,  0.0000)
  10 Ag     2.812999    0.000000   12.296804    ( 0.0000,  0.0000,  0.0000)
  11 Ag     5.625998    0.000000   12.296804    ( 0.0000,  0.0000,  0.0000)
  12 Pt     1.406500    2.436129   12.296804    ( 0.0000,  0.0000,  0.0000)
  13 Pt     4.219499    2.436129   12.296804    ( 0.0000,  0.0000,  0.0000)
  14 Pt     7.032498    2.436129   12.296804    ( 0.0000,  0.0000,  0.0000)
  15 Ru     2.812999    4.872257   12.296804    ( 0.0000,  0.0000,  0.0000)
  16 Pt     5.625998    4.872257   12.296804    ( 0.0000,  0.0000,  0.0000)
  17 Ir     8.438997    4.872257   12.296804    ( 0.0000,  0.0000,  0.0000)
  18 Pt     1.326071    0.712980   14.675735    ( 0.0000,  0.0000,  0.0000)
  19 Ag     4.165377    0.763255   14.652358    ( 0.0000,  0.0000,  0.0000)
  20 Pd     6.982673    0.828063   14.620290    ( 0.0000,  0.0000,  0.0000)
  21 Ag     2.792050    3.169031   14.650809    ( 0.0000,  0.0000,  0.0000)
  22 Ru     5.650779    3.356814   14.459991    ( 0.0000,  0.0000,  0.0000)
  23 Pd     8.434186    3.178855   14.578218    ( 0.0000,  0.0000,  0.0000)
  24 Ir     4.191310    5.595454   14.576360    ( 0.0000,  0.0000,  0.0000)
  25 Ir     7.014164    5.559279   14.579710    ( 0.0000,  0.0000,  0.0000)
  26 Pt     9.838764    5.633193   14.566656    ( 0.0000,  0.0000,  0.0000)
  27 Ir    -0.129474    1.442367   16.932372    ( 0.0000,  0.0000,  0.0000)
  28 Pd     2.710720    1.558563   17.021973    ( 0.0000,  0.0000,  0.0000)
  29 Ag     5.498127    1.590688   16.898937    ( 0.0000,  0.0000,  0.0000)
  30 Pd     1.400089    4.013429   16.969864    ( 0.0000,  0.0000,  0.0000)
  31 Pd     4.180698    4.082980   16.886240    ( 0.0000,  0.0000,  0.0000)
  32 Pd     7.013989    3.954502   16.731016    ( 0.0000,  0.0000,  0.0000)
  33 Ru     2.816773    6.517975   16.744560    ( 0.0000,  0.0000,  0.0000)
  34 Pd     5.634200    6.434199   16.834257    ( 0.0000,  0.0000,  0.0000)
  35 Ir     8.539578    6.364583   16.951184    ( 0.0000,  0.0000,  0.0000)
  36 Ir     0.131578    0.081668   19.076590    ( 0.0000,  0.0000,  0.0000)
  37 Pt     2.894714   -0.153199   19.215788    ( 0.0000,  0.0000,  0.0000)
  38 Ag     5.734422    0.033231   19.382903    ( 0.0000,  0.0000,  0.0000)
  39 Pd     1.344226    2.510273   19.336234    ( 0.0000,  0.0000,  0.0000)
[...]
  26 Pt     9.835368    5.622857   14.561745    ( 0.0000,  0.0000,  0.0000)
  27 Ir    -0.133573    1.420821   16.925270    ( 0.0000,  0.0000,  0.0000)
  28 Pd     2.694891    1.536963   17.018933    ( 0.0000,  0.0000,  0.0000)
  29 Ag     5.487147    1.581775   16.897150    ( 0.0000,  0.0000,  0.0000)
  30 Pd     1.400675    3.988384   16.980651    ( 0.0000,  0.0000,  0.0000)
  31 Pd     4.178827    4.063950   16.879246    ( 0.0000,  0.0000,  0.0000)
  32 Pd     7.022648    3.942357   16.726147    ( 0.0000,  0.0000,  0.0000)
  33 Ru     2.803249    6.508490   16.730389    ( 0.0000,  0.0000,  0.0000)
  34 Pd     5.618649    6.416122   16.849635    ( 0.0000,  0.0000,  0.0000)
  35 Ir     8.543432    6.345610   16.943367    ( 0.0000,  0.0000,  0.0000)
  36 Ir     0.123312    0.111202   19.098551    ( 0.0000,  0.0000,  0.0000)
  37 Pt     2.907153   -0.183177   19.218681    ( 0.0000,  0.0000,  0.0000)
  38 Ag     5.730153    0.022766   19.372671    ( 0.0000,  0.0000,  0.0000)
  39 Pd     1.378651    2.524633   19.369482    ( 0.0000,  0.0000,  0.0000)
  40 Pd     4.289093    2.491360   19.254641    ( 0.0000,  0.0000,  0.0000)
  41 Ir     7.162169    2.512243   19.002661    ( 0.0000,  0.0000,  0.0000)
  42 Ag     2.908234    4.949664   19.339664    ( 0.0000,  0.0000,  0.0000)
  43 Ir     5.777420    4.766511   19.028530    ( 0.0000,  0.0000,  0.0000)
  44 Ir     8.350626    4.818253   19.013256    ( 0.0000,  0.0000,  0.0000)
  45 O      1.389485    0.541756   20.515031    ( 0.0000,  0.0000,  0.0000)

Unit cell:
           periodic     x           y           z      points  spacing
  1. axis:    yes    8.465341    0.000000    0.000000    35     0.2095
  2. axis:    yes    4.232670    7.331200    0.000000    35     0.2095
  3. axis:    no     0.000000    0.000000   29.187217   135     0.2162

  Lengths:   8.465341   8.465341  29.187217
  Angles:   90.000000  90.000000  60.000000

Effective grid spacing dv^(1/3) = 0.2221

                     log10-error:    total        iterations:
           time      wfs    density  energy       fermi  poisson
iter:   1  18:38:04  -2.79   +inf  -235.270775    3             
iter:   2  18:38:58  -3.87  -2.97  -235.274780    3             
iter:   3  18:39:52  -4.01  -2.85  -235.501809    2             
iter:   4  18:40:46  -4.42  -2.43  -235.239990    2             
iter:   5  18:41:41  -4.97  -3.17  -235.238741    2             
iter:   6  18:42:35  -5.22  -3.32  -235.236361    2             
iter:   7  18:43:30  -5.26  -3.42  -235.236371    2             
iter:   8  18:44:23  -5.42  -3.47  -235.236256    2             
iter:   9  18:45:18  -5.48  -3.51  -235.234876    2             
iter:  10  18:46:13  -5.98  -3.62  -235.235383    2             
iter:  11  18:47:08  -6.35  -3.61  -235.234886    2             
iter:  12  18:48:03  -6.51  -3.89  -235.234360    2             
iter:  13  18:48:56  -6.72  -3.99  -235.234515    2             
iter:  14  18:49:51  -6.68  -4.07  -235.234396    2             
iter:  15  18:50:45  -6.70  -4.11  -235.234332    2             
iter:  16  18:51:33  -6.89  -4.28  -235.234476    2             
iter:  17  18:52:25  -7.21  -4.22  -235.234415    2             
iter:  18  18:53:27  -7.45  -4.18  -235.234300    2             

Converged after 18 iterations.

Dipole moment: (17.860446, 5.314161, -0.117162) |e|*Ang

Energy contributions relative to reference atoms: (reference = -12877847.605335)

Kinetic:       -220.505133
Potential:      +96.808400
External:        +0.000000
XC:            -103.499834
Entropy (-ST):   -2.245814
Local:           -6.914825
--------------------------
Free energy:   -236.357207
Extrapolated:  -235.234300

Fermi level: 1.01025

Showing only first 2 kpts
 Kpt  Band  Eigenvalues  Occupancy
  0   359      0.98675    0.13962
  0   360      1.00622    0.12752
  0   361      1.04664    0.10251
  0   362      1.05697    0.09633

  1   359      0.90930    0.18323
  1   360      0.92483    0.17537
  1   361      0.95863    0.15657
  1   362      0.98258    0.14219



Forces in eV/Ang:
  0 Pd   -0.12581    0.32799   -0.35519
  1 Ir    0.96555    0.69019    0.59852
  2 Ru   -1.07124    0.28987    0.67511
  3 Ru    0.41905    0.27695    1.60470
  4 Ir   -0.58037   -0.78018    1.16995
  5 Pt    0.16888    0.16466    0.05277
  6 Pd   -0.49286   -0.41935   -0.23778
  7 Pd    0.38634   -0.26085   -0.57566
  8 Ru    0.33102   -0.14813    0.55168
  9 Ag   -0.23586   -0.11041    0.06906
 10 Ag   -0.06322   -0.13091    0.08117
 11 Ag    0.03186   -0.16094   -0.19394
 12 Pt    0.06098    0.70998   -0.55110
 13 Pt    0.07647    0.49689   -0.69990
 14 Pt   -0.11996    0.14064   -0.23851
 15 Ru   -0.37483   -0.79082   -0.98582
 16 Pt   -0.42360    0.15840   -0.09462
 17 Ir    0.83097   -0.14552   -1.00270
 18 Pt    0.02092   -0.02980    0.01275
 19 Ag    0.00048    0.02845   -0.02415
 20 Pd    0.01998    0.00952    0.04833
 21 Ag    0.00258   -0.02452    0.00855
 22 Ru   -0.01667    0.02777    0.00380
 23 Pd    0.01148   -0.01819    0.01631
 24 Ir    0.04087    0.02381    0.03770
 25 Ir   -0.00581   -0.00109    0.01088
 26 Pt    0.00324    0.00239    0.05546
 27 Ir    0.03588   -0.02573   -0.01349
 28 Pd    0.02075   -0.05010    0.04043
 29 Ag    0.03100   -0.00967    0.03579
 30 Pd    0.01555   -0.00346   -0.01149
 31 Pd   -0.00051    0.01301   -0.00092
 32 Pd   -0.04685   -0.02268    0.05130
 33 Ru    0.01966   -0.03269    0.02447
 34 Pd    0.01951   -0.00195    0.03167
 35 Ir   -0.03133   -0.04970    0.01242
 36 Ir    0.03223    0.03043    0.01936
 37 Pt   -0.06378   -0.01683   -0.02818
 38 Ag   -0.02115   -0.07432    0.00923
 39 Pd    0.07635    0.00155   -0.00746
 40 Pd    0.05511   -0.00763   -0.01395
 41 Ir    0.04045   -0.00751   -0.00358
 42 Ag    0.00249    0.01689    0.00351
 43 Ir   -0.00493   -0.01694   -0.03398
 44 Ir   -0.02143   -0.04995    0.01191
 45 O    -0.08198   -0.04921   -0.03296

System changes: positions 

Initializing position-dependent things.

Density initialized from wave functions
                                             
                                             
                                             
                                             
                                             
                                             
                  Ag                         
                         Ir    Ir            
           O Pd    RPd   PdIr    Ir          
                      Ag                     
        Ir    PPt   Pd     Pd                
               Pd     Ag                     
        Ir           Ir     Ir     Pt        
                Ag      Ru    Pd             
                                             
           Pt     Ag     Pd    Ir            
                                             
             Pt    Pt     Pt    Ru           
        Ag    Ag     Ag    Pt                
                                             
         Pd     Ir    Ru                     
                                             
                                             
                                             
                                             
                                             

Positions:
   0 Pd     0.000000    1.624086   10.000000    ( 0.0000,  0.0000,  0.0000)
   1 Ir     2.812999    1.624086   10.000000    ( 0.0000,  0.0000,  0.0000)
   2 Ru     5.625998    1.624086   10.000000    ( 0.0000,  0.0000,  0.0000)
   3 Ru     1.406500    4.060215   10.000000    ( 0.0000,  0.0000,  0.0000)
   4 Ir     4.219499    4.060215   10.000000    ( 0.0000,  0.0000,  0.0000)
   5 Pt     7.032498    4.060215   10.000000    ( 0.0000,  0.0000,  0.0000)
   6 Pd     2.812999    6.496343   10.000000    ( 0.0000,  0.0000,  0.0000)
   7 Pd     5.625998    6.496343   10.000000    ( 0.0000,  0.0000,  0.0000)
   8 Ru     8.438997    6.496343   10.000000    ( 0.0000,  0.0000,  0.0000)
   9 Ag     0.000000    0.000000   12.296804    ( 0.0000,  0.0000,  0.0000)
  10 Ag     2.812999    0.000000   12.296804    ( 0.0000,  0.0000,  0.0000)
  11 Ag     5.625998    0.000000   12.296804    ( 0.0000,  0.0000,  0.0000)
  12 Pt     1.406500    2.436129   12.296804    ( 0.0000,  0.0000,  0.0000)
  13 Pt     4.219499    2.436129   12.296804    ( 0.0000,  0.0000,  0.0000)
  14 Pt     7.032498    2.436129   12.296804    ( 0.0000,  0.0000,  0.0000)
  15 Ru     2.812999    4.872257   12.296804    ( 0.0000,  0.0000,  0.0000)
  16 Pt     5.625998    4.872257   12.296804    ( 0.0000,  0.0000,  0.0000)
  17 Ir     8.438997    4.872257   12.296804    ( 0.0000,  0.0000,  0.0000)
  18 Pt     1.304234    0.684696   14.675177    ( 0.0000,  0.0000,  0.0000)
  19 Ag     4.143546    0.737425   14.654931    ( 0.0000,  0.0000,  0.0000)
  20 Pd     6.964148    0.824340   14.613492    ( 0.0000,  0.0000,  0.0000)
  21 Ag     2.777304    3.146807   14.649897    ( 0.0000,  0.0000,  0.0000)
  22 Ru     5.640856    3.343967   14.456379    ( 0.0000,  0.0000,  0.0000)
  23 Pd     8.429888    3.172158   14.572318    ( 0.0000,  0.0000,  0.0000)
  24 Ir     4.174840    5.578957   14.572719    ( 0.0000,  0.0000,  0.0000)
  25 Ir     6.999747    5.547088   14.581176    ( 0.0000,  0.0000,  0.0000)
  26 Pt     9.834681    5.618954   14.568319    ( 0.0000,  0.0000,  0.0000)
  27 Ir    -0.128383    1.407759   16.920434    ( 0.0000,  0.0000,  0.0000)
  28 Pd     2.691168    1.519724   17.021285    ( 0.0000,  0.0000,  0.0000)
  29 Ag     5.486795    1.575782   16.901854    ( 0.0000,  0.0000,  0.0000)
  30 Pd     1.403415    3.974905   16.985420    ( 0.0000,  0.0000,  0.0000)
  31 Pd     4.177905    4.057735   16.875933    ( 0.0000,  0.0000,  0.0000)
  32 Pd     7.019624    3.933229   16.730244    ( 0.0000,  0.0000,  0.0000)
  33 Ru     2.801432    6.499771   16.728780    ( 0.0000,  0.0000,  0.0000)
  34 Pd     5.614879    6.407761   16.861400    ( 0.0000,  0.0000,  0.0000)
  35 Ir     8.540118    6.330475   16.940614    ( 0.0000,  0.0000,  0.0000)
  36 Ir     0.120060    0.126191   19.108706    ( 0.0000,  0.0000,  0.0000)
  37 Pt     2.905228   -0.200065   19.216142    ( 0.0000,  0.0000,  0.0000)
  38 Ag     5.722674    0.005231   19.369426    ( 0.0000,  0.0000,  0.0000)
  39 Pd     1.407871    2.532964   19.383204    ( 0.0000,  0.0000,  0.0000)
  40 Pd     4.299694    2.487357   19.256173    ( 0.0000,  0.0000,  0.0000)
  41 Ir     7.183594    2.498219   19.000563    ( 0.0000,  0.0000,  0.0000)
  42 Ag     2.921259    4.954661   19.331963    ( 0.0000,  0.0000,  0.0000)
  43 Ir     5.786129    4.746137   19.026484    ( 0.0000,  0.0000,  0.0000)
  44 Ir     8.355221    4.805482   19.016212    ( 0.0000,  0.0000,  0.0000)
  45 O      1.395557    0.532664   20.512564    ( 0.0000,  0.0000,  0.0000)

Unit cell:
           periodic     x           y           z      points  spacing
  1. axis:    yes    8.465341    0.000000    0.000000    35     0.2095
  2. axis:    yes    4.232670    7.331200    0.000000    35     0.2095
  3. axis:    no     0.000000    0.000000   29.187217   135     0.2162

  Lengths:   8.465341   8.465341  29.187217
  Angles:   90.000000  90.000000  60.000000

Effective grid spacing dv^(1/3) = 0.2221

                     log10-error:    total        iterations:
           time      wfs    density  energy       fermi  poisson
iter:   1  18:54:58  -2.68   +inf  -235.677035    3             
iter:   2  18:56:02  -2.26  -2.32  -256.237907    3             
iter:   3  18:57:05  -2.61  -1.54  -235.514611    3             
iter:   4  18:58:08  -3.56  -2.54  -235.256965    3             
iter:   5  18:59:10  -4.51  -3.14  -235.251332    2             
iter:   6  19:00:12  -4.95  -3.17  -235.246570    2             
iter:   7  19:01:15  -5.17  -3.29  -235.244364    2             
iter:   8  19:02:19  -5.33  -3.43  -235.244920    2             
iter:   9  19:03:22  -5.11  -3.32  -235.242105    2             
iter:  10  19:04:24  -5.57  -3.56  -235.244256    2             
iter:  11  19:05:27  -6.06  -3.52  -235.241770    2             
iter:  12  19:06:28  -6.20  -3.81  -235.242085    2             
iter:  13  19:07:30  -6.32  -3.79  -235.242329    2             
iter:  14  19:08:30  -6.46  -3.73  -235.242042    2             
iter:  15  19:09:39  -6.80  -3.97  -235.241943    2             
iter:  16  19:10:48  -6.80  -3.99  -235.242306    2             
iter:  17  19:11:57  -6.55  -3.98  -235.241785    2             
iter:  18  19:13:08  -6.85  -4.02  -235.241853    2             
iter:  19  19:14:18  -7.14  -4.26  -235.241827    1             
iter:  20  19:15:26  -7.41  -4.42  -235.241852    2             

Converged after 20 iterations.

Dipole moment: (17.340321, 4.990914, -0.111845) |e|*Ang

Energy contributions relative to reference atoms: (reference = -12877847.605335)

Kinetic:       -218.688045
Potential:      +95.210810
External:        +0.000000
XC:            -103.720578
Entropy (-ST):   -2.245495
Local:           -6.921291
--------------------------
Free energy:   -236.364599
Extrapolated:  -235.241852

Fermi level: 1.01374

Showing only first 2 kpts
 Kpt  Band  Eigenvalues  Occupancy
  0   359      0.99023    0.13962
  0   360      1.01176    0.12623
  0   361      1.05027    0.10242
  0   362      1.06045    0.09632

  1   359      0.91350    0.18288
  1   360      0.92860    0.17522
  1   361      0.96234    0.15644
  1   362      0.98612    0.14215



Forces in eV/Ang:
  0 Pd   -0.12448    0.33090   -0.35478
  1 Ir    0.96896    0.69216    0.59958
  2 Ru   -1.07398    0.29118    0.67994
  3 Ru    0.41904    0.27937    1.61684
  4 Ir   -0.58159   -0.78299    1.17454
  5 Pt    0.16722    0.16425    0.05336
  6 Pd   -0.49432   -0.42096   -0.23760
  7 Pd    0.38808   -0.26207   -0.57537
  8 Ru    0.33136   -0.14660    0.55559
  9 Ag   -0.24623   -0.11371    0.07190
 10 Ag   -0.07020   -0.14034    0.07486
 11 Ag    0.03305   -0.17365   -0.17233
 12 Pt    0.05417    0.70548   -0.55821
 13 Pt    0.07269    0.49881   -0.70100
 14 Pt   -0.12384    0.14189   -0.23170
 15 Ru   -0.37994   -0.79846   -0.97354
 16 Pt   -0.43082    0.15362   -0.09247
 17 Ir    0.83380   -0.15379   -0.98012
 18 Pt    0.03746   -0.00599    0.02698
 19 Ag    0.04458    0.02669    0.01107
 20 Pd    0.01123   -0.00161    0.02839
 21 Ag    0.01309    0.00362    0.01612
 22 Ru    0.00574    0.00332    0.01259
 23 Pd   -0.01524   -0.00761    0.02866
 24 Ir    0.01761   -0.00037    0.01228
 25 Ir    0.02374   -0.01398    0.02987
 26 Pt    0.00200    0.00430    0.00871
 27 Ir    0.00999    0.00715   -0.03847
 28 Pd    0.05394   -0.00763    0.04569
 29 Ag    0.01719   -0.04713    0.01198
 30 Pd    0.00599   -0.00432   -0.01776
 31 Pd   -0.00353   -0.02356    0.00005
 32 Pd   -0.00987   -0.02242   -0.02353
 33 Ru    0.00130   -0.02424    0.01431
 34 Pd    0.01836   -0.02301   -0.01043
 35 Ir   -0.02207   -0.00803    0.01494
 36 Ir   -0.01645    0.03970    0.00182
 37 Pt   -0.04996   -0.02043   -0.01582
 38 Ag   -0.00582   -0.03217    0.01245
 39 Pd    0.04642   -0.03229   -0.01893
 40 Pd    0.03029   -0.01906   -0.00659
 41 Ir    0.00877   -0.05801    0.03724
 42 Ag    0.02991   -0.00171    0.01926
 43 Ir   -0.00828   -0.02400    0.01076
 44 Ir    0.02201   -0.00684    0.00314
 45 O    -0.04928   -0.02207    0.04527

Timing:                                      incl.     excl.
-------------------------------------------------------------------
Density initialized from wave functions:    25.855    25.854   0.1% |
 Symmetrize density:                         0.001     0.001   0.0% |
Forces:                                    158.387   158.387   0.9% |
Hamiltonian:                                24.665     0.115   0.0% |
 Atomic:                                     6.001     3.378   0.0% |
  XC Correction:                             2.623     2.623   0.0% |
 Calculate atomic Hamiltonians:              7.324     7.324   0.0% |
 Communicate:                                2.678     2.678   0.0% |
 Initialize Hamiltonian:                     0.001     0.001   0.0% |
 Poisson:                                    0.057     0.057   0.0% |
 XC 3D grid:                                 8.489     8.489   0.0% |
LCAO initialization:                        68.005     2.208   0.0% |
 LCAO eigensolver:                           7.557     0.003   0.0% |
  Calculate projections:                     0.056     0.056   0.0% |
  DenseAtomicCorrection:                     0.035     0.035   0.0% |
  Distribute overlap matrix:                 4.058     4.058   0.0% |
  Orbital Layouts:                           0.665     0.665   0.0% |
  Potential matrix:                          2.688     2.688   0.0% |
  Sum over cells:                            0.052     0.052   0.0% |
 LCAO to grid:                              55.098    55.098   0.3% |
 Set positions (LCAO WFS):                   3.142     2.555   0.0% |
  Basic WFS set positions:                   0.001     0.001   0.0% |
  Basis functions set positions:             0.000     0.000   0.0% |
  P tci:                                     0.296     0.296   0.0% |
  ST tci:                                    0.222     0.222   0.0% |
  mktci:                                     0.068     0.068   0.0% |
PWDescriptor:                                0.042     0.042   0.0% |
Redistribute:                                2.104     2.104   0.0% |
SCF-cycle:                               17285.611   903.809   5.1% |-|
 Davidson:                               14980.345  3722.065  21.0% |-------|
  Apply H:                                2364.042  2289.904  12.9% |----|
   HMM T:                                   74.138    74.138   0.4% |
  Subspace diag:                          2292.279     0.092   0.0% |
   calc_h_matrix:                         1160.504   370.741   2.1% ||
    Apply H:                               789.763   764.119   4.3% |-|
     HMM T:                                 25.643    25.643   0.1% |
   diagonalize:                             66.054    66.054   0.4% |
   rotate_psi:                            1065.629  1065.629   6.0% |-|
  calc. matrices:                         4134.353  2598.023  14.7% |-----|
   Apply H:                               1536.330  1488.277   8.4% |--|
    HMM T:                                  48.052    48.052   0.3% |
  diagonalize:                             665.502   665.502   3.8% |-|
  rotate_psi:                             1802.104  1802.104  10.2% |---|
 Density:                                  736.530     0.018   0.0% |
  Atomic density matrices:                   4.591     4.591   0.0% |
  Mix:                                     266.353   266.353   1.5% ||
  Multipole moments:                         0.259     0.259   0.0% |
  Pseudo density:                          465.308   465.288   2.6% ||
   Symmetrize density:                       0.020     0.020   0.0% |
 Hamiltonian:                              605.102     3.028   0.0% |
  Atomic:                                  133.863    66.393   0.4% |
   XC Correction:                           67.470    67.470   0.4% |
  Calculate atomic Hamiltonians:           205.926   205.926   1.2% |
  Communicate:                              39.728    39.728   0.2% |
  Poisson:                                   1.461     1.461   0.0% |
  XC 3D grid:                              221.096   221.096   1.2% |
 Orthonormalize:                            59.825     0.005   0.0% |
  calc_s_matrix:                             7.008     7.008   0.0% |
  inverse-cholesky:                          1.490     1.490   0.0% |
  projections:                              31.476    31.476   0.2% |
  rotate_psi_s:                             19.846    19.846   0.1% |
Set symmetry:                                0.001     0.001   0.0% |
Other:                                     128.741   128.741   0.7% |
-------------------------------------------------------------------
Total:                                             17693.411 100.0%

Date: Thu Mar  3 19:15:43 2022
