
  ___ ___ ___ _ _ _  
 |   |   |_  | | | | 
 | | | | | . | | | | 
 |__ |  _|___|_____|  1.5.1
 |___|_|             

User:   clausen@node052.cluster
Date:   Thu Mar  3 19:33:22 2022
Arch:   x86_64
Pid:    96857
Python: 3.6.12
gpaw:   /software/kemi/gpaw/1.5.1/gpaw
_gpaw:  /software/kemi/gpaw/1.5.1/bin/gpaw-python
ase:    /software/kemi/ase/3.17.0/ase (version 3.17.0)
numpy:  /opt/rh/rh-python36/root/usr/lib64/python3.6/site-packages/numpy (version 1.13.1)
scipy:  /opt/rh/rh-python36/root/usr/lib64/python3.6/site-packages/scipy (version 0.19.1)
units:  Angstrom and eV
cores:  16

Input parameters:
  kpts: [4 4 1]
  mode: {ecut: 400.0,
         gammacentered: False,
         name: pw}
  xc: RPBE

System changes: positions, numbers, cell, pbc, initial_charges, initial_magmoms 

Initialize ...

Ag-setup:
  name: Silver
  id: c05e55bab2c3858b3f9398f6d75cb77c
  Z: 47
  valence: 17
  core: 30
  charge: 0.0
  file: /software/kemi/gpaw-setups/0.9.20000/Ag.RPBE.gz
  cutoffs: 1.25(comp), 2.35(filt), 2.19(core), lmax=2
  valence states:
                energy  radius
    5s(1.00)    -4.277   1.286
    4p(6.00)   -58.523   1.328
    5p(0.00)    -0.755   1.328
    4d(10.00)    -7.386   1.180
    *s          22.934   1.286
    *d          19.826   1.180

  Using partial waves for Ag as LCAO basis

Ir-setup:
  name: Iridium
  id: 73b603359d1d5397a85ae3c2440f9033
  Z: 77
  valence: 15
  core: 62
  charge: 0.0
  file: /software/kemi/gpaw-setups/0.9.20000/Ir.RPBE.gz
  cutoffs: 1.26(comp), 2.40(filt), 2.36(core), lmax=2
  valence states:
                energy  radius
    6s(2.00)    -6.219   1.296
    5p(6.00)   -54.684   1.328
    6p(0.00)    -1.215   1.328
    5d(7.00)    -7.118   1.286
    *s          20.992   1.296
    *d          20.093   1.286

  Using partial waves for Ir as LCAO basis

Pt-setup:
  name: Platinum
  id: f04f522592575c47ad794f6b4a415b4b
  Z: 78
  valence: 16
  core: 62
  charge: 0.0
  file: /software/kemi/gpaw-setups/0.9.20000/Pt.RPBE.gz
  cutoffs: 1.29(comp), 2.26(filt), 2.26(core), lmax=2
  valence states:
                energy  radius
    6s(1.00)    -5.516   1.307
    5p(6.00)   -55.971   1.371
    6p(0.00)    -0.856   1.371
    5d(9.00)    -6.087   1.307
    *s          21.695   1.307
    *d          21.125   1.307

  Using partial waves for Pt as LCAO basis

Ru-setup:
  name: Ruthenium
  id: 76477906e28f51dc1b29884d53556fe9
  Z: 44
  valence: 16
  core: 28
  charge: 0.0
  file: /software/kemi/gpaw-setups/0.9.20000/Ru.RPBE.gz
  cutoffs: 1.23(comp), 2.16(filt), 1.30(core), lmax=2
  valence states:
                energy  radius
    4s(2.00)   -76.255   1.281
    5s(1.00)    -4.126   1.281
    4p(6.00)   -46.371   1.286
    5p(0.00)    -0.913   1.286
    4d(7.00)    -5.146   1.254
    *d          22.066   1.254

  Using partial waves for Ru as LCAO basis

O-setup:
  name: Oxygen
  id: 08071ca1eed670e7821b24b7eb4d558c
  Z: 8
  valence: 6
  core: 2
  charge: 0.0
  file: /software/kemi/gpaw-setups/0.9.20000/O.RPBE.gz
  cutoffs: 0.67(comp), 1.17(filt), 0.83(core), lmax=2
  valence states:
                energy  radius
    2s(2.00)   -24.041   0.688
    2p(4.00)    -8.984   0.598
    *s           3.170   0.688
    *p          18.228   0.598
    *d           0.000   0.619

  Using partial waves for O as LCAO basis

H-setup:
  name: Hydrogen
  id: ea3f9156a1dc40d47a60fdce8f8bd75d
  Z: 1
  valence: 1
  core: 0
  charge: 0.0
  file: /software/kemi/gpaw-setups/0.9.20000/H.RPBE.gz
  cutoffs: 0.48(comp), 0.85(filt), 0.53(core), lmax=2
  valence states:
                energy  radius
    1s(1.00)    -6.572   0.476
    *s          20.639   0.476
    *p           0.000   0.476

  Using partial waves for H as LCAO basis

Reference energy: -16429291.423757

Spin-paired calculation

Occupation numbers:
  Fermi-Dirac: width=0.1000 eV

Convergence criteria:
  Maximum total energy change: 0.0005 eV / electron
  Maximum integral of absolute density change: 0.0001 electrons
  Maximum integral of absolute eigenstate change: 4e-08 eV^2
  Maximum number of iterations: 333

Symmetries present (total): 1

  ( 1  0  0)
  ( 0  1  0)
  ( 0  0  1)

16 k-points: 4 x 4 x 1 Monkhorst-Pack grid
8 k-points in the irreducible part of the Brillouin zone
       k-points in crystal coordinates                weights
   0:     0.12500000   -0.37500000    0.00000000          2/16
   1:     0.12500000   -0.12500000    0.00000000          2/16
   2:     0.12500000    0.12500000    0.00000000          2/16
   3:     0.12500000    0.37500000    0.00000000          2/16
   4:     0.37500000   -0.37500000    0.00000000          2/16
   5:     0.37500000   -0.12500000    0.00000000          2/16
   6:     0.37500000    0.12500000    0.00000000          2/16
   7:     0.37500000    0.37500000    0.00000000          2/16

Wave functions: Plane wave expansion
  Cutoff energy: 400.000 eV
  Number of coefficients (min, max): 32722, 32776
  Pulay-stress correction: 0.000000 eV/Ang^3 (de/decut=0.000000)
  Using FFTW library
  ScaLapack parameters: grid=1x1, blocksize=None
  Wavefunction extrapolation:
    Improved wavefunction reuse through dual PAW basis 

Eigensolver
   Davidson(niter=2, smin=None, normalize=True) 

Densities:
  Coarse grid: 35*35*135 grid
  Fine grid: 70*70*270 grid
  Total Charge: 0.000000 

Density mixing:
  Method: separate
  Backend: pulay
  Linear mixing parameter: 0.05
  Mixing with 5 old densities
  Damping of long wave oscillations: 50 

Hamiltonian:
  XC and Coulomb potentials evaluated on a 70*70*270 grid
  Using the RPBE Exchange-Correlation functional
 

XC parameters: RPBE with 2 nearest neighbor stencil

Memory estimate:
  Process memory now: 152.60 MiB
  Calculator: 545.08 MiB
    Density: 51.32 MiB
      Arrays: 16.41 MiB
      Localized functions: 28.56 MiB
      Mixer: 6.36 MiB
    Hamiltonian: 11.63 MiB
      Arrays: 10.73 MiB
      XC: 0.00 MiB
      Poisson: 0.00 MiB
      vbar: 0.90 MiB
    Wavefunctions: 482.13 MiB
      Arrays psit_nG: 218.05 MiB
      Eigensolver: 249.57 MiB
      Projections: 2.75 MiB
      Projectors: 5.13 MiB
      PW-descriptor: 6.62 MiB

Total number of cores used: 16
Parallelization over k-points: 8
Domain decomposition: 1 x 1 x 2

Number of atoms: 47
Number of atomic orbitals: 548
Number of bands in calculation: 436
Bands to converge: occupied states only
Number of valence electrons: 719

... initialized

Initializing position-dependent things.

Density initialized from atomic densities
Creating initial wave functions:
  436 bands from LCAO basis set

                                             
                                             
                                             
                                             
                                             
                                             
                                             
                                             
         H                     Ag            
       O          Ir    Ir                   
            Ag    AIr     Pt    Ru           
                                             
       Ir    IIr    IPt    Pt                
         Ru    Ir     Ir                     
                     Pt     Ag     Ir        
                Ag     Ag     Ag             
                                             
           Ir    PPt    RPt    Ir            
                                             
            Ir    IAg    AAg    Pt           
       Ag    IIr    IIr    Ir                
                                             
        Ag     Ag     Ir                     
                                             
                                             
                                             
                                             
                                             

Positions:
   0 Ag     0.000000    1.621936   10.000000    ( 0.0000,  0.0000,  0.0000)
   1 Ag     2.809275    1.621936   10.000000    ( 0.0000,  0.0000,  0.0000)
   2 Ir     5.618550    1.621936   10.000000    ( 0.0000,  0.0000,  0.0000)
   3 Ir     1.404638    4.054840   10.000000    ( 0.0000,  0.0000,  0.0000)
   4 Ir     4.213913    4.054840   10.000000    ( 0.0000,  0.0000,  0.0000)
   5 Ir     7.023188    4.054840   10.000000    ( 0.0000,  0.0000,  0.0000)
   6 Ir     2.809275    6.487743   10.000000    ( 0.0000,  0.0000,  0.0000)
   7 Ag     5.618550    6.487743   10.000000    ( 0.0000,  0.0000,  0.0000)
   8 Pt     8.427826    6.487743   10.000000    ( 0.0000,  0.0000,  0.0000)
   9 Ag     0.000000    0.000000   12.293764    ( 0.0000,  0.0000,  0.0000)
  10 Ir     2.809275    0.000000   12.293764    ( 0.0000,  0.0000,  0.0000)
  11 Ir     5.618550    0.000000   12.293764    ( 0.0000,  0.0000,  0.0000)
  12 Ir     1.404638    2.432904   12.293764    ( 0.0000,  0.0000,  0.0000)
  13 Ag     4.213913    2.432904   12.293764    ( 0.0000,  0.0000,  0.0000)
  14 Ag     7.023188    2.432904   12.293764    ( 0.0000,  0.0000,  0.0000)
  15 Pt     2.809275    4.865807   12.293764    ( 0.0000,  0.0000,  0.0000)
  16 Ru     5.618550    4.865807   12.293764    ( 0.0000,  0.0000,  0.0000)
  17 Ir     8.427826    4.865807   12.293764    ( 0.0000,  0.0000,  0.0000)
  18 Ir     1.441638    0.791118   14.593247    ( 0.0000,  0.0000,  0.0000)
  19 Pt     4.193480    0.729862   14.611205    ( 0.0000,  0.0000,  0.0000)
  20 Pt     7.034823    0.803600   14.634811    ( 0.0000,  0.0000,  0.0000)
  21 Ag     2.789574    3.267050   14.608106    ( 0.0000,  0.0000,  0.0000)
  22 Ag     5.614143    3.230616   14.629701    ( 0.0000,  0.0000,  0.0000)
  23 Ag     8.464759    3.239382   14.607930    ( 0.0000,  0.0000,  0.0000)
  24 Pt     4.237230    5.675263   14.599690    ( 0.0000,  0.0000,  0.0000)
  25 Ag     7.020289    5.624637   14.588938    ( 0.0000,  0.0000,  0.0000)
  26 Ir     9.810296    5.749034   14.534386    ( 0.0000,  0.0000,  0.0000)
  27 Ru     0.088724    1.655821   16.925664    ( 0.0000,  0.0000,  0.0000)
  28 Ir     2.745717    1.627778   16.875164    ( 0.0000,  0.0000,  0.0000)
  29 Ir     5.551846    1.597836   16.889230    ( 0.0000,  0.0000,  0.0000)
  30 Ir     1.358794    4.007324   17.013226    ( 0.0000,  0.0000,  0.0000)
  31 Ir     4.198339    3.977911   16.957702    ( 0.0000,  0.0000,  0.0000)
  32 Pt     7.125382    4.056246   16.998429    ( 0.0000,  0.0000,  0.0000)
  33 Ag     2.759687    6.474835   16.802442    ( 0.0000,  0.0000,  0.0000)
  34 Ir     5.663661    6.563267   16.864024    ( 0.0000,  0.0000,  0.0000)
  35 Ru     8.399575    6.483077   16.866623    ( 0.0000,  0.0000,  0.0000)
  36 Ir     0.015859   -0.055829   18.998154    ( 0.0000,  0.0000,  0.0000)
  37 Ir     2.776668   -0.025110   18.984491    ( 0.0000,  0.0000,  0.0000)
  38 Pt     5.623976   -0.052286   19.132338    ( 0.0000,  0.0000,  0.0000)
  39 Ag     1.411190    2.424549   19.550242    ( 0.0000,  0.0000,  0.0000)
  40 Ir     4.228423    2.403175   19.018562    ( 0.0000,  0.0000,  0.0000)
  41 Pt     6.964575    2.313754   19.128521    ( 0.0000,  0.0000,  0.0000)
  42 Ir     2.920544    4.885225   19.043791    ( 0.0000,  0.0000,  0.0000)
  43 Ir     5.524960    4.949858   19.026821    ( 0.0000,  0.0000,  0.0000)
  44 Ag     8.407084    4.876484   19.535850    ( 0.0000,  0.0000,  0.0000)
  45 O      0.015859   -0.055829   21.550242    ( 0.0000,  0.0000,  0.0000)
  46 H      0.665859    0.594171   21.950242    ( 0.0000,  0.0000,  0.0000)

Unit cell:
           periodic     x           y           z      points  spacing
  1. axis:    yes    8.445283    0.000000    0.000000    35     0.2090
  2. axis:    yes    4.222641    7.313829    0.000000    35     0.2090
  3. axis:    no     0.000000    0.000000   29.175054   135     0.2161

  Lengths:   8.445283   8.445283  29.175054
  Angles:   90.000000  90.000000  60.000000

Effective grid spacing dv^(1/3) = 0.2217

                     log10-error:    total        iterations:
           time      wfs    density  energy       fermi  poisson
iter:   1  19:35:38  +0.19   +inf  -300.030170    2             
iter:   2  19:36:44  -1.11  -1.37  -295.981865    36            
iter:   3  19:37:50  -1.37  -1.33  -333.714005    35            
iter:   4  19:38:50  -1.82  -1.24  -278.952952    3             
iter:   5  19:39:54  -2.23  -1.48  -273.827545    36            
iter:   6  19:41:00  -2.36  -1.53  -271.985176    3             
iter:   7  19:42:06  -2.31  -1.58  -268.939838    3             
iter:   8  19:43:13  -2.70  -1.72  -268.227758    3             
iter:   9  19:44:19  -3.29  -1.82  -268.181980    3             
iter:  10  19:45:25  -2.21  -1.84  -269.246474    3             
iter:  11  19:46:32  -2.96  -1.95  -268.054780    3             
iter:  12  19:47:38  -3.49  -2.20  -268.097847    3             
iter:  13  19:48:44  -3.51  -2.24  -268.670936    2             
iter:  14  19:49:50  -3.10  -2.10  -268.104300    3             
iter:  15  19:50:56  -3.56  -2.31  -267.968325    3             
iter:  16  19:52:02  -3.83  -2.47  -267.971034    3             
iter:  17  19:53:04  -3.90  -2.49  -267.919316    3             
iter:  18  19:54:10  -3.89  -2.63  -267.888175    3             
iter:  19  19:55:06  -4.17  -2.77  -267.909134    3             
iter:  20  19:56:01  -4.47  -2.66  -267.878742    3             
iter:  21  19:57:05  -4.54  -2.84  -267.867875    2             
iter:  22  19:58:09  -4.78  -2.89  -267.867510    3             
iter:  23  19:59:14  -4.89  -2.89  -267.864280    2             
iter:  24  20:00:19  -4.83  -2.97  -267.863989    3             
iter:  25  20:01:23  -5.03  -3.05  -267.871471    2             
iter:  26  20:02:27  -5.05  -2.90  -267.867877    3             
iter:  27  20:03:31  -5.12  -3.08  -267.863497    3             
iter:  28  20:04:36  -5.64  -3.15  -267.861719    2             
iter:  29  20:05:41  -5.86  -3.21  -267.861759    3             
iter:  30  20:06:45  -5.56  -3.24  -267.861758    3             
iter:  31  20:07:50  -5.74  -3.29  -267.861746    2             
iter:  32  20:08:56  -5.19  -3.16  -267.860863    3             
iter:  33  20:10:00  -6.05  -3.42  -267.859680    2             
iter:  34  20:11:05  -5.73  -3.44  -267.859271    2             
iter:  35  20:12:09  -6.29  -3.52  -267.859658    2             
iter:  36  20:13:14  -6.20  -3.55  -267.860289    2             
iter:  37  20:14:19  -6.33  -3.56  -267.859026    2             
iter:  38  20:15:24  -6.10  -3.53  -267.859876    2             
iter:  39  20:16:29  -5.86  -3.71  -267.859583    2             
iter:  40  20:17:34  -6.48  -3.83  -267.859470    2             
iter:  41  20:18:39  -6.92  -3.94  -267.859393    2             
iter:  42  20:19:44  -7.10  -3.99  -267.859366    2             
iter:  43  20:20:50  -6.28  -4.04  -267.859248    2             
iter:  44  20:21:55  -6.59  -3.48  -267.859011    2             
iter:  45  20:22:59  -7.39  -4.23  -267.858928    2             
iter:  46  20:24:04  -7.41  -4.29  -267.858913    2             

Converged after 46 iterations.

Dipole moment: (18.905083, 21.397960, -0.314721) |e|*Ang

Energy contributions relative to reference atoms: (reference = -16429291.423757)

Kinetic:       -153.653172
Potential:      +96.021289
External:        +0.000000
XC:            -202.837426
Entropy (-ST):   -2.103811
Local:           -6.337699
--------------------------
Free energy:   -268.910819
Extrapolated:  -267.858913

Fermi level: 1.21155

Showing only first 2 kpts
 Kpt  Band  Eigenvalues  Occupancy
  0   357      1.17705    0.14635
  0   358      1.21774    0.12113
  0   359      1.24946    0.10159
  0   360      1.28993    0.07838

  1   357      1.08133    0.19655
  1   358      1.12710    0.17485
  1   359      1.14368    0.16587
  1   360      1.16310    0.15470



Forces in eV/Ang:
  0 Ag   -0.41926    0.16115   -1.04968
  1 Ag    0.25137    0.22754   -0.86139
  2 Ir    0.49884   -0.17270    0.02287
  3 Ir   -0.10408    1.23735    1.38856
  4 Ir    0.41002    0.39563    0.86883
  5 Ir   -0.32774   -0.02326    1.21800
  6 Ir   -1.72008   -0.50558    0.73427
  7 Ag   -0.12264   -0.34748   -0.94993
  8 Pt    1.06784   -0.38497    0.48322
  9 Ag    0.13865    0.01954    0.15436
 10 Ir   -0.02877   -0.42096    0.97354
 11 Ir   -0.64346   -0.77565   -0.52832
 12 Ir    0.37195    0.14686    0.17602
 13 Ag   -0.01373   -0.03629    0.15178
 14 Ag    0.05839    0.08925    0.12901
 15 Pt   -0.14048   -0.04083   -0.61807
 16 Ru    0.64059    0.46620   -1.37266
 17 Ir    0.12167    0.28153   -1.30481
 18 Ir    0.03157    0.04207    0.00354
 19 Pt    0.01855    0.03384    0.01377
 20 Pt    0.00727    0.00771    0.03242
 21 Ag    0.00611    0.00842    0.04254
 22 Ag    0.01726   -0.00488    0.01956
 23 Ag    0.00437    0.03181   -0.01257
 24 Pt    0.03534    0.00861    0.05351
 25 Ag    0.01517   -0.04243    0.00319
 26 Ir    0.01315   -0.04344    0.00988
 27 Ru   -0.06533   -0.20375   -0.02515
 28 Ir    0.00123    0.01320    0.02804
 29 Ir    0.01510    0.02200    0.00573
 30 Ir   -0.04929    0.00161    0.08048
 31 Ir   -0.02088    0.00537    0.03783
 32 Pt    0.03523    0.03525    0.02634
 33 Ag    0.06452    0.00049    0.04382
 34 Ir   -0.26624    0.00062   -0.06697
 35 Ru    0.01871   -0.04339    0.10578
 36 Ir    0.43692    0.33451    2.04691
 37 Ir    0.19231   -0.04296   -0.01603
 38 Pt   -0.22398   -0.04709   -0.05554
 39 Ag    0.03479    0.03221   -0.05034
 40 Ir   -0.02685    0.00100   -0.02293
 41 Pt   -0.08328    0.05460   -0.02989
 42 Ir   -0.09793   -0.18599   -0.07929
 43 Ir    0.02804   -0.15403    0.01510
 44 Ag   -0.00987   -0.01891   -0.01783
 45 O     0.12386    0.23563   -1.14191
 46 H    -0.27813   -0.29891   -0.51847

System changes: positions 

Initializing position-dependent things.

Density initialized from wave functions
                                             
                                             
                                             
                                             
                                             
                                             
                                             
                                             
         H                     Ag            
       O          Ir    Ir                   
            Ag    AIr    IPt    Ru           
                                             
       Ir    IIr    IPt     Pt               
         Ru    Ir     Ir                     
                     Pt     Ag     Ir        
                Ag     Ag     Ag             
                                             
           Ir    PPt    RPt    Ir            
                                             
            Ir    IAg    AAg    Pt           
       Ag    IIr    IIr    Ir                
                                             
        Ag     Ag     Ir                     
                                             
                                             
                                             
                                             
                                             

Positions:
   0 Ag     0.000000    1.621936   10.000000    ( 0.0000,  0.0000,  0.0000)
   1 Ag     2.809275    1.621936   10.000000    ( 0.0000,  0.0000,  0.0000)
   2 Ir     5.618550    1.621936   10.000000    ( 0.0000,  0.0000,  0.0000)
   3 Ir     1.404638    4.054840   10.000000    ( 0.0000,  0.0000,  0.0000)
   4 Ir     4.213913    4.054840   10.000000    ( 0.0000,  0.0000,  0.0000)
   5 Ir     7.023188    4.054840   10.000000    ( 0.0000,  0.0000,  0.0000)
   6 Ir     2.809275    6.487743   10.000000    ( 0.0000,  0.0000,  0.0000)
   7 Ag     5.618550    6.487743   10.000000    ( 0.0000,  0.0000,  0.0000)
   8 Pt     8.427826    6.487743   10.000000    ( 0.0000,  0.0000,  0.0000)
   9 Ag     0.000000    0.000000   12.293764    ( 0.0000,  0.0000,  0.0000)
  10 Ir     2.809275    0.000000   12.293764    ( 0.0000,  0.0000,  0.0000)
  11 Ir     5.618550    0.000000   12.293764    ( 0.0000,  0.0000,  0.0000)
  12 Ir     1.404638    2.432904   12.293764    ( 0.0000,  0.0000,  0.0000)
  13 Ag     4.213913    2.432904   12.293764    ( 0.0000,  0.0000,  0.0000)
  14 Ag     7.023188    2.432904   12.293764    ( 0.0000,  0.0000,  0.0000)
  15 Pt     2.809275    4.865807   12.293764    ( 0.0000,  0.0000,  0.0000)
  16 Ru     5.618550    4.865807   12.293764    ( 0.0000,  0.0000,  0.0000)
  17 Ir     8.427826    4.865807   12.293764    ( 0.0000,  0.0000,  0.0000)
  18 Ir     1.444617    0.795087   14.593581    ( 0.0000,  0.0000,  0.0000)
  19 Pt     4.195230    0.733055   14.612504    ( 0.0000,  0.0000,  0.0000)
  20 Pt     7.035509    0.804328   14.637870    ( 0.0000,  0.0000,  0.0000)
  21 Ag     2.790150    3.267845   14.612120    ( 0.0000,  0.0000,  0.0000)
  22 Ag     5.615772    3.230156   14.631546    ( 0.0000,  0.0000,  0.0000)
  23 Ag     8.465172    3.242383   14.606744    ( 0.0000,  0.0000,  0.0000)
  24 Pt     4.240564    5.676075   14.604740    ( 0.0000,  0.0000,  0.0000)
  25 Ag     7.021720    5.620634   14.589239    ( 0.0000,  0.0000,  0.0000)
  26 Ir     9.811537    5.744935   14.535318    ( 0.0000,  0.0000,  0.0000)
  27 Ru     0.082560    1.636595   16.923291    ( 0.0000,  0.0000,  0.0000)
  28 Ir     2.745833    1.629024   16.877810    ( 0.0000,  0.0000,  0.0000)
  29 Ir     5.553271    1.599912   16.889770    ( 0.0000,  0.0000,  0.0000)
  30 Ir     1.354143    4.007476   17.020820    ( 0.0000,  0.0000,  0.0000)
  31 Ir     4.196369    3.978417   16.961272    ( 0.0000,  0.0000,  0.0000)
  32 Pt     7.128706    4.059572   17.000915    ( 0.0000,  0.0000,  0.0000)
  33 Ag     2.765775    6.474881   16.806577    ( 0.0000,  0.0000,  0.0000)
  34 Ir     5.638540    6.563326   16.857704    ( 0.0000,  0.0000,  0.0000)
  35 Ru     8.401340    6.478983   16.876604    ( 0.0000,  0.0000,  0.0000)
  36 Ir     0.057086   -0.024265   19.191297    ( 0.0000,  0.0000,  0.0000)
  37 Ir     2.794814   -0.029164   18.982978    ( 0.0000,  0.0000,  0.0000)
  38 Pt     5.602841   -0.056729   19.127098    ( 0.0000,  0.0000,  0.0000)
  39 Ag     1.414472    2.427588   19.545493    ( 0.0000,  0.0000,  0.0000)
  40 Ir     4.225889    2.403270   19.016399    ( 0.0000,  0.0000,  0.0000)
  41 Pt     6.956717    2.318906   19.125701    ( 0.0000,  0.0000,  0.0000)
  42 Ir     2.911304    4.867675   19.036309    ( 0.0000,  0.0000,  0.0000)
  43 Ir     5.527607    4.935324   19.028245    ( 0.0000,  0.0000,  0.0000)
  44 Ag     8.406152    4.874699   19.534168    ( 0.0000,  0.0000,  0.0000)
  45 O      0.027546   -0.033596   21.442494    ( 0.0000,  0.0000,  0.0000)
  46 H      0.639615    0.565967   21.901320    ( 0.0000,  0.0000,  0.0000)

Unit cell:
           periodic     x           y           z      points  spacing
  1. axis:    yes    8.445283    0.000000    0.000000    35     0.2090
  2. axis:    yes    4.222641    7.313829    0.000000    35     0.2090
  3. axis:    no     0.000000    0.000000   29.175054   135     0.2161

  Lengths:   8.445283   8.445283  29.175054
  Angles:   90.000000  90.000000  60.000000

Effective grid spacing dv^(1/3) = 0.2217

                     log10-error:    total        iterations:
           time      wfs    density  energy       fermi  poisson
iter:   1  20:25:42  -1.87   +inf  -272.459050    4             
iter:   2  20:26:47  -1.83  -1.95  -283.541579    34            
iter:   3  20:27:52  -1.56  -1.59  -326.471432    3             
iter:   4  20:28:56  -2.07  -1.34  -268.928521    35            
iter:   5  20:29:58  -3.26  -2.36  -268.593151    3             
iter:   6  20:30:53  -3.99  -2.62  -268.526067    3             
iter:   7  20:31:45  -3.97  -2.68  -268.541189    3             
iter:   8  20:32:39  -3.96  -2.60  -268.437142    3             
iter:   9  20:33:33  -3.91  -2.86  -268.426974    3             
iter:  10  20:34:26  -4.21  -2.76  -268.432575    3             
iter:  11  20:35:21  -4.71  -2.81  -268.394305    3             
iter:  12  20:36:16  -4.90  -3.14  -268.388310    2             
iter:  13  20:37:10  -4.86  -3.13  -268.400359    3             
iter:  14  20:38:04  -5.13  -3.03  -268.388346    3             
iter:  15  20:38:58  -5.55  -3.30  -268.385021    2             
iter:  16  20:39:53  -5.81  -3.45  -268.387715    2             
iter:  17  20:40:47  -5.61  -3.35  -268.384971    2             
iter:  18  20:41:41  -5.52  -3.57  -268.385003    2             
iter:  19  20:42:37  -5.56  -3.35  -268.385333    2             
iter:  20  20:43:32  -6.09  -3.63  -268.384116    2             
iter:  21  20:44:24  -6.27  -3.75  -268.383772    2             
iter:  22  20:45:20  -6.21  -3.76  -268.384251    2             
iter:  23  20:46:14  -6.41  -3.96  -268.384034    2             
iter:  24  20:47:09  -6.74  -4.09  -268.383599    2             
iter:  25  20:48:04  -6.73  -3.90  -268.384266    2             
iter:  26  20:48:59  -6.71  -4.06  -268.383997    2             
iter:  27  20:49:53  -6.85  -4.06  -268.383705    2             
iter:  28  20:50:48  -7.19  -4.09  -268.383870    2             
iter:  29  20:51:54  -7.54  -4.34  -268.383869    2             

Converged after 29 iterations.

Dipole moment: (16.390639, 18.828099, -0.157960) |e|*Ang

Energy contributions relative to reference atoms: (reference = -16429291.423757)

Kinetic:       -158.418582
Potential:      +99.952737
External:        +0.000000
XC:            -202.511515
Entropy (-ST):   -2.108295
Local:           -6.352361
--------------------------
Free energy:   -269.438016
Extrapolated:  -268.383869

Fermi level: 1.28249

Showing only first 2 kpts
 Kpt  Band  Eigenvalues  Occupancy
  0   357      1.26453    0.13619
  0   358      1.29193    0.11910
  0   359      1.32205    0.10059
  0   360      1.36126    0.07816

  1   357      1.15631    0.19483
  1   358      1.19239    0.17779
  1   359      1.20345    0.17198
  1   360      1.24087    0.15064



Forces in eV/Ang:
  0 Ag   -0.41693    0.15787   -1.05063
  1 Ag    0.25185    0.22548   -0.86502
  2 Ir    0.49812   -0.17525    0.03095
  3 Ir   -0.10416    1.24221    1.38545
  4 Ir    0.40558    0.39910    0.88647
  5 Ir   -0.32332   -0.01884    1.22658
  6 Ir   -1.72002   -0.50908    0.74028
  7 Ag   -0.12290   -0.34259   -0.95182
  8 Pt    1.06634   -0.38579    0.48118
  9 Ag    0.13666    0.01144    0.18732
 10 Ir   -0.02326   -0.43347    0.98426
 11 Ir   -0.64468   -0.77719   -0.51491
 12 Ir    0.38144    0.15105    0.18075
 13 Ag   -0.01415   -0.02742    0.16438
 14 Ag    0.05456    0.08452    0.13592
 15 Pt   -0.11942   -0.03777   -0.60250
 16 Ru    0.63189    0.46741   -1.36645
 17 Ir    0.12151    0.28509   -1.28838
 18 Ir    0.02285    0.02194    0.05031
 19 Pt    0.00842   -0.03475    0.02262
 20 Pt    0.00503   -0.03691    0.05451
 21 Ag    0.01060    0.01576    0.02168
 22 Ag    0.01045    0.00872    0.00476
 23 Ag    0.00780   -0.02475    0.04115
 24 Pt   -0.01354    0.00885   -0.00160
 25 Ag    0.02276    0.02460    0.02514
 26 Ir    0.01182    0.00430   -0.02345
 27 Ru   -0.05754   -0.16098    0.08010
 28 Ir   -0.07236   -0.05834    0.00498
 29 Ir    0.08459   -0.04926   -0.03319
 30 Ir   -0.01076    0.01619    0.01222
 31 Ir    0.02794    0.06603   -0.04115
 32 Pt   -0.01791    0.02805    0.01708
 33 Ag    0.20266    0.09911    0.41878
 34 Ir   -0.28861    0.13007    0.37828
 35 Ru   -0.01972   -0.03343    0.06066
 36 Ir    0.45231   -0.12799    1.21466
 37 Ir    0.01405   -0.00370   -0.00864
 38 Pt   -0.07907   -0.01890   -0.05016
 39 Ag    0.04565    0.05432   -0.03527
 40 Ir   -0.02897   -0.01878   -0.00972
 41 Pt   -0.05110    0.01147    0.02304
 42 Ir    0.02176    0.10567    0.07612
 43 Ir   -0.05108   -0.05535   -0.00763
 44 Ag   -0.01179   -0.07076    0.00201
 45 O    -1.03323   -0.80291   -2.02777
 46 H     0.61722    0.56673   -0.09282

System changes: positions 

Initializing position-dependent things.

Density initialized from wave functions
                                             
                                             
                                             
                                             
                                             
                                             
                                             
                                             
         H        Ir    Ir     Ag            
       O    Ag                               
                  AIr    IPt    Ru           
        Ir   Ir     IPt     Pt               
              Ir                             
         Ru    Ir    PIr    Ag     Ir        
                                             
                Ag     Ag     Ag             
           Ir    PPt    RPt    Ir            
                                             
            Ir    IAg    AAg    Pt           
       Ag     Ir     Ir                      
             Ir     Ir     Ir                
        Ag     Ag     Ir                     
                                             
                                             
                                             
                                             
                                             

Positions:
   0 Ag     0.000000    1.621936   10.000000    ( 0.0000,  0.0000,  0.0000)
   1 Ag     2.809275    1.621936   10.000000    ( 0.0000,  0.0000,  0.0000)
   2 Ir     5.618550    1.621936   10.000000    ( 0.0000,  0.0000,  0.0000)
   3 Ir     1.404638    4.054840   10.000000    ( 0.0000,  0.0000,  0.0000)
   4 Ir     4.213913    4.054840   10.000000    ( 0.0000,  0.0000,  0.0000)
   5 Ir     7.023188    4.054840   10.000000    ( 0.0000,  0.0000,  0.0000)
   6 Ir     2.809275    6.487743   10.000000    ( 0.0000,  0.0000,  0.0000)
   7 Ag     5.618550    6.487743   10.000000    ( 0.0000,  0.0000,  0.0000)
   8 Pt     8.427826    6.487743   10.000000    ( 0.0000,  0.0000,  0.0000)
   9 Ag     0.000000    0.000000   12.293764    ( 0.0000,  0.0000,  0.0000)
  10 Ir     2.809275    0.000000   12.293764    ( 0.0000,  0.0000,  0.0000)
  11 Ir     5.618550    0.000000   12.293764    ( 0.0000,  0.0000,  0.0000)
  12 Ir     1.404638    2.432904   12.293764    ( 0.0000,  0.0000,  0.0000)
  13 Ag     4.213913    2.432904   12.293764    ( 0.0000,  0.0000,  0.0000)
  14 Ag     7.023188    2.432904   12.293764    ( 0.0000,  0.0000,  0.0000)
  15 Pt     2.809275    4.865807   12.293764    ( 0.0000,  0.0000,  0.0000)
  16 Ru     5.618550    4.865807   12.293764    ( 0.0000,  0.0000,  0.0000)
  17 Ir     8.427826    4.865807   12.293764    ( 0.0000,  0.0000,  0.0000)
  18 Ir     1.447596    0.799057   14.593916    ( 0.0000,  0.0000,  0.0000)
  19 Pt     4.196980    0.736249   14.613802    ( 0.0000,  0.0000,  0.0000)
  20 Pt     7.036196    0.805056   14.640928    ( 0.0000,  0.0000,  0.0000)
  21 Ag     2.790727    3.268640   14.616134    ( 0.0000,  0.0000,  0.0000)
  22 Ag     5.617401    3.229696   14.633392    ( 0.0000,  0.0000,  0.0000)
  23 Ag     8.465584    3.245384   14.605558    ( 0.0000,  0.0000,  0.0000)
  24 Pt     4.243899    5.676887   14.609789    ( 0.0000,  0.0000,  0.0000)
  25 Ag     7.023152    5.616631   14.589540    ( 0.0000,  0.0000,  0.0000)
  26 Ir     9.812778    5.740836   14.536250    ( 0.0000,  0.0000,  0.0000)
  27 Ru     0.076395    1.617369   16.920918    ( 0.0000,  0.0000,  0.0000)
  28 Ir     2.745949    1.630269   16.880456    ( 0.0000,  0.0000,  0.0000)
  29 Ir     5.554696    1.601988   16.890311    ( 0.0000,  0.0000,  0.0000)
  30 Ir     1.349492    4.007628   17.028414    ( 0.0000,  0.0000,  0.0000)
  31 Ir     4.194398    3.978923   16.964841    ( 0.0000,  0.0000,  0.0000)
  32 Pt     7.132030    4.062898   17.003400    ( 0.0000,  0.0000,  0.0000)
  33 Ag     2.771863    6.474927   16.810711    ( 0.0000,  0.0000,  0.0000)
  34 Ir     5.613418    6.563384   16.851385    ( 0.0000,  0.0000,  0.0000)
  35 Ru     8.403106    6.474888   16.886585    ( 0.0000,  0.0000,  0.0000)
  36 Ir     0.098313    0.007300   19.384439    ( 0.0000,  0.0000,  0.0000)
  37 Ir     2.812960   -0.033218   18.981466    ( 0.0000,  0.0000,  0.0000)
  38 Pt     5.581707   -0.061172   19.121857    ( 0.0000,  0.0000,  0.0000)
  39 Ag     1.417755    2.430627   19.540743    ( 0.0000,  0.0000,  0.0000)
  40 Ir     4.223355    2.403364   19.014235    ( 0.0000,  0.0000,  0.0000)
  41 Pt     6.948859    2.324057   19.122881    ( 0.0000,  0.0000,  0.0000)
  42 Ir     2.902064    4.850126   19.028827    ( 0.0000,  0.0000,  0.0000)
  43 Ir     5.530253    4.920791   19.029670    ( 0.0000,  0.0000,  0.0000)
  44 Ag     8.405221    4.872914   19.532485    ( 0.0000,  0.0000,  0.0000)
  45 O      0.039232   -0.011362   21.334745    ( 0.0000,  0.0000,  0.0000)
  46 H      0.613371    0.537762   21.852398    ( 0.0000,  0.0000,  0.0000)

Unit cell:
           periodic     x           y           z      points  spacing
  1. axis:    yes    8.445283    0.000000    0.000000    35     0.2090
  2. axis:    yes    4.222641    7.313829    0.000000    35     0.2090
  3. axis:    no     0.000000    0.000000   29.175054   135     0.2161

  Lengths:   8.445283   8.445283  29.175054
  Angles:   90.000000  90.000000  60.000000

Effective grid spacing dv^(1/3) = 0.2217

                     log10-error:    total        iterations:
           time      wfs    density  energy       fermi  poisson
iter:   1  20:53:30  -1.87   +inf  -272.399576    4             
iter:   2  20:54:36  -1.98  -2.00  -277.003290    37            
iter:   3  20:55:42  -1.79  -1.72  -308.453545    3             
iter:   4  20:56:49  -2.21  -1.41  -269.235016    35            
iter:   5  20:57:55  -3.28  -2.23  -268.898676    3             
iter:   6  20:59:01  -3.73  -2.38  -268.679662    3             
iter:   7  21:00:07  -4.10  -2.56  -268.601595    3             
iter:   8  21:01:12  -3.90  -2.78  -268.547384    3             
iter:   9  21:02:17  -3.98  -2.85  -268.640766    3             
iter:  10  21:03:22  -3.88  -2.57  -268.591809    3             
iter:  11  21:04:26  -4.40  -2.57  -268.505829    2             
iter:  12  21:05:30  -4.52  -3.04  -268.497992    3             
iter:  13  21:06:34  -5.08  -3.04  -268.493232    3             
iter:  14  21:07:39  -5.39  -3.26  -268.491834    3             
iter:  15  21:08:43  -5.36  -3.41  -268.497085    3             
iter:  16  21:09:47  -5.42  -3.23  -268.494297    3             
iter:  17  21:10:52  -5.35  -3.13  -268.495484    2             
iter:  18  21:11:57  -5.36  -3.31  -268.492141    2             
iter:  19  21:13:01  -5.74  -3.55  -268.491860    3             
iter:  20  21:14:05  -6.07  -3.62  -268.491878    2             
iter:  21  21:15:10  -6.37  -3.65  -268.490888    2             
iter:  22  21:16:14  -6.20  -3.89  -268.489956    2             
iter:  23  21:17:19  -6.73  -3.81  -268.491240    2             
iter:  24  21:18:24  -6.81  -3.83  -268.489988    2             
iter:  25  21:19:29  -6.56  -4.00  -268.490021    2             
iter:  26  21:20:33  -7.02  -4.10  -268.490186    2             
iter:  27  21:21:38  -7.79  -4.51  -268.490130    2             

Converged after 27 iterations.

Dipole moment: (13.844821, 16.132437, 0.078682) |e|*Ang

Energy contributions relative to reference atoms: (reference = -16429291.423757)

Kinetic:       -154.397745
Potential:      +96.603673
External:        +0.000000
XC:            -203.309681
Entropy (-ST):   -2.115332
Local:           -6.328710
--------------------------
Free energy:   -269.547796
Extrapolated:  -268.490130

Fermi level: 1.38985

Showing only first 2 kpts
 Kpt  Band  Eigenvalues  Occupancy
  0   357      1.37734    0.13280
  0   358      1.40436    0.11594
  0   359      1.42842    0.10119
  0   360      1.46989    0.07748

  1   357      1.27042    0.19188
  1   358      1.29562    0.17989
  1   359      1.31298    0.17081
  1   360      1.35643    0.14569



Forces in eV/Ang:
  0 Ag   -0.41727    0.15892   -1.05312
  1 Ag    0.25255    0.22665   -0.86591
  2 Ir    0.49976   -0.17851    0.02508
  3 Ir   -0.10313    1.24353    1.36660
  4 Ir    0.39987    0.40377    0.88498
  5 Ir   -0.31813   -0.01765    1.21913
  6 Ir   -1.72063   -0.51109    0.73062
  7 Ag   -0.12402   -0.34120   -0.95688
  8 Pt    1.06653   -0.38644    0.47224
  9 Ag    0.13264    0.00629    0.20559
 10 Ir   -0.01420   -0.43780    1.00133
 11 Ir   -0.64976   -0.78231   -0.49885
 12 Ir    0.38719    0.15115    0.18263
 13 Ag   -0.01660   -0.02548    0.17315
 14 Ag    0.05430    0.07743    0.14075
 15 Pt   -0.10657   -0.03398   -0.58346
 16 Ru    0.62252    0.46951   -1.35823
 17 Ir    0.12695    0.29000   -1.27516
 18 Ir    0.02827    0.00714    0.07074
 19 Pt   -0.00605   -0.10713    0.03698
 20 Pt   -0.00834   -0.07246    0.04146
 21 Ag    0.01165    0.02215    0.00196
 22 Ag    0.00014    0.02084   -0.00141
 23 Ag    0.01572   -0.07636    0.08650
 24 Pt   -0.06761   -0.00920   -0.09198
 25 Ag    0.03908    0.09753    0.04707
 26 Ir    0.00295    0.05757   -0.06075
 27 Ru   -0.00792   -0.07006    0.07741
 28 Ir   -0.14224   -0.15636   -0.01913
 29 Ir    0.15455   -0.12002   -0.09756
 30 Ir    0.01298   -0.00125   -0.08320
 31 Ir    0.08504    0.13867   -0.15478
 32 Pt   -0.06276    0.01649   -0.04194
 33 Ag    0.19753    0.13247    0.60786
 34 Ir   -0.13946    0.20278    0.59455
 35 Ru   -0.06861   -0.05036   -0.06660
 36 Ir    0.48665   -0.59726   -1.19663
 37 Ir   -0.22138    0.03502   -0.00077
 38 Pt    0.07047   -0.01025   -0.01302
 39 Ag    0.09986    0.16435   -0.06689
 40 Ir   -0.04871   -0.03705    0.05488
 41 Pt    0.00617   -0.02892    0.05995
 42 Ir    0.08055    0.32522    0.25405
 43 Ir   -0.15717    0.16578   -0.03458
 44 Ag   -0.01016   -0.12227    0.06229
 45 O    -1.91226   -1.49835   -0.43556
 46 H     1.35164    1.26365    0.61513

System changes: positions 

Initializing position-dependent things.

Density initialized from wave functions
                                             
                                             
                                             
                                             
                                             
                                             
                                             
                                             
         H        Ir    Ir     Ag            
       O    Ag                               
                  AIr    IPt    Ru           
       Ir    Ir     IPt     Pt               
              Ir                             
         Ru    Ir    PIr    Ag     Ir        
                                             
                Ag     Ag     Ag             
           Ir    PPt    RPt    Ir            
                                             
            Ir    IAg    AAg    Pt           
                                             
       Ag    IIr    IIr    Ir                
        Ag     Ag     Ir                     
                                             
                                             
                                             
                                             
                                             

Positions:
   0 Ag     0.000000    1.621936   10.000000    ( 0.0000,  0.0000,  0.0000)
   1 Ag     2.809275    1.621936   10.000000    ( 0.0000,  0.0000,  0.0000)
   2 Ir     5.618550    1.621936   10.000000    ( 0.0000,  0.0000,  0.0000)
   3 Ir     1.404638    4.054840   10.000000    ( 0.0000,  0.0000,  0.0000)
   4 Ir     4.213913    4.054840   10.000000    ( 0.0000,  0.0000,  0.0000)
   5 Ir     7.023188    4.054840   10.000000    ( 0.0000,  0.0000,  0.0000)
   6 Ir     2.809275    6.487743   10.000000    ( 0.0000,  0.0000,  0.0000)
   7 Ag     5.618550    6.487743   10.000000    ( 0.0000,  0.0000,  0.0000)
   8 Pt     8.427826    6.487743   10.000000    ( 0.0000,  0.0000,  0.0000)
   9 Ag     0.000000    0.000000   12.293764    ( 0.0000,  0.0000,  0.0000)
  10 Ir     2.809275    0.000000   12.293764    ( 0.0000,  0.0000,  0.0000)
  11 Ir     5.618550    0.000000   12.293764    ( 0.0000,  0.0000,  0.0000)
  12 Ir     1.404638    2.432904   12.293764    ( 0.0000,  0.0000,  0.0000)
  13 Ag     4.213913    2.432904   12.293764    ( 0.0000,  0.0000,  0.0000)
  14 Ag     7.023188    2.432904   12.293764    ( 0.0000,  0.0000,  0.0000)
  15 Pt     2.809275    4.865807   12.293764    ( 0.0000,  0.0000,  0.0000)
  16 Ru     5.618550    4.865807   12.293764    ( 0.0000,  0.0000,  0.0000)
  17 Ir     8.427826    4.865807   12.293764    ( 0.0000,  0.0000,  0.0000)
  18 Ir     1.446237    0.797246   14.593763    ( 0.0000,  0.0000,  0.0000)
  19 Pt     4.196182    0.734792   14.613210    ( 0.0000,  0.0000,  0.0000)
  20 Pt     7.035883    0.804723   14.639533    ( 0.0000,  0.0000,  0.0000)
  21 Ag     2.790464    3.268277   14.614303    ( 0.0000,  0.0000,  0.0000)
  22 Ag     5.616658    3.229906   14.632550    ( 0.0000,  0.0000,  0.0000)
  23 Ag     8.465396    3.244015   14.606099    ( 0.0000,  0.0000,  0.0000)
  24 Pt     4.242378    5.676517   14.607486    ( 0.0000,  0.0000,  0.0000)
  25 Ag     7.022499    5.618457   14.589403    ( 0.0000,  0.0000,  0.0000)
  26 Ir     9.812212    5.742706   14.535825    ( 0.0000,  0.0000,  0.0000)
  27 Ru     0.079208    1.626140   16.922001    ( 0.0000,  0.0000,  0.0000)
  28 Ir     2.745896    1.629701   16.879249    ( 0.0000,  0.0000,  0.0000)
  29 Ir     5.554046    1.601041   16.890064    ( 0.0000,  0.0000,  0.0000)
  30 Ir     1.351613    4.007559   17.024950    ( 0.0000,  0.0000,  0.0000)
  31 Ir     4.195297    3.978693   16.963213    ( 0.0000,  0.0000,  0.0000)
  32 Pt     7.130514    4.061381   17.002266    ( 0.0000,  0.0000,  0.0000)
  33 Ag     2.769086    6.474906   16.808825    ( 0.0000,  0.0000,  0.0000)
  34 Ir     5.624878    6.563358   16.854267    ( 0.0000,  0.0000,  0.0000)
  35 Ru     8.402300    6.476756   16.882032    ( 0.0000,  0.0000,  0.0000)
  36 Ir     0.079506   -0.007099   19.296331    ( 0.0000,  0.0000,  0.0000)
  37 Ir     2.804682   -0.031368   18.982156    ( 0.0000,  0.0000,  0.0000)
  38 Pt     5.591348   -0.059145   19.124247    ( 0.0000,  0.0000,  0.0000)
  39 Ag     1.416258    2.429240   19.542910    ( 0.0000,  0.0000,  0.0000)
  40 Ir     4.224511    2.403321   19.015222    ( 0.0000,  0.0000,  0.0000)
  41 Pt     6.952444    2.321707   19.124167    ( 0.0000,  0.0000,  0.0000)
  42 Ir     2.906279    4.858132   19.032240    ( 0.0000,  0.0000,  0.0000)
  43 Ir     5.529046    4.927421   19.029020    ( 0.0000,  0.0000,  0.0000)
  44 Ag     8.405646    4.873729   19.533252    ( 0.0000,  0.0000,  0.0000)
  45 O      0.033901   -0.021505   21.383899    ( 0.0000,  0.0000,  0.0000)
  46 H      0.625343    0.550629   21.874715    ( 0.0000,  0.0000,  0.0000)

Unit cell:
           periodic     x           y           z      points  spacing
  1. axis:    yes    8.445283    0.000000    0.000000    35     0.2090
  2. axis:    yes    4.222641    7.313829    0.000000    35     0.2090
  3. axis:    no     0.000000    0.000000   29.175054   135     0.2161

  Lengths:   8.445283   8.445283  29.175054
  Angles:   90.000000  90.000000  60.000000

Effective grid spacing dv^(1/3) = 0.2217

                     log10-error:    total        iterations:
           time      wfs    density  energy       fermi  poisson
iter:   1  21:23:12  -2.38   +inf  -269.466968    3             
iter:   2  21:24:17  -2.75  -2.32  -270.196268    4             
iter:   3  21:25:21  -2.78  -2.09  -273.067254    3             
iter:   4  21:26:26  -3.20  -1.80  -268.807286    3             
iter:   5  21:27:30  -3.65  -2.54  -268.591375    3             
iter:   6  21:28:35  -4.12  -2.90  -268.568750    3             
iter:   7  21:29:28  -5.10  -2.99  -268.560760    3             
iter:   8  21:30:23  -4.72  -3.06  -268.555572    2             
iter:   9  21:31:28  -4.23  -3.06  -268.683295    3             
iter:  10  21:32:32  -4.50  -2.52  -268.553060    3             
iter:  11  21:33:36  -5.04  -3.06  -268.541702    3             
iter:  12  21:34:41  -5.47  -3.33  -268.539632    3             
iter:  13  21:35:45  -6.09  -3.46  -268.537741    2             
iter:  14  21:36:50  -6.54  -3.64  -268.537580    2             
iter:  15  21:37:55  -5.64  -3.69  -268.537487    2             
iter:  16  21:38:59  -6.01  -3.36  -268.538820    2             
iter:  17  21:40:04  -6.38  -3.56  -268.536763    2             
iter:  18  21:41:08  -6.27  -3.90  -268.536564    2             
iter:  19  21:42:13  -6.69  -4.00  -268.536173    2             
iter:  20  21:43:17  -6.90  -3.93  -268.536368    2             
iter:  21  21:44:22  -7.14  -4.14  -268.536255    2             
iter:  22  21:45:27  -6.56  -4.10  -268.537844    2             
iter:  23  21:46:31  -7.24  -3.78  -268.536632    2             
iter:  24  21:47:36  -7.55  -4.42  -268.536545    2             

Converged after 24 iterations.

Dipole moment: (15.008671, 17.372721, -0.041971) |e|*Ang

Energy contributions relative to reference atoms: (reference = -16429291.423757)

Kinetic:       -158.474934
Potential:     +100.068725
External:        +0.000000
XC:            -202.730611
Entropy (-ST):   -2.111967
Local:           -6.343741
--------------------------
Free energy:   -269.592528
Extrapolated:  -268.536545

Fermi level: 1.33542

Showing only first 2 kpts
 Kpt  Band  Eigenvalues  Occupancy
  0   357      1.32210    0.13331
  0   358      1.34767    0.11735
  0   359      1.37464    0.10080
  0   360      1.41440    0.07805

  1   357      1.21266    0.19335
  1   358      1.24225    0.17935
  1   359      1.25625    0.17205
  1   360      1.29865    0.14772



Forces in eV/Ang:
  0 Ag   -0.41800    0.16014   -1.04776
  1 Ag    0.25342    0.22716   -0.86072
  2 Ir    0.49868   -0.17775    0.03320
  3 Ir   -0.10377    1.24530    1.38293
  4 Ir    0.40199    0.40138    0.89345
  5 Ir   -0.31977   -0.01812    1.22929
  6 Ir   -1.72341   -0.51179    0.73981
  7 Ag   -0.12301   -0.34366   -0.95083
  8 Pt    1.06853   -0.38701    0.48143
  9 Ag    0.13330    0.00736    0.20165
 10 Ir   -0.01711   -0.43751    0.99454
 11 Ir   -0.64713   -0.78030   -0.50405
 12 Ir    0.38454    0.15177    0.18184
 13 Ag   -0.01561   -0.02650    0.16772
 14 Ag    0.05452    0.07989    0.13809
 15 Pt   -0.11194   -0.03416   -0.59136
 16 Ru    0.62574    0.46919   -1.36191
 17 Ir    0.12551    0.28918   -1.28364
 18 Ir    0.03001    0.01353    0.06086
 19 Pt   -0.00127   -0.07851    0.03885
 20 Pt   -0.00446   -0.05624    0.04302
 21 Ag    0.01076    0.01830    0.01524
 22 Ag    0.00259    0.01426    0.00375
 23 Ag    0.01475   -0.05601    0.06947
 24 Pt   -0.04199   -0.00221   -0.05850
 25 Ag    0.03103    0.07137    0.04317
 26 Ir    0.00574    0.03588   -0.04497
 27 Ru   -0.02915   -0.14044    0.12480
 28 Ir   -0.11437   -0.11551   -0.01233
 29 Ir    0.12069   -0.08886   -0.07068
 30 Ir   -0.00028   -0.00350   -0.05859
 31 Ir    0.05946    0.10240   -0.10667
 32 Pt   -0.04278    0.02495   -0.01994
 33 Ag    0.22534    0.13240    0.55810
 34 Ir   -0.23407    0.19307    0.56033
 35 Ru   -0.06180   -0.03498   -0.01922
 36 Ir    0.43864   -0.42543    0.27598
 37 Ir   -0.11600    0.01109   -0.02954
 38 Pt    0.02156   -0.00880   -0.01939
 39 Ag    0.08329    0.12489   -0.08182
 40 Ir   -0.03269   -0.02929    0.05568
 41 Pt   -0.03450   -0.00327    0.02521
 42 Ir    0.07873    0.26285    0.18847
 43 Ir   -0.11489    0.06412   -0.02847
 44 Ag   -0.01361   -0.09826    0.05015
 45 O    -1.48982   -1.18349   -1.68922
 46 H     1.04342    0.96839    0.24744

System changes: positions 

Initializing position-dependent things.

Density initialized from wave functions
                                             
                                             
                                             
                                             
                                             
                                             
                                             
                                             
         H        Ir    Ir     Ag            
       O    Ag                               
                  AIr    IPt    Ru           
        Ir   IIr    IPt     Pt               
                                             
         Ru    Ir    PIr    Ag     Ir        
                                             
                Ag     Ag     Ag             
           Ir    PPt    RPt    Ir            
                                             
            Ir     Ag    AAg    Pt           
       Ag     Ir     Ir                      
             Ir     Ir     Ir                
        Ag     Ag     Ir                     
                                             
                                             
                                             
                                             
                                             

Positions:
   0 Ag     0.000000    1.621936   10.000000    ( 0.0000,  0.0000,  0.0000)
   1 Ag     2.809275    1.621936   10.000000    ( 0.0000,  0.0000,  0.0000)
   2 Ir     5.618550    1.621936   10.000000    ( 0.0000,  0.0000,  0.0000)
   3 Ir     1.404638    4.054840   10.000000    ( 0.0000,  0.0000,  0.0000)
   4 Ir     4.213913    4.054840   10.000000    ( 0.0000,  0.0000,  0.0000)
   5 Ir     7.023188    4.054840   10.000000    ( 0.0000,  0.0000,  0.0000)
   6 Ir     2.809275    6.487743   10.000000    ( 0.0000,  0.0000,  0.0000)
   7 Ag     5.618550    6.487743   10.000000    ( 0.0000,  0.0000,  0.0000)
   8 Pt     8.427826    6.487743   10.000000    ( 0.0000,  0.0000,  0.0000)
   9 Ag     0.000000    0.000000   12.293764    ( 0.0000,  0.0000,  0.0000)
  10 Ir     2.809275    0.000000   12.293764    ( 0.0000,  0.0000,  0.0000)
  11 Ir     5.618550    0.000000   12.293764    ( 0.0000,  0.0000,  0.0000)
  12 Ir     1.404638    2.432904   12.293764    ( 0.0000,  0.0000,  0.0000)
  13 Ag     4.213913    2.432904   12.293764    ( 0.0000,  0.0000,  0.0000)
  14 Ag     7.023188    2.432904   12.293764    ( 0.0000,  0.0000,  0.0000)
  15 Pt     2.809275    4.865807   12.293764    ( 0.0000,  0.0000,  0.0000)
  16 Ru     5.618550    4.865807   12.293764    ( 0.0000,  0.0000,  0.0000)
  17 Ir     8.427826    4.865807   12.293764    ( 0.0000,  0.0000,  0.0000)
  18 Ir     1.450340    0.801527   14.596800    ( 0.0000,  0.0000,  0.0000)
  19 Pt     4.197745    0.734230   14.616153    ( 0.0000,  0.0000,  0.0000)
  20 Pt     7.036318    0.802877   14.644293    ( 0.0000,  0.0000,  0.0000)
  21 Ag     2.791479    3.269833   14.618702    ( 0.0000,  0.0000,  0.0000)
  22 Ag     5.618282    3.230119   14.634426    ( 0.0000,  0.0000,  0.0000)
  23 Ag     8.466438    3.244284   14.608114    ( 0.0000,  0.0000,  0.0000)
  24 Pt     4.243584    5.677170   14.609539    ( 0.0000,  0.0000,  0.0000)
  25 Ag     7.025214    5.617949   14.591616    ( 0.0000,  0.0000,  0.0000)
  26 Ir     9.813618    5.740518   14.534673    ( 0.0000,  0.0000,  0.0000)
  27 Ru     0.072194    1.602046   16.925396    ( 0.0000,  0.0000,  0.0000)
  28 Ir     2.740879    1.625679   16.881146    ( 0.0000,  0.0000,  0.0000)
  29 Ir     5.560774    1.598981   16.887397    ( 0.0000,  0.0000,  0.0000)
  30 Ir     1.347294    4.007543   17.029355    ( 0.0000,  0.0000,  0.0000)
  31 Ir     4.196137    3.983750   16.961737    ( 0.0000,  0.0000,  0.0000)
  32 Pt     7.131674    4.065579   17.003674    ( 0.0000,  0.0000,  0.0000)
  33 Ag     2.784820    6.480882   16.837663    ( 0.0000,  0.0000,  0.0000)
  34 Ir     5.591131    6.572064   16.873526    ( 0.0000,  0.0000,  0.0000)
  35 Ru     8.401165    6.471398   16.890412    ( 0.0000,  0.0000,  0.0000)
  36 Ir     0.137332    0.003060   19.487519    ( 0.0000,  0.0000,  0.0000)
  37 Ir     2.816284   -0.034624   18.979431    ( 0.0000,  0.0000,  0.0000)
  38 Pt     5.572747   -0.063653   19.118526    ( 0.0000,  0.0000,  0.0000)
  39 Ag     1.423029    2.437651   19.534846    ( 0.0000,  0.0000,  0.0000)
  40 Ir     4.220700    2.402096   19.015714    ( 0.0000,  0.0000,  0.0000)
  41 Pt     6.943623    2.326330   19.122686    ( 0.0000,  0.0000,  0.0000)
  42 Ir     2.901252    4.853662   19.033759    ( 0.0000,  0.0000,  0.0000)
  43 Ir     5.526347    4.916838   19.029063    ( 0.0000,  0.0000,  0.0000)
  44 Ag     8.404173    4.867673   19.533942    ( 0.0000,  0.0000,  0.0000)
  45 O     -0.022040   -0.053954   21.208443    ( 0.0000,  0.0000,  0.0000)
  46 H      0.647802    0.567911   21.840509    ( 0.0000,  0.0000,  0.0000)

Unit cell:
           periodic     x           y           z      points  spacing
  1. axis:    yes    8.445283    0.000000    0.000000    35     0.2090
  2. axis:    yes    4.222641    7.313829    0.000000    35     0.2090
  3. axis:    no     0.000000    0.000000   29.175054   135     0.2161

  Lengths:   8.445283   8.445283  29.175054
  Angles:   90.000000  90.000000  60.000000

Effective grid spacing dv^(1/3) = 0.2217

                     log10-error:    total        iterations:
           time      wfs    density  energy       fermi  poisson
iter:   1  21:49:10  -1.67   +inf  -270.501278    3             
iter:   2  21:50:14  -1.72  -1.92  -316.034567    36            
iter:   3  21:51:19  -2.07  -1.39  -269.201536    37            
iter:   4  21:52:23  -2.76  -2.07  -268.243882    4             
iter:   5  21:53:28  -3.66  -2.35  -267.982137    3             
iter:   6  21:54:32  -3.57  -2.45  -267.855615    3             
iter:   7  21:55:37  -3.68  -2.62  -267.782638    3             
iter:   8  21:56:41  -3.66  -2.61  -267.692802    3             
iter:   9  21:57:46  -4.07  -3.03  -267.735676    2             
iter:  10  21:58:51  -4.40  -2.66  -267.701346    3             
iter:  11  21:59:56  -4.46  -2.89  -267.681560    3             
iter:  12  22:01:01  -4.74  -2.97  -267.672422    3             
iter:  13  22:02:05  -5.36  -3.25  -267.671186    2             
iter:  14  22:03:10  -5.65  -3.36  -267.674011    2             
iter:  15  22:04:15  -5.83  -3.27  -267.668697    2             
iter:  16  22:05:19  -5.90  -3.47  -267.672112    2             
iter:  17  22:06:24  -5.77  -3.40  -267.669668    2             
iter:  18  22:07:28  -5.75  -3.58  -267.670474    3             
iter:  19  22:08:33  -5.94  -3.58  -267.670266    2             
iter:  20  22:09:37  -6.27  -3.72  -267.669787    2             
iter:  21  22:10:42  -6.01  -3.84  -267.669621    2             
iter:  22  22:11:48  -6.36  -3.39  -267.669487    2             
iter:  23  22:12:46  -6.77  -3.97  -267.668864    2             
iter:  24  22:13:40  -6.66  -3.94  -267.669015    2             
iter:  25  22:14:42  -6.52  -3.94  -267.669007    2             
iter:  26  22:15:47  -6.76  -4.15  -267.668648    2             
iter:  27  22:16:51  -6.87  -4.06  -267.668498    2             
iter:  28  22:17:56  -6.74  -3.87  -267.669865    2             
iter:  29  22:18:55  -7.12  -3.84  -267.668985    2             
iter:  30  22:19:57  -7.26  -4.24  -267.669016    2             
iter:  31  22:21:01  -7.36  -4.29  -267.669185    2             
iter:  32  22:22:06  -7.84  -4.21  -267.668964    2             

Converged after 32 iterations.

Dipole moment: (16.651041, 19.476357, 0.287885) |e|*Ang

Energy contributions relative to reference atoms: (reference = -16429291.423757)

Kinetic:       -144.204929
Potential:      +87.313381
External:        +0.000000
XC:            -203.263955
Entropy (-ST):   -2.110907
Local:           -6.458007
--------------------------
Free energy:   -268.724418
Extrapolated:  -267.668964

Fermi level: 1.49086

Showing only first 2 kpts
 Kpt  Band  Eigenvalues  Occupancy
  0   357      1.47607    0.13423
  0   358      1.50829    0.11414
  0   359      1.52487    0.10395
  0   360      1.57620    0.07468

  1   357      1.37143    0.19188
  1   358      1.39519    0.18062
  1   359      1.41777    0.16875
  1   360      1.45899    0.14475



Forces in eV/Ang:
  0 Ag   -0.41773    0.15861   -1.05064
  1 Ag    0.25244    0.22614   -0.86266
  2 Ir    0.50056   -0.17795    0.03227
  3 Ir   -0.09984    1.24371    1.37845
  4 Ir    0.39663    0.40688    0.89210
  5 Ir   -0.31566   -0.01612    1.22616
  6 Ir   -1.72271   -0.51389    0.73261
  7 Ag   -0.12410   -0.33885   -0.95694
  8 Pt    1.06579   -0.38638    0.47558
  9 Ag    0.13301    0.01189    0.20450
 10 Ir   -0.01286   -0.43611    1.01299
 11 Ir   -0.64699   -0.77716   -0.49955
 12 Ir    0.38572    0.14287    0.19221
 13 Ag   -0.01751   -0.02939    0.18415
 14 Ag    0.05684    0.07180    0.15416
 15 Pt   -0.10249   -0.03380   -0.57926
 16 Ru    0.62263    0.47329   -1.34465
 17 Ir    0.12793    0.28666   -1.26617
 18 Ir    0.01301   -0.02909    0.08755
 19 Pt   -0.02130   -0.08839    0.04288
 20 Pt   -0.00346   -0.12257    0.05044
 21 Ag    0.01243    0.00830   -0.00145
 22 Ag    0.00304    0.02088   -0.00430
 23 Ag    0.00915   -0.07744    0.09883
 24 Pt   -0.08323    0.02162   -0.05292
 25 Ag   -0.00655    0.10112    0.08668
 26 Ir    0.02895    0.06769    0.00359
 27 Ru   -0.00011    0.08139   -0.00200
 28 Ir   -0.08163   -0.12938   -0.02477
 29 Ir    0.09437   -0.09411   -0.05750
 30 Ir    0.04980    0.03243   -0.09169
 31 Ir    0.04466    0.09145   -0.09056
 32 Pt   -0.07768    0.00148   -0.08196
 33 Ag    0.05808    0.08927    0.38565
 34 Ir    0.05089    0.11733    0.29479
 35 Ru   -0.00655   -0.07655   -0.15572
 36 Ir    0.85468   -0.46055   -7.06862
 37 Ir   -0.17736    0.08046    0.16924
 38 Pt    0.00743   -0.00083    0.05441
 39 Ag    0.09925    0.17918   -0.06381
 40 Ir   -0.03648   -0.05086   -0.01926
 41 Pt    0.05130   -0.01436    0.09066
 42 Ir   -0.00268    0.14718    0.23483
 43 Ir   -0.07615    0.17109    0.00105
 44 Ag   -0.02280   -0.11026    0.09215
 45 O     1.07573    1.53509    8.02026
 46 H    -1.84270   -1.68898   -1.93472

System changes: positions 

Initializing position-dependent things.

Density initialized from wave functions
                                             
                                             
                                             
                                             
                                             
                                             
                                             
                                             
         H        Ir    Ir     Ag            
       O    Ag                               
                  AIr    IPt    Ru           
        Ir   Ir     IPt     Pt               
              Ir                             
         Ru    Ir    PIr    Ag     Ir        
                                             
                Ag     Ag     Ag             
           Ir    PPt    RPt    Ir            
                                             
            Ir    IAg    AAg    Pt           
                                             
       Ag    IIr    IIr    Ir                
        Ag     Ag     Ir                     
                                             
                                             
                                             
                                             
                                             

Positions:
   0 Ag     0.000000    1.621936   10.000000    ( 0.0000,  0.0000,  0.0000)
   1 Ag     2.809275    1.621936   10.000000    ( 0.0000,  0.0000,  0.0000)
   2 Ir     5.618550    1.621936   10.000000    ( 0.0000,  0.0000,  0.0000)
   3 Ir     1.404638    4.054840   10.000000    ( 0.0000,  0.0000,  0.0000)
   4 Ir     4.213913    4.054840   10.000000    ( 0.0000,  0.0000,  0.0000)
   5 Ir     7.023188    4.054840   10.000000    ( 0.0000,  0.0000,  0.0000)
   6 Ir     2.809275    6.487743   10.000000    ( 0.0000,  0.0000,  0.0000)
   7 Ag     5.618550    6.487743   10.000000    ( 0.0000,  0.0000,  0.0000)
   8 Pt     8.427826    6.487743   10.000000    ( 0.0000,  0.0000,  0.0000)
   9 Ag     0.000000    0.000000   12.293764    ( 0.0000,  0.0000,  0.0000)
  10 Ir     2.809275    0.000000   12.293764    ( 0.0000,  0.0000,  0.0000)
  11 Ir     5.618550    0.000000   12.293764    ( 0.0000,  0.0000,  0.0000)
  12 Ir     1.404638    2.432904   12.293764    ( 0.0000,  0.0000,  0.0000)
  13 Ag     4.213913    2.432904   12.293764    ( 0.0000,  0.0000,  0.0000)
  14 Ag     7.023188    2.432904   12.293764    ( 0.0000,  0.0000,  0.0000)
  15 Pt     2.809275    4.865807   12.293764    ( 0.0000,  0.0000,  0.0000)
  16 Ru     5.618550    4.865807   12.293764    ( 0.0000,  0.0000,  0.0000)
  17 Ir     8.427826    4.865807   12.293764    ( 0.0000,  0.0000,  0.0000)
  18 Ir     1.447165    0.798214   14.594450    ( 0.0000,  0.0000,  0.0000)
  19 Pt     4.196535    0.734665   14.613876    ( 0.0000,  0.0000,  0.0000)
  20 Pt     7.035981    0.804306   14.640610    ( 0.0000,  0.0000,  0.0000)
  21 Ag     2.790693    3.268629   14.615298    ( 0.0000,  0.0000,  0.0000)
  22 Ag     5.617025    3.229954   14.632974    ( 0.0000,  0.0000,  0.0000)
  23 Ag     8.465631    3.244076   14.606554    ( 0.0000,  0.0000,  0.0000)
  24 Pt     4.242651    5.676665   14.607950    ( 0.0000,  0.0000,  0.0000)
  25 Ag     7.023113    5.618342   14.589903    ( 0.0000,  0.0000,  0.0000)
  26 Ir     9.812530    5.742211   14.535564    ( 0.0000,  0.0000,  0.0000)
  27 Ru     0.077621    1.620690   16.922769    ( 0.0000,  0.0000,  0.0000)
  28 Ir     2.744761    1.628791   16.879678    ( 0.0000,  0.0000,  0.0000)
  29 Ir     5.555568    1.600575   16.889461    ( 0.0000,  0.0000,  0.0000)
  30 Ir     1.350636    4.007555   17.025946    ( 0.0000,  0.0000,  0.0000)
  31 Ir     4.195487    3.979837   16.962879    ( 0.0000,  0.0000,  0.0000)
  32 Pt     7.130776    4.062330   17.002585    ( 0.0000,  0.0000,  0.0000)
  33 Ag     2.772645    6.476258   16.815349    ( 0.0000,  0.0000,  0.0000)
  34 Ir     5.617244    6.565327   16.858624    ( 0.0000,  0.0000,  0.0000)
  35 Ru     8.402044    6.475544   16.883928    ( 0.0000,  0.0000,  0.0000)
  36 Ir     0.092587   -0.004801   19.339580    ( 0.0000,  0.0000,  0.0000)
  37 Ir     2.807306   -0.032105   18.981539    ( 0.0000,  0.0000,  0.0000)
  38 Pt     5.587140   -0.060165   19.122953    ( 0.0000,  0.0000,  0.0000)
  39 Ag     1.417789    2.431143   19.541086    ( 0.0000,  0.0000,  0.0000)
  40 Ir     4.223649    2.403044   19.015333    ( 0.0000,  0.0000,  0.0000)
  41 Pt     6.950449    2.322753   19.123832    ( 0.0000,  0.0000,  0.0000)
  42 Ir     2.905142    4.857121   19.032584    ( 0.0000,  0.0000,  0.0000)
  43 Ir     5.528435    4.925027   19.029030    ( 0.0000,  0.0000,  0.0000)
  44 Ag     8.405313    4.872359   19.533408    ( 0.0000,  0.0000,  0.0000)
  45 O      0.021247   -0.028845   21.344209    ( 0.0000,  0.0000,  0.0000)
  46 H      0.630423    0.554538   21.866978    ( 0.0000,  0.0000,  0.0000)

Unit cell:
           periodic     x           y           z      points  spacing
  1. axis:    yes    8.445283    0.000000    0.000000    35     0.2090
  2. axis:    yes    4.222641    7.313829    0.000000    35     0.2090
  3. axis:    no     0.000000    0.000000   29.175054   135     0.2161

  Lengths:   8.445283   8.445283  29.175054
  Angles:   90.000000  90.000000  60.000000

Effective grid spacing dv^(1/3) = 0.2217

                     log10-error:    total        iterations:
           time      wfs    density  energy       fermi  poisson
iter:   1  22:23:40  -1.67   +inf  -271.741399    2             
iter:   2  22:24:44  -2.03  -2.05  -298.241074    3             
iter:   3  22:25:49  -2.12  -1.46  -272.677069    3             
iter:   4  22:26:54  -2.96  -1.83  -269.524794    3             
iter:   5  22:27:58  -3.05  -2.29  -268.873791    3             
iter:   6  22:28:58  -3.94  -2.64  -268.770049    3             
iter:   7  22:30:02  -3.88  -2.74  -268.701318    2             
iter:   8  22:31:06  -4.12  -2.80  -268.694991    3             
iter:   9  22:32:10  -3.61  -2.70  -269.753542    3             
iter:  10  22:33:13  -3.57  -2.08  -268.684787    3             
iter:  11  22:34:17  -4.05  -2.71  -268.642511    3             
iter:  12  22:35:20  -4.52  -2.86  -268.614042    3             
iter:  13  22:36:24  -5.29  -3.08  -268.615346    2             
iter:  14  22:37:28  -5.43  -3.07  -268.608972    2             
iter:  15  22:38:32  -4.61  -3.21  -268.672912    2             
iter:  16  22:39:36  -4.87  -2.66  -268.608071    2             
iter:  17  22:40:40  -5.78  -3.28  -268.604668    3             
iter:  18  22:41:44  -5.74  -3.46  -268.602540    2             
iter:  19  22:42:48  -6.09  -3.64  -268.602719    2             
iter:  20  22:43:51  -5.93  -3.80  -268.602348    2             
iter:  21  22:44:56  -6.26  -3.70  -268.602209    2             
iter:  22  22:45:59  -5.83  -3.75  -268.609669    2             
iter:  23  22:47:03  -6.23  -3.29  -268.602877    2             
iter:  24  22:48:07  -6.93  -4.06  -268.602559    2             
iter:  25  22:49:10  -6.63  -4.18  -268.602886    2             
iter:  26  22:50:14  -6.96  -4.16  -268.602469    2             
iter:  27  22:51:18  -7.62  -4.44  -268.602594    2             

Converged after 27 iterations.

Dipole moment: (15.350279, 17.858520, 0.035885) |e|*Ang

Energy contributions relative to reference atoms: (reference = -16429291.423757)

Kinetic:       -157.518463
Potential:      +98.921440
External:        +0.000000
XC:            -202.619302
Entropy (-ST):   -2.112305
Local:           -6.330117
--------------------------
Free energy:   -269.658747
Extrapolated:  -268.602594

Fermi level: 1.37185

Showing only first 2 kpts
 Kpt  Band  Eigenvalues  Occupancy
  0   357      1.35878    0.13316
  0   358      1.38595    0.11620
  0   359      1.41028    0.10127
  0   360      1.45182    0.07752

  1   357      1.24998    0.19295
  1   358      1.27785    0.17977
  1   359      1.29308    0.17183
  1   360      1.33655    0.14683



Forces in eV/Ang:
  0 Ag   -0.41632    0.15924   -1.04642
  1 Ag    0.25161    0.22641   -0.85901
  2 Ir    0.49931   -0.17801    0.03637
  3 Ir   -0.10292    1.24142    1.38578
  4 Ir    0.40113    0.40339    0.89724
  5 Ir   -0.31950   -0.01720    1.23327
  6 Ir   -1.72014   -0.51073    0.74325
  7 Ag   -0.12340   -0.34199   -0.94937
  8 Pt    1.06581   -0.38537    0.48446
  9 Ag    0.13408    0.00812    0.20082
 10 Ir   -0.01611   -0.43865    0.99309
 11 Ir   -0.64853   -0.77979   -0.50617
 12 Ir    0.38485    0.14986    0.18062
 13 Ag   -0.01630   -0.02757    0.16990
 14 Ag    0.05530    0.07901    0.13978
 15 Pt   -0.11022   -0.03423   -0.59121
 16 Ru    0.62687    0.47074   -1.36187
 17 Ir    0.12526    0.28830   -1.28100
 18 Ir    0.02111    0.00311    0.06877
 19 Pt   -0.00308   -0.07857    0.03914
 20 Pt   -0.00124   -0.07126    0.04822
 21 Ag    0.01205    0.01738    0.01147
 22 Ag    0.00290    0.01583    0.00247
 23 Ag    0.01212   -0.06591    0.07762
 24 Pt   -0.05049    0.00558   -0.05194
 25 Ag    0.01706    0.07856    0.05591
 26 Ir    0.01689    0.04409   -0.03108
 27 Ru   -0.02157   -0.08082    0.09409
 28 Ir   -0.09396   -0.10982   -0.01048
 29 Ir    0.10357   -0.08282   -0.06492
 30 Ir    0.01063    0.00854   -0.05746
 31 Ir    0.05532    0.08706   -0.09693
 32 Pt   -0.05165    0.02196   -0.02359
 33 Ag    0.18230    0.11674    0.51417
 34 Ir   -0.16804    0.17140    0.49488
 35 Ru   -0.05269   -0.04506   -0.03527
 36 Ir    0.43347   -0.46005   -0.46587
 37 Ir   -0.12004    0.02963    0.00280
 38 Pt    0.01179   -0.00892   -0.02230
 39 Ag    0.08921    0.14050   -0.08943
 40 Ir   -0.03124   -0.02891    0.01468
 41 Pt   -0.01959    0.00143    0.02515
 42 Ir    0.06154    0.24228    0.18839
 43 Ir   -0.09950    0.06403   -0.03440
 44 Ag   -0.01388   -0.09938    0.04486
 45 O    -0.48107   -0.19943    0.03334
 46 H     0.03048   -0.00955   -0.54450

System changes: positions 

Initializing position-dependent things.

Density initialized from wave functions
                                             
                                             
                                             
                                             
                                             
                                             
                                             
                                             
         H        Ir    Ir     Ag            
       O    Ag                               
                  AIr    IPt    Ru           
        Ir   IIr    IPt     Pt               
                                             
         Ru    Ir    PIr    Ag     Ir        
                                             
                Ag     Ag     Ag             
           Ir    PPt    RPt    Ir            
                                             
            Ir    IAg    AAg    Pt           
       Ag     Ir     Ir                      
             Ir     Ir     Ir                
        Ag     Ag     Ir                     
                                             
                                             
                                             
                                             
                                             

Positions:
   0 Ag     0.000000    1.621936   10.000000    ( 0.0000,  0.0000,  0.0000)
   1 Ag     2.809275    1.621936   10.000000    ( 0.0000,  0.0000,  0.0000)
   2 Ir     5.618550    1.621936   10.000000    ( 0.0000,  0.0000,  0.0000)
   3 Ir     1.404638    4.054840   10.000000    ( 0.0000,  0.0000,  0.0000)
   4 Ir     4.213913    4.054840   10.000000    ( 0.0000,  0.0000,  0.0000)
   5 Ir     7.023188    4.054840   10.000000    ( 0.0000,  0.0000,  0.0000)
   6 Ir     2.809275    6.487743   10.000000    ( 0.0000,  0.0000,  0.0000)
   7 Ag     5.618550    6.487743   10.000000    ( 0.0000,  0.0000,  0.0000)
   8 Pt     8.427826    6.487743   10.000000    ( 0.0000,  0.0000,  0.0000)
   9 Ag     0.000000    0.000000   12.293764    ( 0.0000,  0.0000,  0.0000)
  10 Ir     2.809275    0.000000   12.293764    ( 0.0000,  0.0000,  0.0000)
  11 Ir     5.618550    0.000000   12.293764    ( 0.0000,  0.0000,  0.0000)
  12 Ir     1.404638    2.432904   12.293764    ( 0.0000,  0.0000,  0.0000)
  13 Ag     4.213913    2.432904   12.293764    ( 0.0000,  0.0000,  0.0000)
  14 Ag     7.023188    2.432904   12.293764    ( 0.0000,  0.0000,  0.0000)
  15 Pt     2.809275    4.865807   12.293764    ( 0.0000,  0.0000,  0.0000)
  16 Ru     5.618550    4.865807   12.293764    ( 0.0000,  0.0000,  0.0000)
  17 Ir     8.427826    4.865807   12.293764    ( 0.0000,  0.0000,  0.0000)
  18 Ir     1.449999    0.799556   14.601302    ( 0.0000,  0.0000,  0.0000)
  19 Pt     4.196709    0.727880   14.618057    ( 0.0000,  0.0000,  0.0000)
  20 Pt     7.036069    0.797464   14.646194    ( 0.0000,  0.0000,  0.0000)
  21 Ag     2.792037    3.270540   14.617507    ( 0.0000,  0.0000,  0.0000)
  22 Ag     5.617762    3.231381   14.633719    ( 0.0000,  0.0000,  0.0000)
  23 Ag     8.466913    3.238417   14.613850    ( 0.0000,  0.0000,  0.0000)
  24 Pt     4.238596    5.677479   14.604317    ( 0.0000,  0.0000,  0.0000)
  25 Ag     7.025092    5.624943   14.595519    ( 0.0000,  0.0000,  0.0000)
  26 Ir     9.814587    5.745426   14.532871    ( 0.0000,  0.0000,  0.0000)
  27 Ru     0.073853    1.607827   16.931116    ( 0.0000,  0.0000,  0.0000)
  28 Ir     2.735742    1.618451   16.879399    ( 0.0000,  0.0000,  0.0000)
  29 Ir     5.565971    1.593102   16.883308    ( 0.0000,  0.0000,  0.0000)
  30 Ir     1.350450    4.008501   17.022448    ( 0.0000,  0.0000,  0.0000)
  31 Ir     4.200317    3.988384   16.954464    ( 0.0000,  0.0000,  0.0000)
  32 Pt     7.126604    4.065377   17.000948    ( 0.0000,  0.0000,  0.0000)
  33 Ag     2.791872    6.487573   16.866421    ( 0.0000,  0.0000,  0.0000)
  34 Ir     5.594272    6.581946   16.904792    ( 0.0000,  0.0000,  0.0000)
  35 Ru     8.397443    6.469953   16.883155    ( 0.0000,  0.0000,  0.0000)
  36 Ir     0.146283   -0.041166   19.343248    ( 0.0000,  0.0000,  0.0000)
  37 Ir     2.800592   -0.030227   18.981583    ( 0.0000,  0.0000,  0.0000)
  38 Pt     5.582381   -0.062267   19.119309    ( 0.0000,  0.0000,  0.0000)
  39 Ag     1.427441    2.445789   19.530997    ( 0.0000,  0.0000,  0.0000)
  40 Ir     4.219907    2.400250   19.015926    ( 0.0000,  0.0000,  0.0000)
  41 Pt     6.946448    2.324347   19.125505    ( 0.0000,  0.0000,  0.0000)
  42 Ir     2.908488    4.875787   19.048899    ( 0.0000,  0.0000,  0.0000)
  43 Ir     5.519547    4.927251   19.026031    ( 0.0000,  0.0000,  0.0000)
  44 Ag     8.403699    4.862158   19.537290    ( 0.0000,  0.0000,  0.0000)
  45 O     -0.016557   -0.036384   21.327722    ( 0.0000,  0.0000,  0.0000)
  46 H      0.620192    0.540061   21.795640    ( 0.0000,  0.0000,  0.0000)

Unit cell:
           periodic     x           y           z      points  spacing
  1. axis:    yes    8.445283    0.000000    0.000000    35     0.2090
  2. axis:    yes    4.222641    7.313829    0.000000    35     0.2090
  3. axis:    no     0.000000    0.000000   29.175054   135     0.2161

  Lengths:   8.445283   8.445283  29.175054
  Angles:   90.000000  90.000000  60.000000

Effective grid spacing dv^(1/3) = 0.2217

                     log10-error:    total        iterations:
           time      wfs    density  energy       fermi  poisson
iter:   1  22:52:52  -2.25   +inf  -271.884276    3             
iter:   2  22:53:56  -1.55  -1.93  -341.197179    34            
iter:   3  22:54:56  -1.92  -1.28  -270.777941    37            
iter:   4  22:55:57  -2.77  -2.01  -268.792748    4             
iter:   5  22:56:59  -4.15  -2.72  -268.743646    3             
iter:   6  22:58:02  -4.44  -2.90  -268.740640    3             
iter:   7  22:59:06  -4.60  -2.88  -268.722024    3             
iter:   8  23:00:10  -4.22  -3.02  -268.707558    3             
iter:   9  23:01:14  -4.60  -3.28  -268.719893    2             
iter:  10  23:02:18  -5.05  -3.06  -268.706297    2             
iter:  11  23:03:20  -5.50  -3.27  -268.705677    3             
iter:  12  23:04:12  -5.81  -3.45  -268.706518    2             
iter:  13  23:05:07  -5.81  -3.49  -268.705383    2             
iter:  14  23:06:02  -5.88  -3.53  -268.705373    2             
iter:  15  23:06:57  -6.03  -3.63  -268.707092    2             
iter:  16  23:07:50  -6.31  -3.62  -268.705222    2             
iter:  17  23:08:45  -6.41  -3.66  -268.705501    2             
iter:  18  23:09:39  -6.45  -3.80  -268.706167    2             
iter:  19  23:10:34  -6.27  -3.79  -268.705198    2             
iter:  20  23:11:25  -6.59  -4.03  -268.704996    2             
iter:  21  23:12:16  -6.81  -4.08  -268.705524    2             
iter:  22  23:13:09  -7.06  -4.04  -268.704900    2             
iter:  23  23:14:04  -7.03  -4.15  -268.705069    2             
iter:  24  23:14:58  -7.16  -4.26  -268.705343    2             
iter:  25  23:15:54  -7.18  -4.16  -268.705126    2             
iter:  26  23:16:48  -7.49  -4.37  -268.705014    2             

Converged after 26 iterations.

Dipole moment: (16.306880, 20.232248, 0.025345) |e|*Ang

Energy contributions relative to reference atoms: (reference = -16429291.423757)

Kinetic:       -155.366535
Potential:      +97.107466
External:        +0.000000
XC:            -203.044459
Entropy (-ST):   -2.109326
Local:           -6.346823
--------------------------
Free energy:   -269.759677
Extrapolated:  -268.705014

Fermi level: 1.36711

Showing only first 2 kpts
 Kpt  Band  Eigenvalues  Occupancy
  0   357      1.35233    0.13422
  0   358      1.38076    0.11648
  0   359      1.40476    0.10174
  0   360      1.44994    0.07600

  1   357      1.23862    0.19582
  1   358      1.27459    0.17903
  1   359      1.28823    0.17190
  1   360      1.33000    0.14793



Forces in eV/Ang:
  0 Ag   -0.41742    0.15883   -1.05108
  1 Ag    0.25166    0.22776   -0.86569
  2 Ir    0.50007   -0.17673    0.02900
  3 Ir   -0.09856    1.23230    1.39049
  4 Ir    0.39946    0.40327    0.88563
  5 Ir   -0.31666   -0.01382    1.23060
  6 Ir   -1.72085   -0.51061    0.73090
  7 Ag   -0.12448   -0.34079   -0.95532
  8 Pt    1.06672   -0.38246    0.48015
  9 Ag    0.14091    0.02124    0.21035
 10 Ir   -0.02233   -0.44088    1.01061
 11 Ir   -0.63997   -0.76939   -0.51229
 12 Ir    0.38101    0.13205    0.21110
 13 Ag   -0.01626   -0.03598    0.18925
 14 Ag    0.05976    0.07256    0.16787
 15 Pt   -0.10696   -0.03561   -0.60048
 16 Ru    0.63770    0.47767   -1.33657
 17 Ir    0.12006    0.27940   -1.24925
 18 Ir   -0.02202   -0.02937    0.05055
 19 Pt   -0.00686    0.00886    0.02405
 20 Pt    0.01034   -0.10870    0.07487
 21 Ag    0.01053   -0.01490    0.00875
 22 Ag    0.01731    0.00010   -0.01954
 23 Ag   -0.00799   -0.02428    0.04369
 24 Pt   -0.04235    0.05909    0.08581
 25 Ag   -0.06165    0.01810    0.06802
 26 Ir    0.04534    0.00033    0.10348
 27 Ru   -0.01782    0.06437    0.13084
 28 Ir    0.04064    0.04423   -0.01184
 29 Ir   -0.01629    0.01016    0.05722
 30 Ir    0.02748    0.06844   -0.01347
 31 Ir   -0.06676   -0.02224    0.10432
 32 Pt   -0.03610    0.00704   -0.00498
 33 Ag    0.00022    0.05176    0.00890
 34 Ir   -0.01687   -0.01740   -0.05526
 35 Ru    0.06775   -0.05360   -0.03531
 36 Ir    0.02242   -0.04911   -0.51828
 37 Ir    0.12059    0.10845    0.20483
 38 Pt   -0.05668    0.02710    0.09606
 39 Ag    0.02701    0.04595   -0.04986
 40 Ir    0.05270   -0.00615   -0.09831
 41 Pt    0.00597   -0.03587    0.00414
 42 Ir    0.01071   -0.02899    0.09079
 43 Ir    0.09068   -0.22210    0.05235
 44 Ag   -0.02375   -0.03847    0.03584
 45 O    -0.63453   -0.40430   -0.10847
 46 H     0.37428    0.29226   -0.02297

System changes: positions 

Initializing position-dependent things.

Density initialized from wave functions
                                             
                                             
                                             
                                             
                                             
                                             
                                             
                                             
         H        Ir    Ir     Ag            
       O     Ag                              
                   Ir    IPt    Ru           
        Ir   IIr    IPt     Pt               
                                             
         Ru    Ir     Ir    Ag     Ir        
                                             
                Ag     Ag     Ag             
            Ir    Pt    RPt    Ir            
                                             
            Ir     Ag    AAg    Pt           
       Ag     Ir     Ir                      
              Ir    Ir     Ir                
         Ag    Ag     Ir                     
                                             
                                             
                                             
                                             
                                             

Positions:
   0 Ag     0.000000    1.621936   10.000000    ( 0.0000,  0.0000,  0.0000)
   1 Ag     2.809275    1.621936   10.000000    ( 0.0000,  0.0000,  0.0000)
   2 Ir     5.618550    1.621936   10.000000    ( 0.0000,  0.0000,  0.0000)
   3 Ir     1.404638    4.054840   10.000000    ( 0.0000,  0.0000,  0.0000)
   4 Ir     4.213913    4.054840   10.000000    ( 0.0000,  0.0000,  0.0000)
   5 Ir     7.023188    4.054840   10.000000    ( 0.0000,  0.0000,  0.0000)
   6 Ir     2.809275    6.487743   10.000000    ( 0.0000,  0.0000,  0.0000)
   7 Ag     5.618550    6.487743   10.000000    ( 0.0000,  0.0000,  0.0000)
   8 Pt     8.427826    6.487743   10.000000    ( 0.0000,  0.0000,  0.0000)
   9 Ag     0.000000    0.000000   12.293764    ( 0.0000,  0.0000,  0.0000)
  10 Ir     2.809275    0.000000   12.293764    ( 0.0000,  0.0000,  0.0000)
  11 Ir     5.618550    0.000000   12.293764    ( 0.0000,  0.0000,  0.0000)
  12 Ir     1.404638    2.432904   12.293764    ( 0.0000,  0.0000,  0.0000)
  13 Ag     4.213913    2.432904   12.293764    ( 0.0000,  0.0000,  0.0000)
  14 Ag     7.023188    2.432904   12.293764    ( 0.0000,  0.0000,  0.0000)
  15 Pt     2.809275    4.865807   12.293764    ( 0.0000,  0.0000,  0.0000)
  16 Ru     5.618550    4.865807   12.293764    ( 0.0000,  0.0000,  0.0000)
[...]
  15 Pt     2.809275    4.865807   12.293764    ( 0.0000,  0.0000,  0.0000)
  16 Ru     5.618550    4.865807   12.293764    ( 0.0000,  0.0000,  0.0000)
  17 Ir     8.427826    4.865807   12.293764    ( 0.0000,  0.0000,  0.0000)
  18 Ir     1.451850    0.789043   14.603735    ( 0.0000,  0.0000,  0.0000)
  19 Pt     4.197603    0.719984   14.619295    ( 0.0000,  0.0000,  0.0000)
  20 Pt     7.040790    0.783824   14.656453    ( 0.0000,  0.0000,  0.0000)
  21 Ag     2.795431    3.261506   14.614723    ( 0.0000,  0.0000,  0.0000)
  22 Ag     5.621003    3.222567   14.631948    ( 0.0000,  0.0000,  0.0000)
  23 Ag     8.469449    3.225052   14.620555    ( 0.0000,  0.0000,  0.0000)
  24 Pt     4.236652    5.672104   14.612455    ( 0.0000,  0.0000,  0.0000)
  25 Ag     7.023120    5.615983   14.594029    ( 0.0000,  0.0000,  0.0000)
  26 Ir     9.816393    5.737497   14.541553    ( 0.0000,  0.0000,  0.0000)
  27 Ru     0.082856    1.589816   16.962705    ( 0.0000,  0.0000,  0.0000)
  28 Ir     2.743466    1.607666   16.877053    ( 0.0000,  0.0000,  0.0000)
  29 Ir     5.556499    1.580448   16.884923    ( 0.0000,  0.0000,  0.0000)
  30 Ir     1.349427    4.004753   17.019267    ( 0.0000,  0.0000,  0.0000)
  31 Ir     4.187599    3.973368   16.963394    ( 0.0000,  0.0000,  0.0000)
  32 Pt     7.128889    4.050395   16.995690    ( 0.0000,  0.0000,  0.0000)
  33 Ag     2.781073    6.475410   16.857060    ( 0.0000,  0.0000,  0.0000)
  34 Ir     5.615114    6.554722   16.885881    ( 0.0000,  0.0000,  0.0000)
  35 Ru     8.411599    6.443212   16.874437    ( 0.0000,  0.0000,  0.0000)
  36 Ir     0.110057   -0.045800   19.163873    ( 0.0000,  0.0000,  0.0000)
  37 Ir     2.812581   -0.047752   18.986944    ( 0.0000,  0.0000,  0.0000)
  38 Pt     5.560273   -0.080212   19.124891    ( 0.0000,  0.0000,  0.0000)
  39 Ag     1.441556    2.435054   19.517401    ( 0.0000,  0.0000,  0.0000)
  40 Ir     4.229245    2.390315   19.014553    ( 0.0000,  0.0000,  0.0000)
  41 Pt     6.947480    2.308791   19.121956    ( 0.0000,  0.0000,  0.0000)
  42 Ir     2.910254    4.856216   19.055712    ( 0.0000,  0.0000,  0.0000)
  43 Ir     5.530510    4.890797   19.029100    ( 0.0000,  0.0000,  0.0000)
  44 Ag     8.395439    4.836512   19.563459    ( 0.0000,  0.0000,  0.0000)
  45 O     -0.223158   -0.050757   21.142441    ( 0.0000,  0.0000,  0.0000)
  46 H      0.527861    0.399594   21.596818    ( 0.0000,  0.0000,  0.0000)

Unit cell:
           periodic     x           y           z      points  spacing
  1. axis:    yes    8.445283    0.000000    0.000000    35     0.2090
  2. axis:    yes    4.222641    7.313829    0.000000    35     0.2090
  3. axis:    no     0.000000    0.000000   29.175054   135     0.2161

  Lengths:   8.445283   8.445283  29.175054
  Angles:   90.000000  90.000000  60.000000

Effective grid spacing dv^(1/3) = 0.2217

                     log10-error:    total        iterations:
           time      wfs    density  energy       fermi  poisson
iter:   1  03:11:32  -3.75   +inf  -268.900221    3             
iter:   2  03:12:36  -4.00  -3.05  -269.109142    3             
iter:   3  03:13:41  -4.20  -2.42  -268.946118    3             
iter:   4  03:14:46  -4.93  -2.76  -268.881130    3             
iter:   5  03:15:50  -6.04  -3.64  -268.880153    2             
iter:   6  03:16:55  -6.12  -3.74  -268.880146    2             
iter:   7  03:18:00  -6.35  -3.88  -268.879725    2             
iter:   8  03:19:04  -6.47  -3.80  -268.879677    2             
iter:   9  03:20:09  -6.32  -3.99  -268.881347    2             
iter:  10  03:21:11  -6.79  -3.77  -268.879680    2             
iter:  11  03:22:08  -7.23  -4.08  -268.879955    2             
iter:  12  03:23:12  -7.73  -4.31  -268.880038    2             

Converged after 12 iterations.

Dipole moment: (27.429912, 20.976261, 0.039034) |e|*Ang

Energy contributions relative to reference atoms: (reference = -16429291.423757)

Kinetic:       -150.826493
Potential:      +93.239433
External:        +0.000000
XC:            -203.902626
Entropy (-ST):   -2.095311
Local:           -6.342697
--------------------------
Free energy:   -269.927693
Extrapolated:  -268.880038

Fermi level: 1.37462

Showing only first 2 kpts
 Kpt  Band  Eigenvalues  Occupancy
  0   357      1.35361    0.13809
  0   358      1.39194    0.11420
  0   359      1.41404    0.10067
  0   360      1.45986    0.07473

  1   357      1.24105    0.19795
  1   358      1.27925    0.18046
  1   359      1.29655    0.17146
  1   360      1.33403    0.15003



Forces in eV/Ang:
  0 Ag   -0.41798    0.15807   -1.04960
  1 Ag    0.25061    0.22607   -0.86738
  2 Ir    0.49817   -0.17455    0.03719
  3 Ir   -0.09761    1.23825    1.38855
  4 Ir    0.40242    0.40026    0.87592
  5 Ir   -0.31941   -0.00916    1.23223
  6 Ir   -1.71502   -0.51320    0.73356
  7 Ag   -0.12431   -0.34175   -0.95325
  8 Pt    1.06597   -0.38166    0.49047
  9 Ag    0.14107    0.01486    0.21747
 10 Ir   -0.03324   -0.44880    1.01448
 11 Ir   -0.62388   -0.79394   -0.48647
 12 Ir    0.36580    0.13086    0.22535
 13 Ag   -0.01052   -0.04477    0.18536
 14 Ag    0.07485    0.05431    0.19695
 15 Pt   -0.11435   -0.03916   -0.58438
 16 Ru    0.63220    0.47275   -1.34088
 17 Ir    0.13459    0.26185   -1.24519
 18 Ir   -0.01151   -0.01067   -0.00952
 19 Pt   -0.00383    0.03509    0.00846
 20 Pt    0.00800    0.02435   -0.02505
 21 Ag   -0.00282   -0.00961    0.03225
 22 Ag   -0.01581   -0.00814    0.03890
 23 Ag   -0.01002   -0.01453   -0.00443
 24 Pt    0.00418    0.00145    0.01390
 25 Ag   -0.01156   -0.01506    0.01256
 26 Ir    0.01420   -0.02687    0.02040
 27 Ru    0.00605   -0.00764    0.01717
 28 Ir    0.01817    0.00033    0.00150
 29 Ir   -0.03540    0.04506    0.00066
 30 Ir    0.02731    0.00821   -0.00107
 31 Ir    0.01586   -0.00340   -0.08008
 32 Pt   -0.03596   -0.00970    0.00792
 33 Ag    0.00984   -0.03527    0.02561
 34 Ir   -0.01273   -0.02515    0.02353
 35 Ru   -0.01046   -0.00193    0.01486
 36 Ir    0.01079   -0.00971   -0.03022
 37 Ir    0.00668   -0.02091   -0.03039
 38 Pt   -0.00519   -0.01365    0.02429
 39 Ag   -0.01408   -0.00879   -0.02428
 40 Ir    0.01814   -0.02577    0.04588
 41 Pt   -0.02112   -0.00155   -0.00928
 42 Ir    0.01127    0.02436    0.01628
 43 Ir   -0.02707   -0.01876    0.00982
 44 Ag   -0.00568    0.00204   -0.01026
 45 O    -0.11494   -0.01138   -0.05501
 46 H     0.06580    0.01777    0.04776

System changes: positions 

Initializing position-dependent things.

Density initialized from wave functions
                                             
                                             
                                             
                                             
                                             
                                             
                                             
                               Ag            
         H        Ir    Ir                   
       O     Ag           Ir                 
                   AIr    Pt    Ru           
        Ir    IIr    Pt     Pt               
                                             
         Ru    Ir     Ir    Ag     Ir        
                 Ag    Ag     Ag             
                                             
            Ir    Pt     Pt    Ir            
                                             
             Ir    IAg    Ag    Pt           
        Ag     Ir    Ir                      
              Ir     Ir    Ir                
         Ag     Ag    Ir                     
                                             
                                             
                                             
                                             
                                             

Positions:
   0 Ag     0.000000    1.621936   10.000000    ( 0.0000,  0.0000,  0.0000)
   1 Ag     2.809275    1.621936   10.000000    ( 0.0000,  0.0000,  0.0000)
   2 Ir     5.618550    1.621936   10.000000    ( 0.0000,  0.0000,  0.0000)
   3 Ir     1.404638    4.054840   10.000000    ( 0.0000,  0.0000,  0.0000)
   4 Ir     4.213913    4.054840   10.000000    ( 0.0000,  0.0000,  0.0000)
   5 Ir     7.023188    4.054840   10.000000    ( 0.0000,  0.0000,  0.0000)
   6 Ir     2.809275    6.487743   10.000000    ( 0.0000,  0.0000,  0.0000)
   7 Ag     5.618550    6.487743   10.000000    ( 0.0000,  0.0000,  0.0000)
   8 Pt     8.427826    6.487743   10.000000    ( 0.0000,  0.0000,  0.0000)
   9 Ag     0.000000    0.000000   12.293764    ( 0.0000,  0.0000,  0.0000)
  10 Ir     2.809275    0.000000   12.293764    ( 0.0000,  0.0000,  0.0000)
  11 Ir     5.618550    0.000000   12.293764    ( 0.0000,  0.0000,  0.0000)
  12 Ir     1.404638    2.432904   12.293764    ( 0.0000,  0.0000,  0.0000)
  13 Ag     4.213913    2.432904   12.293764    ( 0.0000,  0.0000,  0.0000)
  14 Ag     7.023188    2.432904   12.293764    ( 0.0000,  0.0000,  0.0000)
  15 Pt     2.809275    4.865807   12.293764    ( 0.0000,  0.0000,  0.0000)
  16 Ru     5.618550    4.865807   12.293764    ( 0.0000,  0.0000,  0.0000)
  17 Ir     8.427826    4.865807   12.293764    ( 0.0000,  0.0000,  0.0000)
  18 Ir     1.452080    0.788920   14.603781    ( 0.0000,  0.0000,  0.0000)
  19 Pt     4.197981    0.720425   14.619856    ( 0.0000,  0.0000,  0.0000)
  20 Pt     7.040965    0.785018   14.656144    ( 0.0000,  0.0000,  0.0000)
  21 Ag     2.795316    3.261402   14.615652    ( 0.0000,  0.0000,  0.0000)
  22 Ag     5.620520    3.222261   14.633808    ( 0.0000,  0.0000,  0.0000)
  23 Ag     8.469549    3.225105   14.620285    ( 0.0000,  0.0000,  0.0000)
  24 Pt     4.237417    5.672668   14.612211    ( 0.0000,  0.0000,  0.0000)
  25 Ag     7.023263    5.615278   14.594593    ( 0.0000,  0.0000,  0.0000)
  26 Ir     9.817074    5.737179   14.541721    ( 0.0000,  0.0000,  0.0000)
  27 Ru     0.082871    1.590700   16.962156    ( 0.0000,  0.0000,  0.0000)
  28 Ir     2.744278    1.608050   16.877409    ( 0.0000,  0.0000,  0.0000)
  29 Ir     5.555287    1.581291   16.885629    ( 0.0000,  0.0000,  0.0000)
  30 Ir     1.350457    4.004778   17.019689    ( 0.0000,  0.0000,  0.0000)
  31 Ir     4.188152    3.973732   16.963687    ( 0.0000,  0.0000,  0.0000)
  32 Pt     7.128477    4.051108   16.996426    ( 0.0000,  0.0000,  0.0000)
  33 Ag     2.781150    6.474302   16.856352    ( 0.0000,  0.0000,  0.0000)
  34 Ir     5.615786    6.554650   16.886020    ( 0.0000,  0.0000,  0.0000)
  35 Ru     8.412801    6.442278   16.874867    ( 0.0000,  0.0000,  0.0000)
  36 Ir     0.110448   -0.044345   19.159575    ( 0.0000,  0.0000,  0.0000)
  37 Ir     2.813228   -0.047675   18.986420    ( 0.0000,  0.0000,  0.0000)
  38 Pt     5.560210   -0.080162   19.125837    ( 0.0000,  0.0000,  0.0000)
  39 Ag     1.441631    2.435460   19.517449    ( 0.0000,  0.0000,  0.0000)
  40 Ir     4.229694    2.390909   19.016093    ( 0.0000,  0.0000,  0.0000)
  41 Pt     6.947000    2.309142   19.121960    ( 0.0000,  0.0000,  0.0000)
  42 Ir     2.911433    4.857931   19.056064    ( 0.0000,  0.0000,  0.0000)
  43 Ir     5.530140    4.890977   19.029952    ( 0.0000,  0.0000,  0.0000)
  44 Ag     8.396070    4.836819   19.564566    ( 0.0000,  0.0000,  0.0000)
  45 O     -0.224835   -0.054341   21.137410    ( 0.0000,  0.0000,  0.0000)
  46 H      0.526725    0.398263   21.590263    ( 0.0000,  0.0000,  0.0000)

Unit cell:
           periodic     x           y           z      points  spacing
  1. axis:    yes    8.445283    0.000000    0.000000    35     0.2090
  2. axis:    yes    4.222641    7.313829    0.000000    35     0.2090
  3. axis:    no     0.000000    0.000000   29.175054   135     0.2161

  Lengths:   8.445283   8.445283  29.175054
  Angles:   90.000000  90.000000  60.000000

Effective grid spacing dv^(1/3) = 0.2217

                     log10-error:    total        iterations:
           time      wfs    density  energy       fermi  poisson
iter:   1  03:24:46  -4.54   +inf  -268.902121    2             
iter:   2  03:25:48  -3.57  -2.90  -270.221517    3             
iter:   3  03:26:50  -3.81  -2.08  -268.886270    2             
iter:   4  03:27:53  -5.15  -3.27  -268.880707    3             
iter:   5  03:28:57  -6.38  -4.12  -268.880310    2             
iter:   6  03:30:01  -6.92  -4.24  -268.880376    2             
iter:   7  03:31:05  -7.19  -4.29  -268.880305    2             
iter:   8  03:32:08  -7.31  -4.37  -268.880055    2             
iter:   9  03:33:12  -7.37  -4.36  -268.880777    2             
iter:  10  03:34:15  -7.44  -4.06  -268.880225    2             

Converged after 10 iterations.

Dipole moment: (27.554156, 21.123520, 0.039878) |e|*Ang

Energy contributions relative to reference atoms: (reference = -16429291.423757)

Kinetic:       -150.873414
Potential:      +93.265411
External:        +0.000000
XC:            -203.896151
Entropy (-ST):   -2.095246
Local:           -6.328449
--------------------------
Free energy:   -269.927848
Extrapolated:  -268.880225

Fermi level: 1.37461

Showing only first 2 kpts
 Kpt  Band  Eigenvalues  Occupancy
  0   357      1.35341    0.13820
  0   358      1.39197    0.11418
  0   359      1.41439    0.10046
  0   360      1.45991    0.07470

  1   357      1.24070    0.19808
  1   358      1.27915    0.18051
  1   359      1.29661    0.17142
  1   360      1.33382    0.15015



Forces in eV/Ang:
  0 Ag   -0.41855    0.15874   -1.04946
  1 Ag    0.25130    0.22627   -0.86649
  2 Ir    0.49758   -0.17428    0.03873
  3 Ir   -0.09748    1.23753    1.38619
  4 Ir    0.40238    0.39984    0.87637
  5 Ir   -0.31912   -0.00977    1.23121
  6 Ir   -1.71483   -0.51298    0.73195
  7 Ag   -0.12414   -0.34233   -0.95292
  8 Pt    1.06630   -0.38138    0.48852
  9 Ag    0.13840    0.01446    0.21642
 10 Ir   -0.02434   -0.44888    1.02391
 11 Ir   -0.62993   -0.79652   -0.47788
 12 Ir    0.37329    0.13269    0.22655
 13 Ag   -0.01018   -0.04264    0.19041
 14 Ag    0.06905    0.05864    0.19499
 15 Pt   -0.11168   -0.04389   -0.58075
 16 Ru    0.63380    0.46449   -1.33621
 17 Ir    0.13250    0.26811   -1.23909
 18 Ir   -0.00202   -0.01215    0.00117
 19 Pt   -0.00856   -0.00269   -0.00859
 20 Pt   -0.00337   -0.00420   -0.00186
 21 Ag   -0.00279   -0.00441    0.00834
 22 Ag   -0.00740    0.00113    0.00564
 23 Ag   -0.00913   -0.00356    0.00079
 24 Pt   -0.01063   -0.00265    0.01208
 25 Ag    0.00604   -0.00119   -0.00235
 26 Ir   -0.00117   -0.00384    0.00729
 27 Ru    0.00147   -0.00542   -0.00029
 28 Ir   -0.00333   -0.00999    0.00611
 29 Ir    0.00166   -0.00064    0.00479
 30 Ir    0.00403   -0.00155    0.01132
 31 Ir   -0.00003   -0.00372   -0.05845
 32 Pt   -0.00266   -0.02076    0.00757
 33 Ag   -0.00033    0.00281    0.01348
 34 Ir   -0.00032   -0.01663   -0.00616
 35 Ru   -0.01569    0.01276    0.00407
 36 Ir    0.00685    0.00691   -0.00491
 37 Ir    0.00110   -0.01657   -0.00583
 38 Pt    0.00375   -0.00188    0.00746
 39 Ag   -0.01273   -0.00897   -0.00470
 40 Ir   -0.01075   -0.02777    0.02309
 41 Pt    0.00637   -0.01292    0.00099
 42 Ir   -0.02343   -0.00990    0.00914
 43 Ir    0.00703   -0.00434    0.00915
 44 Ag   -0.00883   -0.00883   -0.01030
 45 O    -0.04982    0.04271   -0.00004
 46 H     0.03772   -0.00423   -0.00709

Timing:                                      incl.     excl.
-------------------------------------------------------------------
Density initialized from wave functions:    63.348    63.347   0.2% |
 Symmetrize density:                         0.001     0.001   0.0% |
Forces:                                    335.103   335.103   1.2% |
Hamiltonian:                                50.845     0.208   0.0% |
 Atomic:                                    10.808     5.251   0.0% |
  XC Correction:                             5.557     5.557   0.0% |
 Calculate atomic Hamiltonians:             23.892    23.892   0.1% |
 Communicate:                                0.142     0.142   0.0% |
 Initialize Hamiltonian:                     0.001     0.001   0.0% |
 Poisson:                                    0.140     0.140   0.0% |
 XC 3D grid:                                15.653    15.653   0.1% |
LCAO initialization:                        59.551     2.869   0.0% |
 LCAO eigensolver:                           6.679     0.004   0.0% |
  Calculate projections:                     0.078     0.078   0.0% |
  DenseAtomicCorrection:                     0.094     0.094   0.0% |
  Distribute overlap matrix:                 0.095     0.095   0.0% |
  Orbital Layouts:                           0.441     0.441   0.0% |
  Potential matrix:                          5.899     5.899   0.0% |
  Sum over cells:                            0.068     0.068   0.0% |
 LCAO to grid:                              48.265    48.265   0.2% |
 Set positions (LCAO WFS):                   1.738     0.683   0.0% |
  Basic WFS set positions:                   0.002     0.002   0.0% |
  Basis functions set positions:             0.000     0.000   0.0% |
  P tci:                                     0.474     0.474   0.0% |
  ST tci:                                    0.432     0.432   0.0% |
  mktci:                                     0.147     0.147   0.0% |
PWDescriptor:                                0.044     0.044   0.0% |
Redistribute:                                0.146     0.146   0.0% |
SCF-cycle:                               28227.561   300.050   1.0% |
 Davidson:                               25318.952  5810.718  20.1% |-------|
  Apply H:                                4278.565  4097.209  14.2% |-----|
   HMM T:                                  181.355   181.355   0.6% |
  Subspace diag:                          3711.366     0.164   0.0% |
   calc_h_matrix:                         2113.442   682.927   2.4% ||
    Apply H:                              1430.515  1369.731   4.7% |-|
     HMM T:                                 60.783    60.783   0.2% |
   diagonalize:                             69.174    69.174   0.2% |
   rotate_psi:                            1528.587  1528.587   5.3% |-|
  calc. matrices:                         7402.757  4546.835  15.7% |-----|
   Apply H:                               2855.922  2734.147   9.5% |---|
    HMM T:                                 121.775   121.775   0.4% |
  diagonalize:                            1049.309  1049.309   3.6% ||
  rotate_psi:                             3066.237  3066.237  10.6% |---|
 Density:                                 1394.734     0.030   0.0% |
  Atomic density matrices:                   8.415     8.415   0.0% |
  Mix:                                     606.096   606.096   2.1% ||
  Multipole moments:                         0.480     0.480   0.0% |
  Pseudo density:                          779.713   779.685   2.7% ||
   Symmetrize density:                       0.028     0.028   0.0% |
 Hamiltonian:                             1104.058     4.352   0.0% |
  Atomic:                                  246.768   128.384   0.4% |
   XC Correction:                          118.385   118.385   0.4% |
  Calculate atomic Hamiltonians:           506.034   506.034   1.8% ||
  Communicate:                               2.668     2.668   0.0% |
  Poisson:                                   2.885     2.885   0.0% |
  XC 3D grid:                              341.350   341.350   1.2% |
 Orthonormalize:                           109.767     0.011   0.0% |
  calc_s_matrix:                            15.424    15.424   0.1% |
  inverse-cholesky:                          1.706     1.706   0.0% |
  projections:                              58.019    58.019   0.2% |
  rotate_psi_s:                             34.607    34.607   0.1% |
Set symmetry:                                0.002     0.002   0.0% |
Other:                                     134.519   134.519   0.5% |
-------------------------------------------------------------------
Total:                                             28871.119 100.0%

Date: Fri Mar  4 03:34:33 2022
