
  ___ ___ ___ _ _ _  
 |   |   |_  | | | | 
 | | | | | . | | | | 
 |__ |  _|___|_____|  1.5.1
 |___|_|             

User:   clausen@node423.cluster
Date:   Thu Mar  3 14:18:48 2022
Arch:   x86_64
Pid:    34886
Python: 3.6.12
gpaw:   /software/kemi/gpaw/1.5.1/gpaw
_gpaw:  /software/kemi/gpaw/1.5.1/bin/gpaw-python
ase:    /software/kemi/ase/3.17.0/ase (version 3.17.0)
numpy:  /opt/rh/rh-python36/root/usr/lib64/python3.6/site-packages/numpy (version 1.13.1)
scipy:  /opt/rh/rh-python36/root/usr/lib64/python3.6/site-packages/scipy (version 0.19.1)
units:  Angstrom and eV
cores:  16

Input parameters:
  kpts: [4 4 1]
  mode: {ecut: 400.0,
         gammacentered: False,
         name: pw}
  xc: RPBE

System changes: positions, numbers, cell, pbc, initial_charges, initial_magmoms 

Initialize ...

Pd-setup:
  name: Palladium
  id: 6da19bfba079f22767af9506641940b9
  Z: 46
  valence: 16
  core: 30
  charge: 0.0
  file: /software/kemi/gpaw-setups/0.9.20000/Pd.RPBE.gz
  cutoffs: 1.19(comp), 2.38(filt), 2.28(core), lmax=2
  valence states:
                energy  radius
    5s(0.00)    -3.225   1.228
    4p(6.00)   -51.131   1.360
    5p(0.00)    -0.373   1.360
    4d(10.00)    -3.964   1.228
    *s          23.987   1.228
    *d          23.247   1.228

  Using partial waves for Pd as LCAO basis

Ir-setup:
  name: Iridium
  id: 73b603359d1d5397a85ae3c2440f9033
  Z: 77
  valence: 15
  core: 62
  charge: 0.0
  file: /software/kemi/gpaw-setups/0.9.20000/Ir.RPBE.gz
  cutoffs: 1.26(comp), 2.40(filt), 2.36(core), lmax=2
  valence states:
                energy  radius
    6s(2.00)    -6.219   1.296
    5p(6.00)   -54.684   1.328
    6p(0.00)    -1.215   1.328
    5d(7.00)    -7.118   1.286
    *s          20.992   1.296
    *d          20.093   1.286

  Using partial waves for Ir as LCAO basis

Ru-setup:
  name: Ruthenium
  id: 76477906e28f51dc1b29884d53556fe9
  Z: 44
  valence: 16
  core: 28
  charge: 0.0
  file: /software/kemi/gpaw-setups/0.9.20000/Ru.RPBE.gz
  cutoffs: 1.23(comp), 2.16(filt), 1.30(core), lmax=2
  valence states:
                energy  radius
    4s(2.00)   -76.255   1.281
    5s(1.00)    -4.126   1.281
    4p(6.00)   -46.371   1.286
    5p(0.00)    -0.913   1.286
    4d(7.00)    -5.146   1.254
    *d          22.066   1.254

  Using partial waves for Ru as LCAO basis

Pt-setup:
  name: Platinum
  id: f04f522592575c47ad794f6b4a415b4b
  Z: 78
  valence: 16
  core: 62
  charge: 0.0
  file: /software/kemi/gpaw-setups/0.9.20000/Pt.RPBE.gz
  cutoffs: 1.29(comp), 2.26(filt), 2.26(core), lmax=2
  valence states:
                energy  radius
    6s(1.00)    -5.516   1.307
    5p(6.00)   -55.971   1.371
    6p(0.00)    -0.856   1.371
    5d(9.00)    -6.087   1.307
    *s          21.695   1.307
    *d          21.125   1.307

  Using partial waves for Pt as LCAO basis

Ag-setup:
  name: Silver
  id: c05e55bab2c3858b3f9398f6d75cb77c
  Z: 47
  valence: 17
  core: 30
  charge: 0.0
  file: /software/kemi/gpaw-setups/0.9.20000/Ag.RPBE.gz
  cutoffs: 1.25(comp), 2.35(filt), 2.19(core), lmax=2
  valence states:
                energy  radius
    5s(1.00)    -4.277   1.286
    4p(6.00)   -58.523   1.328
    5p(0.00)    -0.755   1.328
    4d(10.00)    -7.386   1.180
    *s          22.934   1.286
    *d          19.826   1.180

  Using partial waves for Ag as LCAO basis

O-setup:
  name: Oxygen
  id: 08071ca1eed670e7821b24b7eb4d558c
  Z: 8
  valence: 6
  core: 2
  charge: 0.0
  file: /software/kemi/gpaw-setups/0.9.20000/O.RPBE.gz
  cutoffs: 0.67(comp), 1.17(filt), 0.83(core), lmax=2
  valence states:
                energy  radius
    2s(2.00)   -24.041   0.688
    2p(4.00)    -8.984   0.598
    *s           3.170   0.688
    *p          18.228   0.598
    *d           0.000   0.619

  Using partial waves for O as LCAO basis

H-setup:
  name: Hydrogen
  id: ea3f9156a1dc40d47a60fdce8f8bd75d
  Z: 1
  valence: 1
  core: 0
  charge: 0.0
  file: /software/kemi/gpaw-setups/0.9.20000/H.RPBE.gz
  cutoffs: 0.48(comp), 0.85(filt), 0.53(core), lmax=2
  valence states:
                energy  radius
    1s(1.00)    -6.572   0.476
    *s          20.639   0.476
    *p           0.000   0.476

  Using partial waves for H as LCAO basis

Reference energy: -12877860.274276

Spin-paired calculation

Occupation numbers:
  Fermi-Dirac: width=0.1000 eV

Convergence criteria:
  Maximum total energy change: 0.0005 eV / electron
  Maximum integral of absolute density change: 0.0001 electrons
  Maximum integral of absolute eigenstate change: 4e-08 eV^2
  Maximum number of iterations: 333

Symmetries present (total): 1

  ( 1  0  0)
  ( 0  1  0)
  ( 0  0  1)

16 k-points: 4 x 4 x 1 Monkhorst-Pack grid
8 k-points in the irreducible part of the Brillouin zone
       k-points in crystal coordinates                weights
   0:     0.12500000   -0.37500000    0.00000000          2/16
   1:     0.12500000   -0.12500000    0.00000000          2/16
   2:     0.12500000    0.12500000    0.00000000          2/16
   3:     0.12500000    0.37500000    0.00000000          2/16
   4:     0.37500000   -0.37500000    0.00000000          2/16
   5:     0.37500000   -0.12500000    0.00000000          2/16
   6:     0.37500000    0.12500000    0.00000000          2/16
   7:     0.37500000    0.37500000    0.00000000          2/16

Wave functions: Plane wave expansion
  Cutoff energy: 400.000 eV
  Number of coefficients (min, max): 32894, 32940
  Pulay-stress correction: 0.000000 eV/Ang^3 (de/decut=0.000000)
  Using FFTW library
  ScaLapack parameters: grid=1x1, blocksize=None
  Wavefunction extrapolation:
    Improved wavefunction reuse through dual PAW basis 

Eigensolver
   Davidson(niter=2, smin=None, normalize=True) 

Densities:
  Coarse grid: 35*35*135 grid
  Fine grid: 70*70*270 grid
  Total Charge: 0.000000 

Density mixing:
  Method: separate
  Backend: pulay
  Linear mixing parameter: 0.05
  Mixing with 5 old densities
  Damping of long wave oscillations: 50 

Hamiltonian:
  XC and Coulomb potentials evaluated on a 70*70*270 grid
  Using the RPBE Exchange-Correlation functional
 

XC parameters: RPBE with 2 nearest neighbor stencil

Memory estimate:
  Process memory now: 155.36 MiB
  Calculator: 554.76 MiB
    Density: 54.46 MiB
      Arrays: 16.41 MiB
      Localized functions: 31.69 MiB
      Mixer: 6.36 MiB
    Hamiltonian: 11.75 MiB
      Arrays: 10.73 MiB
      XC: 0.00 MiB
      Poisson: 0.00 MiB
      vbar: 1.03 MiB
    Wavefunctions: 488.54 MiB
      Arrays psit_nG: 220.65 MiB
      Eigensolver: 252.59 MiB
      Projections: 2.77 MiB
      Projectors: 5.91 MiB
      PW-descriptor: 6.62 MiB

Total number of cores used: 16
Parallelization over k-points: 8
Domain decomposition: 1 x 1 x 2

Number of atoms: 47
Number of atomic orbitals: 551
Number of bands in calculation: 439
Bands to converge: occupied states only
Number of valence electrons: 724

... initialized

Initializing position-dependent things.

Density initialized from atomic densities
Creating initial wave functions:
  439 bands from LCAO basis set

                                             
                                             
                                             
                                             
                           H                 
                         O                   
                                             
                                             
                  Ag     Ir    Ir            
            Pd      Pd                       
                   Ru     PIr    Ir          
        Ir    Pt    PAg                      
                           Pd                
        Ir     Pd    IAg    Ir     Pt        
                                             
                Ag     Ru     Pd             
           Pt     Ag    PPd    Ir            
                                             
            Pt     Pt    PPt    Ru           
       Ag     Ag     Ag                      
              Ru    Ir     Pt                
         Pd    Ir     Ru                     
                                             
                                             
                                             
                                             
                                             

Positions:
   0 Pd     0.000000    1.624086   10.000000    ( 0.0000,  0.0000,  0.0000)
   1 Ir     2.812999    1.624086   10.000000    ( 0.0000,  0.0000,  0.0000)
   2 Ru     5.625998    1.624086   10.000000    ( 0.0000,  0.0000,  0.0000)
   3 Ru     1.406500    4.060215   10.000000    ( 0.0000,  0.0000,  0.0000)
   4 Ir     4.219499    4.060215   10.000000    ( 0.0000,  0.0000,  0.0000)
   5 Pt     7.032498    4.060215   10.000000    ( 0.0000,  0.0000,  0.0000)
   6 Pd     2.812999    6.496343   10.000000    ( 0.0000,  0.0000,  0.0000)
   7 Pd     5.625998    6.496343   10.000000    ( 0.0000,  0.0000,  0.0000)
   8 Ru     8.438997    6.496343   10.000000    ( 0.0000,  0.0000,  0.0000)
   9 Ag     0.000000    0.000000   12.296804    ( 0.0000,  0.0000,  0.0000)
  10 Ag     2.812999    0.000000   12.296804    ( 0.0000,  0.0000,  0.0000)
  11 Ag     5.625998    0.000000   12.296804    ( 0.0000,  0.0000,  0.0000)
  12 Pt     1.406500    2.436129   12.296804    ( 0.0000,  0.0000,  0.0000)
  13 Pt     4.219499    2.436129   12.296804    ( 0.0000,  0.0000,  0.0000)
  14 Pt     7.032498    2.436129   12.296804    ( 0.0000,  0.0000,  0.0000)
  15 Ru     2.812999    4.872257   12.296804    ( 0.0000,  0.0000,  0.0000)
  16 Pt     5.625998    4.872257   12.296804    ( 0.0000,  0.0000,  0.0000)
  17 Ir     8.438997    4.872257   12.296804    ( 0.0000,  0.0000,  0.0000)
  18 Pt     1.331112    0.739375   14.657283    ( 0.0000,  0.0000,  0.0000)
  19 Ag     4.181622    0.793852   14.645499    ( 0.0000,  0.0000,  0.0000)
  20 Pd     7.001587    0.862206   14.620346    ( 0.0000,  0.0000,  0.0000)
  21 Ag     2.800841    3.198617   14.645984    ( 0.0000,  0.0000,  0.0000)
  22 Ru     5.661352    3.374873   14.464570    ( 0.0000,  0.0000,  0.0000)
  23 Pd     8.454364    3.209063   14.568969    ( 0.0000,  0.0000,  0.0000)
  24 Ir     4.203312    5.613553   14.568997    ( 0.0000,  0.0000,  0.0000)
  25 Ir     7.031881    5.578044   14.561300    ( 0.0000,  0.0000,  0.0000)
  26 Pt     9.857688    5.665883   14.596939    ( 0.0000,  0.0000,  0.0000)
  27 Ir    -0.077764    1.506761   16.938800    ( 0.0000,  0.0000,  0.0000)
  28 Pd     2.746751    1.593087   16.991368    ( 0.0000,  0.0000,  0.0000)
  29 Ag     5.532334    1.594992   16.918159    ( 0.0000,  0.0000,  0.0000)
  30 Pd     1.401555    4.031321   16.973309    ( 0.0000,  0.0000,  0.0000)
  31 Pd     4.186062    4.107308   16.892321    ( 0.0000,  0.0000,  0.0000)
  32 Pd     7.007491    3.969527   16.736476    ( 0.0000,  0.0000,  0.0000)
  33 Ru     2.845276    6.541012   16.753610    ( 0.0000,  0.0000,  0.0000)
  34 Pd     5.662228    6.450069   16.794393    ( 0.0000,  0.0000,  0.0000)
  35 Ir     8.552515    6.378355   16.920371    ( 0.0000,  0.0000,  0.0000)
  36 Ir     0.061963   -0.029589   18.981657    ( 0.0000,  0.0000,  0.0000)
  37 Pt     2.802470   -0.097062   19.141410    ( 0.0000,  0.0000,  0.0000)
  38 Ag     5.661265    0.013033   19.406409    ( 0.0000,  0.0000,  0.0000)
  39 Pd     1.350042    2.376862   19.278970    ( 0.0000,  0.0000,  0.0000)
  40 Pd     4.315258    2.518491   19.256067    ( 0.0000,  0.0000,  0.0000)
  41 Ir     7.173708    2.513849   19.018418    ( 0.0000,  0.0000,  0.0000)
  42 Ag     2.809713    4.893314   19.379442    ( 0.0000,  0.0000,  0.0000)
  43 Ir     5.700233    4.913916   19.039342    ( 0.0000,  0.0000,  0.0000)
  44 Ir     8.278779    4.849064   19.000358    ( 0.0000,  0.0000,  0.0000)
  45 O      5.700233    4.913916   21.406409    ( 0.0000,  0.0000,  0.0000)
  46 H      6.350233    5.563916   21.806409    ( 0.0000,  0.0000,  0.0000)

Unit cell:
           periodic     x           y           z      points  spacing
  1. axis:    yes    8.465341    0.000000    0.000000    35     0.2095
  2. axis:    yes    4.232670    7.331200    0.000000    35     0.2095
  3. axis:    no     0.000000    0.000000   29.187217   135     0.2162

  Lengths:   8.465341   8.465341  29.187217
  Angles:   90.000000  90.000000  60.000000

Effective grid spacing dv^(1/3) = 0.2221

                     log10-error:    total        iterations:
           time      wfs    density  energy       fermi  poisson
iter:   1  14:21:22  +0.34   +inf  -325.315510    2             
iter:   2  14:22:34  -0.56  -1.16  -404.359567    30            
iter:   3  14:23:45  -0.63  -1.08  -353.662812    3             
iter:   4  14:24:59  -1.30  -1.14  -270.980362    37            
iter:   5  14:26:13  -1.73  -1.35  -250.827165    37            
iter:   6  14:27:27  -1.91  -1.44  -246.673923    36            
iter:   7  14:28:40  -2.21  -1.49  -243.874756    3             
iter:   8  14:29:54  -2.28  -1.55  -240.637761    3             
iter:   9  14:31:08  -1.99  -1.69  -244.250437    3             
iter:  10  14:32:22  -2.66  -1.66  -239.313020    3             
iter:  11  14:33:35  -2.66  -1.90  -239.340172    3             
iter:  12  14:34:49  -2.91  -2.00  -239.142333    3             
iter:  13  14:36:04  -3.15  -2.10  -239.274520    3             
iter:  14  14:37:18  -3.52  -2.12  -239.036647    3             
iter:  15  14:38:30  -3.11  -2.21  -238.794764    3             
iter:  16  14:39:42  -3.43  -2.39  -239.010737    3             
iter:  17  14:40:55  -3.10  -2.29  -238.631999    3             
iter:  18  14:42:09  -3.97  -2.72  -238.629708    3             
iter:  19  14:43:24  -4.23  -2.78  -238.607508    2             
iter:  20  14:44:38  -4.61  -2.86  -238.625470    2             
iter:  21  14:45:54  -4.36  -2.77  -238.594691    3             
iter:  22  14:47:08  -4.81  -3.01  -238.598543    3             
iter:  23  14:48:21  -4.47  -3.05  -238.592565    2             
iter:  24  14:49:37  -5.35  -3.15  -238.593841    2             
iter:  25  14:50:52  -5.49  -3.24  -238.592606    2             
iter:  26  14:52:10  -5.59  -3.23  -238.592631    2             
iter:  27  14:53:25  -5.53  -3.29  -238.594757    2             
iter:  28  14:54:39  -5.56  -3.20  -238.591765    2             
iter:  29  14:55:53  -5.99  -3.51  -238.590945    2             
iter:  30  14:57:07  -5.64  -3.55  -238.594424    2             
iter:  31  14:58:23  -6.15  -3.54  -238.590956    2             
iter:  32  14:59:38  -6.12  -3.69  -238.591588    2             
iter:  33  15:00:52  -6.67  -3.65  -238.590919    2             
iter:  34  15:02:10  -6.69  -3.83  -238.590999    2             
iter:  35  15:03:28  -6.61  -3.85  -238.590687    2             
iter:  36  15:04:48  -6.47  -3.89  -238.591218    2             
iter:  37  15:06:00  -6.69  -3.91  -238.590089    2             
iter:  38  15:07:09  -6.85  -3.81  -238.590501    2             
iter:  39  15:08:23  -7.13  -3.97  -238.590432    2             
iter:  40  15:09:37  -7.43  -4.04  -238.590530    2             

Converged after 40 iterations.

Dipole moment: (24.269601, 16.254888, -0.220283) |e|*Ang

Energy contributions relative to reference atoms: (reference = -12877860.274276)

Kinetic:       -228.819443
Potential:     +103.317273
External:        +0.000000
XC:            -104.972260
Entropy (-ST):   -2.247690
Local:           -6.992256
--------------------------
Free energy:   -239.714375
Extrapolated:  -238.590530

Fermi level: 0.95708

Showing only first 2 kpts
 Kpt  Band  Eigenvalues  Occupancy
  0   360      0.95005    0.12939
  0   361      0.97021    0.11681
  0   362      1.00111    0.09792
  0   363      1.03988    0.07602

  1   360      0.86694    0.17781
  1   361      0.89354    0.16343
  1   362      0.92898    0.14245
  1   363      0.94242    0.13415



Forces in eV/Ang:
  0 Pd   -0.12093    0.33974   -0.33974
  1 Ir    0.96520    0.70216    0.61969
  2 Ru   -1.09424    0.29591    0.69166
  3 Ru    0.42310    0.27380    1.62104
  4 Ir   -0.56667   -0.81371    1.18726
  5 Pt    0.15111    0.15882    0.07494
  6 Pd   -0.50594   -0.42555   -0.23096
  7 Pd    0.39393   -0.27364   -0.56436
  8 Ru    0.34335   -0.14639    0.55666
  9 Ag   -0.24478   -0.10156    0.06174
 10 Ag   -0.02026   -0.11475    0.05355
 11 Ag    0.07944   -0.16919   -0.14275
 12 Pt    0.09306    0.79692   -0.58273
 13 Pt    0.12563    0.57949   -0.73275
 14 Pt   -0.11321    0.21437   -0.18521
 15 Ru   -0.37684   -0.74146   -0.95858
 16 Pt   -0.41474    0.17467   -0.12059
 17 Ir    0.90623   -0.11626   -1.05415
 18 Pt   -0.02079    0.03767   -0.03567
 19 Ag   -0.00584   -0.05048    0.02639
 20 Pd   -0.01347   -0.04318    0.02636
 21 Ag   -0.01344   -0.00992   -0.02295
 22 Ru    0.02262   -0.03281    0.02023
 23 Pd   -0.04672   -0.06160    0.04252
 24 Ir    0.01054   -0.00498    0.03046
 25 Ir   -0.01200   -0.01063    0.07182
 26 Pt   -0.00047   -0.01917    0.01006
 27 Ir    0.01499   -0.07400    0.02808
 28 Pd    0.00812   -0.00862   -0.05862
 29 Ag   -0.03286   -0.00107   -0.00951
 30 Pd    0.00859   -0.02337   -0.03755
 31 Pd    0.05755   -0.02570   -0.03433
 32 Pd   -0.10504    0.06872    0.14885
 33 Ru   -0.02258   -0.05442    0.00758
 34 Pd   -0.00101   -0.04849    0.02610
 35 Ir   -0.03241   -0.06402    0.01966
 36 Ir   -0.03590    0.17789   -0.15506
 37 Pt    0.16693    0.12191   -0.16463
 38 Ag    0.02053   -0.00749    0.00210
 39 Pd   -0.01142   -0.03954    0.01719
 40 Pd   -0.07404   -0.11405   -0.07730
 41 Ir    0.08499   -0.12349   -0.07473
 42 Ag   -0.10982   -0.02351   -0.02590
 43 Ir    0.11963    0.01520    2.44905
 44 Ir    0.27498    0.01186   -0.08866
 45 O    -0.05941   -0.03665   -1.49716
 46 H    -0.29096   -0.28516   -0.64882

System changes: positions 

Initializing position-dependent things.

Density initialized from wave functions
                                             
                                             
                                             
                                             
                           H                 
                         O                   
                                             
                                             
                 Ag      Ir    Ir            
            Pd      Pd                       
                   Ru     PIr    Ir          
        Ir    Pt    PAg    Pd                
                                             
        Ir     Pd    IAg    Ir     Pt        
                                             
                Ag     Ru     Pd             
           Pt     Ag    PPd    Ir            
                                             
            Pt     Pt    PPt    Ru           
       Ag     Ag     Ag                      
              Ru    Ir     Pt                
         Pd    Ir     Ru                     
                                             
                                             
                                             
                                             
                                             

Positions:
   0 Pd     0.000000    1.624086   10.000000    ( 0.0000,  0.0000,  0.0000)
   1 Ir     2.812999    1.624086   10.000000    ( 0.0000,  0.0000,  0.0000)
   2 Ru     5.625998    1.624086   10.000000    ( 0.0000,  0.0000,  0.0000)
   3 Ru     1.406500    4.060215   10.000000    ( 0.0000,  0.0000,  0.0000)
   4 Ir     4.219499    4.060215   10.000000    ( 0.0000,  0.0000,  0.0000)
   5 Pt     7.032498    4.060215   10.000000    ( 0.0000,  0.0000,  0.0000)
   6 Pd     2.812999    6.496343   10.000000    ( 0.0000,  0.0000,  0.0000)
   7 Pd     5.625998    6.496343   10.000000    ( 0.0000,  0.0000,  0.0000)
   8 Ru     8.438997    6.496343   10.000000    ( 0.0000,  0.0000,  0.0000)
   9 Ag     0.000000    0.000000   12.296804    ( 0.0000,  0.0000,  0.0000)
  10 Ag     2.812999    0.000000   12.296804    ( 0.0000,  0.0000,  0.0000)
  11 Ag     5.625998    0.000000   12.296804    ( 0.0000,  0.0000,  0.0000)
  12 Pt     1.406500    2.436129   12.296804    ( 0.0000,  0.0000,  0.0000)
  13 Pt     4.219499    2.436129   12.296804    ( 0.0000,  0.0000,  0.0000)
  14 Pt     7.032498    2.436129   12.296804    ( 0.0000,  0.0000,  0.0000)
  15 Ru     2.812999    4.872257   12.296804    ( 0.0000,  0.0000,  0.0000)
  16 Pt     5.625998    4.872257   12.296804    ( 0.0000,  0.0000,  0.0000)
  17 Ir     8.438997    4.872257   12.296804    ( 0.0000,  0.0000,  0.0000)
  18 Pt     1.329416    0.742447   14.654374    ( 0.0000,  0.0000,  0.0000)
  19 Ag     4.181146    0.789734   14.647652    ( 0.0000,  0.0000,  0.0000)
  20 Pd     7.000489    0.858684   14.622496    ( 0.0000,  0.0000,  0.0000)
  21 Ag     2.799744    3.197809   14.644112    ( 0.0000,  0.0000,  0.0000)
  22 Ru     5.663197    3.372197   14.466220    ( 0.0000,  0.0000,  0.0000)
  23 Pd     8.450553    3.204038   14.572437    ( 0.0000,  0.0000,  0.0000)
  24 Ir     4.204172    5.613146   14.571481    ( 0.0000,  0.0000,  0.0000)
  25 Ir     7.030902    5.577177   14.567158    ( 0.0000,  0.0000,  0.0000)
  26 Pt     9.857650    5.664319   14.597760    ( 0.0000,  0.0000,  0.0000)
  27 Ir    -0.076541    1.500726   16.941091    ( 0.0000,  0.0000,  0.0000)
  28 Pd     2.747413    1.592384   16.986586    ( 0.0000,  0.0000,  0.0000)
  29 Ag     5.529654    1.594904   16.917384    ( 0.0000,  0.0000,  0.0000)
  30 Pd     1.402256    4.029414   16.970247    ( 0.0000,  0.0000,  0.0000)
  31 Pd     4.190757    4.105212   16.889520    ( 0.0000,  0.0000,  0.0000)
  32 Pd     6.998923    3.975132   16.748617    ( 0.0000,  0.0000,  0.0000)
  33 Ru     2.843434    6.536574   16.754229    ( 0.0000,  0.0000,  0.0000)
  34 Pd     5.662146    6.446114   16.796522    ( 0.0000,  0.0000,  0.0000)
  35 Ir     8.549871    6.373134   16.921974    ( 0.0000,  0.0000,  0.0000)
  36 Ir     0.059035   -0.015079   18.969010    ( 0.0000,  0.0000,  0.0000)
  37 Pt     2.816086   -0.087118   19.127982    ( 0.0000,  0.0000,  0.0000)
  38 Ag     5.662940    0.012422   19.406581    ( 0.0000,  0.0000,  0.0000)
  39 Pd     1.349111    2.373637   19.280372    ( 0.0000,  0.0000,  0.0000)
  40 Pd     4.309219    2.509189   19.249762    ( 0.0000,  0.0000,  0.0000)
  41 Ir     7.180640    2.503776   19.012323    ( 0.0000,  0.0000,  0.0000)
  42 Ag     2.800755    4.891397   19.377330    ( 0.0000,  0.0000,  0.0000)
  43 Ir     5.709991    4.915156   19.239100    ( 0.0000,  0.0000,  0.0000)
  44 Ir     8.301209    4.850031   18.993127    ( 0.0000,  0.0000,  0.0000)
  45 O      5.695387    4.910927   21.284293    ( 0.0000,  0.0000,  0.0000)
  46 H      6.326501    5.540657   21.753489    ( 0.0000,  0.0000,  0.0000)

Unit cell:
           periodic     x           y           z      points  spacing
  1. axis:    yes    8.465341    0.000000    0.000000    35     0.2095
  2. axis:    yes    4.232670    7.331200    0.000000    35     0.2095
  3. axis:    no     0.000000    0.000000   29.187217   135     0.2162

  Lengths:   8.465341   8.465341  29.187217
  Angles:   90.000000  90.000000  60.000000

Effective grid spacing dv^(1/3) = 0.2221

                     log10-error:    total        iterations:
           time      wfs    density  energy       fermi  poisson
iter:   1  15:11:25  -1.85   +inf  -241.414669    3             
iter:   2  15:12:40  -2.19  -2.14  -243.503579    34            
iter:   3  15:13:57  -2.12  -1.94  -254.308154    35            
iter:   4  15:15:12  -2.45  -1.57  -242.587551    3             
iter:   5  15:16:28  -3.03  -1.89  -239.414011    3             
iter:   6  15:17:44  -3.93  -2.56  -239.282101    3             
iter:   7  15:18:59  -4.00  -2.77  -239.227027    3             
iter:   8  15:20:13  -3.75  -2.85  -239.248233    3             
iter:   9  15:21:28  -4.02  -2.64  -239.163262    3             
iter:  10  15:22:43  -3.92  -3.00  -239.172393    3             
iter:  11  15:23:59  -4.57  -2.99  -239.154833    3             
iter:  12  15:25:14  -4.98  -3.10  -239.152364    2             
iter:  13  15:26:29  -5.51  -3.13  -239.147713    2             
iter:  14  15:27:45  -5.40  -3.42  -239.150138    2             
iter:  15  15:29:01  -5.31  -3.30  -239.147635    2             
iter:  16  15:30:16  -5.61  -3.26  -239.146897    2             
iter:  17  15:31:30  -5.79  -3.50  -239.145071    2             
iter:  18  15:32:46  -5.88  -3.55  -239.145925    2             
iter:  19  15:34:01  -5.99  -3.56  -239.145972    2             
iter:  20  15:35:16  -6.26  -3.86  -239.146879    2             
iter:  21  15:36:32  -6.54  -3.71  -239.145384    2             
iter:  22  15:37:47  -6.48  -3.80  -239.146554    2             
iter:  23  15:39:03  -6.86  -3.96  -239.145661    2             
iter:  24  15:40:18  -7.00  -4.05  -239.145891    2             
iter:  25  15:41:32  -7.16  -4.21  -239.145854    2             
iter:  26  15:42:46  -7.00  -4.14  -239.145634    2             
iter:  27  15:44:00  -6.49  -4.36  -239.145376    2             
iter:  28  15:45:13  -6.88  -3.72  -239.145817    2             
iter:  29  15:46:26  -7.40  -4.34  -239.145362    2             

Converged after 29 iterations.

Dipole moment: (24.344194, 15.015683, -0.003162) |e|*Ang

Energy contributions relative to reference atoms: (reference = -12877860.274276)

Kinetic:       -230.250517
Potential:     +104.539195
External:        +0.000000
XC:            -105.408361
Entropy (-ST):   -2.246388
Local:           -6.902484
--------------------------
Free energy:   -240.268556
Extrapolated:  -239.145362

Fermi level: 1.05531

Showing only first 2 kpts
 Kpt  Band  Eigenvalues  Occupancy
  0   360      1.05163    0.12730
  0   361      1.07189    0.11466
  0   362      1.10382    0.09526
  0   363      1.13488    0.07774

  1   360      0.96274    0.17905
  1   361      0.99041    0.16419
  1   362      1.01289    0.15112
  1   363      1.03702    0.13640



Forces in eV/Ang:
  0 Pd   -0.12308    0.32166   -0.36230
  1 Ir    0.95079    0.69164    0.60403
  2 Ru   -1.08013    0.28305    0.68070
  3 Ru    0.42099    0.27101    1.61806
  4 Ir   -0.57072   -0.79724    1.16566
  5 Pt    0.15510    0.15941    0.05232
  6 Pd   -0.49822   -0.41310   -0.24646
  7 Pd    0.38389   -0.26272   -0.57885
  8 Ru    0.34272   -0.14529    0.55109
  9 Ag   -0.25318   -0.10457    0.05244
 10 Ag   -0.01770   -0.12055    0.06050
 11 Ag    0.08186   -0.16810   -0.13574
 12 Pt    0.08303    0.78124   -0.57266
 13 Pt    0.12730    0.55822   -0.71521
 14 Pt   -0.11277    0.19181   -0.17798
 15 Ru   -0.37414   -0.72854   -0.95938
 16 Pt   -0.41169    0.17822   -0.11383
 17 Ir    0.90571   -0.11045   -1.03785
 18 Pt   -0.00161    0.02888   -0.03242
 19 Ag   -0.01119   -0.02877    0.00139
 20 Pd   -0.01681   -0.02340    0.00325
 21 Ag   -0.00601   -0.01757   -0.01768
 22 Ru    0.01183   -0.01904    0.06584
 23 Pd   -0.01999   -0.02764    0.04841
 24 Ir    0.01637   -0.00464    0.07062
 25 Ir   -0.00580   -0.01352    0.05020
 26 Pt   -0.01620   -0.03455   -0.02316
 27 Ir    0.05358    0.03919   -0.25128
 28 Pd   -0.01118    0.03131   -0.07292
 29 Ag   -0.02005   -0.00426   -0.02745
 30 Pd    0.01947   -0.06084   -0.07494
 31 Pd    0.09969    0.00923    0.17167
 32 Pd   -0.11091    0.11712    0.20788
 33 Ru    0.01751   -0.07443   -0.00605
 34 Pd   -0.01278   -0.19046    0.24295
 35 Ir   -0.01426   -0.01360   -0.04135
 36 Ir   -0.05463   -0.03012    0.17478
 37 Pt    0.10093    0.05955   -0.11654
 38 Ag    0.04078    0.00299   -0.00591
 39 Pd    0.08848    0.01864   -0.02400
 40 Pd   -0.05818   -0.03743   -0.07378
 41 Ir    0.01476   -0.09504    0.08752
 42 Ag   -0.06707   -0.02351   -0.07161
 43 Ir    0.34311    0.13803    0.87972
 44 Ir   -0.00503   -0.04807    0.00369
 45 O    -0.12152   -0.04499   -0.18709
 46 H    -0.37404   -0.37136   -0.82284

System changes: positions 

Initializing position-dependent things.

Density initialized from wave functions
                                             
                                             
                                             
                                             
                          H                  
                         O                   
                                             
                         Ir                  
                 Ag            Ir            
            Pd      Pd                       
                   Ru    PdIr   Ir           
        Ir    Pt    PAg    Pd                
                                             
        Ir     Pd    IAg    Ir     Pt        
                Ag                           
                       Ru     Pd             
           Pt     Ag    PPd    Ir            
                                             
            Pt     Pt    PPt    Ru           
       Ag     Ag     Ag                      
              Ru    Ir     Pt                
        Pd     Ir     Ru                     
                                             
                                             
                                             
                                             
                                             

Positions:
   0 Pd     0.000000    1.624086   10.000000    ( 0.0000,  0.0000,  0.0000)
   1 Ir     2.812999    1.624086   10.000000    ( 0.0000,  0.0000,  0.0000)
   2 Ru     5.625998    1.624086   10.000000    ( 0.0000,  0.0000,  0.0000)
   3 Ru     1.406500    4.060215   10.000000    ( 0.0000,  0.0000,  0.0000)
   4 Ir     4.219499    4.060215   10.000000    ( 0.0000,  0.0000,  0.0000)
   5 Pt     7.032498    4.060215   10.000000    ( 0.0000,  0.0000,  0.0000)
   6 Pd     2.812999    6.496343   10.000000    ( 0.0000,  0.0000,  0.0000)
   7 Pd     5.625998    6.496343   10.000000    ( 0.0000,  0.0000,  0.0000)
   8 Ru     8.438997    6.496343   10.000000    ( 0.0000,  0.0000,  0.0000)
   9 Ag     0.000000    0.000000   12.296804    ( 0.0000,  0.0000,  0.0000)
  10 Ag     2.812999    0.000000   12.296804    ( 0.0000,  0.0000,  0.0000)
  11 Ag     5.625998    0.000000   12.296804    ( 0.0000,  0.0000,  0.0000)
  12 Pt     1.406500    2.436129   12.296804    ( 0.0000,  0.0000,  0.0000)
  13 Pt     4.219499    2.436129   12.296804    ( 0.0000,  0.0000,  0.0000)
  14 Pt     7.032498    2.436129   12.296804    ( 0.0000,  0.0000,  0.0000)
  15 Ru     2.812999    4.872257   12.296804    ( 0.0000,  0.0000,  0.0000)
  16 Pt     5.625998    4.872257   12.296804    ( 0.0000,  0.0000,  0.0000)
  17 Ir     8.438997    4.872257   12.296804    ( 0.0000,  0.0000,  0.0000)
  18 Pt     1.328756    0.747731   14.648571    ( 0.0000,  0.0000,  0.0000)
  19 Ag     4.179271    0.784217   14.648386    ( 0.0000,  0.0000,  0.0000)
  20 Pd     6.997578    0.854155   14.623524    ( 0.0000,  0.0000,  0.0000)
  21 Ag     2.798535    3.194847   14.640879    ( 0.0000,  0.0000,  0.0000)
  22 Ru     5.665503    3.368558   14.476982    ( 0.0000,  0.0000,  0.0000)
  23 Pd     8.446491    3.198482   14.580890    ( 0.0000,  0.0000,  0.0000)
  24 Ir     4.206956    5.612319   14.583197    ( 0.0000,  0.0000,  0.0000)
  25 Ir     7.029754    5.574841   14.576467    ( 0.0000,  0.0000,  0.0000)
  26 Pt     9.855089    5.658504   14.594311    ( 0.0000,  0.0000,  0.0000)
  27 Ir    -0.067811    1.505448   16.902074    ( 0.0000,  0.0000,  0.0000)
  28 Pd     2.745811    1.597145   16.973957    ( 0.0000,  0.0000,  0.0000)
  29 Ag     5.525853    1.594212   16.912876    ( 0.0000,  0.0000,  0.0000)
  30 Pd     1.405490    4.019378   16.957713    ( 0.0000,  0.0000,  0.0000)
  31 Pd     4.207580    4.106163   16.915878    ( 0.0000,  0.0000,  0.0000)
  32 Pd     6.979405    3.994918   16.784261    ( 0.0000,  0.0000,  0.0000)
  33 Ru     2.845750    6.523790   16.753425    ( 0.0000,  0.0000,  0.0000)
  34 Pd     5.660113    6.415176   16.835287    ( 0.0000,  0.0000,  0.0000)
  35 Ir     8.546992    6.369739   16.915848    ( 0.0000,  0.0000,  0.0000)
  36 Ir     0.049730   -0.016341   18.993497    ( 0.0000,  0.0000,  0.0000)
  37 Pt     2.835243   -0.075357   19.106412    ( 0.0000,  0.0000,  0.0000)
  38 Ag     5.669762    0.012746   19.405691    ( 0.0000,  0.0000,  0.0000)
  39 Pd     1.362820    2.375799   19.276929    ( 0.0000,  0.0000,  0.0000)
  40 Pd     4.298611    2.501063   19.236633    ( 0.0000,  0.0000,  0.0000)
  41 Ir     7.184628    2.486397   19.024642    ( 0.0000,  0.0000,  0.0000)
  42 Ag     2.788047    4.887236   19.365547    ( 0.0000,  0.0000,  0.0000)
  43 Ir     5.766356    4.937186   19.425524    ( 0.0000,  0.0000,  0.0000)
  44 Ir     8.305796    4.842693   18.991974    ( 0.0000,  0.0000,  0.0000)
  45 O      5.675092    4.903126   21.225548    ( 0.0000,  0.0000,  0.0000)
  46 H      6.261914    5.476606   21.611236    ( 0.0000,  0.0000,  0.0000)

Unit cell:
           periodic     x           y           z      points  spacing
  1. axis:    yes    8.465341    0.000000    0.000000    35     0.2095
  2. axis:    yes    4.232670    7.331200    0.000000    35     0.2095
  3. axis:    no     0.000000    0.000000   29.187217   135     0.2162

  Lengths:   8.465341   8.465341  29.187217
  Angles:   90.000000  90.000000  60.000000

Effective grid spacing dv^(1/3) = 0.2221

                     log10-error:    total        iterations:
           time      wfs    density  energy       fermi  poisson
iter:   1  15:48:14  -1.72   +inf  -247.652329    35            
iter:   2  15:49:27  -1.21  -1.80  -326.968535    37            
iter:   3  15:50:41  -1.34  -1.28  -270.462604    34            
iter:   4  15:51:57  -2.22  -1.51  -240.779563    36            
iter:   5  15:53:12  -2.74  -2.06  -240.652045    3             
iter:   6  15:54:28  -2.95  -2.03  -239.600384    3             
iter:   7  15:55:41  -3.53  -2.26  -239.000710    3             
iter:   8  15:56:55  -3.75  -2.59  -238.931422    3             
iter:   9  15:58:09  -4.07  -2.63  -238.902426    3             
iter:  10  15:59:23  -4.01  -2.67  -238.851316    3             
iter:  11  16:00:37  -4.05  -2.81  -238.819701    2             
iter:  12  16:01:52  -3.96  -2.93  -238.855335    3             
iter:  13  16:03:07  -4.38  -2.73  -238.809552    3             
iter:  14  16:04:21  -4.76  -2.99  -238.807647    3             
iter:  15  16:05:35  -5.19  -3.09  -238.798983    3             
iter:  16  16:06:52  -5.40  -3.16  -238.794825    2             
iter:  17  16:08:07  -5.34  -3.42  -238.793980    3             
iter:  18  16:09:24  -5.66  -3.42  -238.793635    2             
iter:  19  16:10:40  -5.45  -3.58  -238.794695    2             
iter:  20  16:11:56  -5.48  -3.38  -238.798510    3             
iter:  21  16:13:11  -5.45  -3.44  -238.793530    3             
iter:  22  16:14:27  -5.99  -3.59  -238.794272    2             
iter:  23  16:15:44  -6.40  -3.59  -238.793961    2             
iter:  24  16:17:00  -6.59  -3.68  -238.794000    2             
iter:  25  16:18:15  -6.66  -3.99  -238.793950    2             
iter:  26  16:19:31  -6.09  -3.87  -238.794974    2             
iter:  27  16:20:46  -6.53  -3.94  -238.793590    2             
iter:  28  16:22:02  -6.71  -4.05  -238.794111    2             
iter:  29  16:23:18  -7.05  -4.19  -238.794071    2             
iter:  30  16:24:35  -7.44  -4.39  -238.794160    2             

Converged after 30 iterations.

Dipole moment: (24.365740, 14.012092, 0.168097) |e|*Ang

Energy contributions relative to reference atoms: (reference = -12877860.274276)

Kinetic:       -217.202728
Potential:      +94.189127
External:        +0.000000
XC:            -107.658468
Entropy (-ST):   -2.253826
Local:           -6.995178
--------------------------
Free energy:   -239.921073
Extrapolated:  -238.794160

Fermi level: 1.13718

Showing only first 2 kpts
 Kpt  Band  Eigenvalues  Occupancy
  0   360      1.13434    0.12678
  0   361      1.15540    0.11365
  0   362      1.18791    0.09396
  0   363      1.21302    0.07975

  1   360      1.04824    0.17719
  1   361      1.06748    0.16688
  1   362      1.08721    0.15560
  1   363      1.11268    0.14024



Forces in eV/Ang:
  0 Pd   -0.12340    0.32084   -0.36481
  1 Ir    0.95204    0.69205    0.60466
  2 Ru   -1.08268    0.28242    0.68684
  3 Ru    0.41842    0.26541    1.64482
  4 Ir   -0.57300   -0.79639    1.16622
  5 Pt    0.15938    0.15992    0.05104
  6 Pd   -0.49984   -0.41376   -0.23988
  7 Pd    0.38512   -0.26100   -0.57416
  8 Ru    0.34060   -0.13930    0.55447
  9 Ag   -0.26155   -0.12944    0.06682
 10 Ag   -0.01562   -0.14401    0.07562
 11 Ag    0.08101   -0.17214   -0.13342
 12 Pt    0.07101    0.78741   -0.58637
 13 Pt    0.14473    0.56430   -0.69401
 14 Pt   -0.12354    0.20659   -0.14957
 15 Ru   -0.35841   -0.72363   -0.95414
 16 Pt   -0.41035    0.14656   -0.02111
 17 Ir    0.88583   -0.12760   -1.00324
 18 Pt    0.01418   -0.14645    0.09797
 19 Ag   -0.00220   -0.01605   -0.04489
 20 Pd   -0.03196   -0.04927   -0.03705
 21 Ag    0.07594    0.04284   -0.00233
 22 Ru    0.01310    0.03756    0.00889
 23 Pd   -0.05416    0.02517    0.06281
 24 Ir    0.03828   -0.02173    0.07084
 25 Ir   -0.04723   -0.00719    0.02608
 26 Pt    0.00316   -0.01233   -0.03180
 27 Ir   -0.02848   -0.15893    0.23605
 28 Pd   -0.04224   -0.03151   -0.07163
 29 Ag    0.09464   -0.02508    0.00632
 30 Pd   -0.04212    0.01483   -0.02000
 31 Pd   -0.11829   -0.06261    0.05039
 32 Pd    0.07594   -0.06545   -0.02352
 33 Ru    0.05242    0.05523    0.02273
 34 Pd   -0.02945    0.11269    0.04874
 35 Ir    0.04666   -0.04632   -0.08138
 36 Ir   -0.07285    0.21752   -0.22722
 37 Pt    0.04683    0.11860    0.00586
 38 Ag    0.04056    0.00831   -0.02105
 39 Pd    0.01349    0.00239   -0.08943
 40 Pd    0.02139    0.00359   -0.03645
 41 Ir    0.10071   -0.18843   -0.06185
 42 Ag   -0.00345   -0.00656   -0.10605
 43 Ir    0.16385   -0.13078   -3.99037
 44 Ir    0.04602   -0.08671   -0.01499
 45 O    -3.57785   -3.31404    1.66417
 46 H     3.06914    3.05824    2.13827

System changes: positions 

Initializing position-dependent things.

Density initialized from wave functions
                                             
                                             
                                             
                                             
                          H                  
                         O                   
                                             
                                             
                 Ag      Ir    Ir            
            Pd      Pd                       
                   Ru    PdIr    Ir          
        Ir    Pt    PAg    Pd                
                                             
        Ir     Pd    IAg    Ir     Pt        
                Ag                           
                       Ru     Pd             
           Pt     Ag    PPd    Ir            
                                             
            Pt     Pt    PPt    Ru           
       Ag     Ag     Ag                      
              Ru    Ir     Pt                
         Pd    Ir     Ru                     
                                             
                                             
                                             
                                             
                                             

Positions:
   0 Pd     0.000000    1.624086   10.000000    ( 0.0000,  0.0000,  0.0000)
   1 Ir     2.812999    1.624086   10.000000    ( 0.0000,  0.0000,  0.0000)
   2 Ru     5.625998    1.624086   10.000000    ( 0.0000,  0.0000,  0.0000)
   3 Ru     1.406500    4.060215   10.000000    ( 0.0000,  0.0000,  0.0000)
   4 Ir     4.219499    4.060215   10.000000    ( 0.0000,  0.0000,  0.0000)
   5 Pt     7.032498    4.060215   10.000000    ( 0.0000,  0.0000,  0.0000)
   6 Pd     2.812999    6.496343   10.000000    ( 0.0000,  0.0000,  0.0000)
   7 Pd     5.625998    6.496343   10.000000    ( 0.0000,  0.0000,  0.0000)
   8 Ru     8.438997    6.496343   10.000000    ( 0.0000,  0.0000,  0.0000)
   9 Ag     0.000000    0.000000   12.296804    ( 0.0000,  0.0000,  0.0000)
  10 Ag     2.812999    0.000000   12.296804    ( 0.0000,  0.0000,  0.0000)
  11 Ag     5.625998    0.000000   12.296804    ( 0.0000,  0.0000,  0.0000)
  12 Pt     1.406500    2.436129   12.296804    ( 0.0000,  0.0000,  0.0000)
  13 Pt     4.219499    2.436129   12.296804    ( 0.0000,  0.0000,  0.0000)
  14 Pt     7.032498    2.436129   12.296804    ( 0.0000,  0.0000,  0.0000)
  15 Ru     2.812999    4.872257   12.296804    ( 0.0000,  0.0000,  0.0000)
  16 Pt     5.625998    4.872257   12.296804    ( 0.0000,  0.0000,  0.0000)
  17 Ir     8.438997    4.872257   12.296804    ( 0.0000,  0.0000,  0.0000)
  18 Pt     1.329210    0.744094   14.652565    ( 0.0000,  0.0000,  0.0000)
  19 Ag     4.180562    0.788014   14.647881    ( 0.0000,  0.0000,  0.0000)
  20 Pd     6.999581    0.857272   14.622817    ( 0.0000,  0.0000,  0.0000)
  21 Ag     2.799367    3.196885   14.643104    ( 0.0000,  0.0000,  0.0000)
  22 Ru     5.663916    3.371062   14.469575    ( 0.0000,  0.0000,  0.0000)
  23 Pd     8.449286    3.202306   14.575072    ( 0.0000,  0.0000,  0.0000)
  24 Ir     4.205040    5.612888   14.575133    ( 0.0000,  0.0000,  0.0000)
  25 Ir     7.030544    5.576449   14.570060    ( 0.0000,  0.0000,  0.0000)
  26 Pt     9.856851    5.662506   14.596685    ( 0.0000,  0.0000,  0.0000)
  27 Ir    -0.073819    1.502198   16.928927    ( 0.0000,  0.0000,  0.0000)
  28 Pd     2.746913    1.593868   16.982649    ( 0.0000,  0.0000,  0.0000)
  29 Ag     5.528469    1.594688   16.915979    ( 0.0000,  0.0000,  0.0000)
  30 Pd     1.403264    4.026285   16.966339    ( 0.0000,  0.0000,  0.0000)
  31 Pd     4.196001    4.105509   16.897738    ( 0.0000,  0.0000,  0.0000)
  32 Pd     6.992838    3.981300   16.759730    ( 0.0000,  0.0000,  0.0000)
  33 Ru     2.844156    6.532588   16.753978    ( 0.0000,  0.0000,  0.0000)
  34 Pd     5.661512    6.436468   16.808608    ( 0.0000,  0.0000,  0.0000)
  35 Ir     8.548974    6.372075   16.920064    ( 0.0000,  0.0000,  0.0000)
  36 Ir     0.056134   -0.015473   18.976644    ( 0.0000,  0.0000,  0.0000)
  37 Pt     2.822058   -0.083451   19.121258    ( 0.0000,  0.0000,  0.0000)
  38 Ag     5.665067    0.012523   19.406303    ( 0.0000,  0.0000,  0.0000)
  39 Pd     1.353385    2.374311   19.279298    ( 0.0000,  0.0000,  0.0000)
  40 Pd     4.305912    2.506655   19.245669    ( 0.0000,  0.0000,  0.0000)
  41 Ir     7.181883    2.498358   19.016164    ( 0.0000,  0.0000,  0.0000)
  42 Ag     2.796793    4.890099   19.373657    ( 0.0000,  0.0000,  0.0000)
  43 Ir     5.727563    4.922024   19.297220    ( 0.0000,  0.0000,  0.0000)
  44 Ir     8.302639    4.847743   18.992767    ( 0.0000,  0.0000,  0.0000)
  45 O      5.689060    4.908495   21.265978    ( 0.0000,  0.0000,  0.0000)
  46 H      6.306365    5.520688   21.709140    ( 0.0000,  0.0000,  0.0000)

Unit cell:
           periodic     x           y           z      points  spacing
  1. axis:    yes    8.465341    0.000000    0.000000    35     0.2095
  2. axis:    yes    4.232670    7.331200    0.000000    35     0.2095
  3. axis:    no     0.000000    0.000000   29.187217   135     0.2162

  Lengths:   8.465341   8.465341  29.187217
  Angles:   90.000000  90.000000  60.000000

Effective grid spacing dv^(1/3) = 0.2221

                     log10-error:    total        iterations:
           time      wfs    density  energy       fermi  poisson
iter:   1  16:26:23  -1.77   +inf  -242.248580    37            
iter:   2  16:27:39  -2.13  -2.06  -243.887659    32            
iter:   3  16:28:54  -2.49  -1.87  -242.805035    3             
iter:   4  16:30:10  -2.88  -1.91  -241.404478    3             
iter:   5  16:31:26  -3.02  -2.00  -239.445689    3             
iter:   6  16:32:43  -3.48  -2.64  -239.343344    3             
iter:   7  16:34:01  -4.19  -2.65  -239.286750    3             
iter:   8  16:35:17  -4.32  -2.81  -239.257045    2             
iter:   9  16:36:35  -4.37  -2.93  -239.287386    3             
iter:  10  16:37:53  -4.20  -2.68  -239.242960    3             
iter:  11  16:39:09  -4.24  -2.96  -239.415785    3             
iter:  12  16:40:24  -4.23  -2.47  -239.221866    2             
iter:  13  16:41:40  -5.22  -3.33  -239.221217    2             
iter:  14  16:42:54  -5.72  -3.40  -239.220638    2             
iter:  15  16:44:07  -5.53  -3.49  -239.219818    3             
iter:  16  16:45:25  -5.42  -3.46  -239.225780    2             
iter:  17  16:46:39  -5.65  -3.32  -239.222161    2             
iter:  18  16:47:54  -5.88  -3.45  -239.222124    2             
iter:  19  16:49:12  -6.11  -3.50  -239.221922    2             
iter:  20  16:50:28  -6.23  -3.69  -239.221911    2             
iter:  21  16:51:45  -6.16  -3.64  -239.220331    2             
iter:  22  16:53:02  -6.53  -3.91  -239.221528    2             
iter:  23  16:54:19  -6.22  -3.78  -239.220730    2             
iter:  24  16:55:36  -6.54  -3.64  -239.220371    2             
iter:  25  16:56:53  -6.76  -3.88  -239.220458    2             
iter:  26  16:58:10  -7.07  -4.12  -239.220228    2             
iter:  27  16:59:28  -7.04  -4.22  -239.220011    2             
iter:  28  17:00:46  -7.44  -4.03  -239.220414    2             

Converged after 28 iterations.

Dipole moment: (24.355702, 14.702657, 0.041613) |e|*Ang

Energy contributions relative to reference atoms: (reference = -12877860.274276)

Kinetic:       -228.753680
Potential:     +103.428696
External:        +0.000000
XC:            -105.872714
Entropy (-ST):   -2.249433
Local:           -6.898000
--------------------------
Free energy:   -240.345130
Extrapolated:  -239.220414

Fermi level: 1.07753

Showing only first 2 kpts
 Kpt  Band  Eigenvalues  Occupancy
  0   360      1.07480    0.12671
  0   361      1.09471    0.11429
  0   362      1.12751    0.09440
  0   363      1.15478    0.07898

  1   360      0.98555    0.17875
  1   361      1.01087    0.16519
  1   362      1.03236    0.15276
  1   363      1.05522    0.13889



Forces in eV/Ang:
  0 Pd   -0.12210    0.32161   -0.35894
  1 Ir    0.95121    0.69138    0.61257
  2 Ru   -1.08208    0.28154    0.69014
  3 Ru    0.42079    0.26709    1.63099
  4 Ir   -0.57133   -0.79591    1.17129
  5 Pt    0.15561    0.15971    0.05666
  6 Pd   -0.49712   -0.41360   -0.24162
  7 Pd    0.38310   -0.26289   -0.57315
  8 Ru    0.34096   -0.14054    0.55804
  9 Ag   -0.25564   -0.11550    0.05894
 10 Ag   -0.01751   -0.13077    0.06768
 11 Ag    0.08221   -0.16928   -0.13381
 12 Pt    0.07861    0.78450   -0.57646
 13 Pt    0.13465    0.56270   -0.70485
 14 Pt   -0.11698    0.19944   -0.16565
 15 Ru   -0.36511   -0.72615   -0.95226
 16 Pt   -0.41161    0.16767   -0.07778
 17 Ir    0.89587   -0.11699   -1.02256
 18 Pt    0.00924   -0.03589    0.01301
 19 Ag   -0.00733   -0.02549   -0.00800
 20 Pd   -0.02667   -0.03430   -0.00738
 21 Ag    0.02377    0.00540   -0.00766
 22 Ru    0.00948   -0.00332    0.04322
 23 Pd   -0.03072   -0.00486    0.05050
 24 Ir    0.02097   -0.01169    0.06114
 25 Ir   -0.02040   -0.00821    0.02923
 26 Pt   -0.00790   -0.02566   -0.02047
 27 Ir    0.02619   -0.03208   -0.08143
 28 Pd   -0.02859    0.01587   -0.09354
 29 Ag    0.02278   -0.00961   -0.02868
 30 Pd   -0.00261   -0.04391   -0.08481
 31 Pd    0.06998    0.00759    0.17076
 32 Pd   -0.07605    0.06329    0.15449
 33 Ru    0.03025   -0.02659   -0.00593
 34 Pd   -0.02891   -0.11666    0.20811
 35 Ir    0.00929   -0.01768   -0.07339
 36 Ir   -0.03963    0.06695    0.02531
 37 Pt    0.08123    0.10897   -0.09322
 38 Ag    0.03368    0.00745    0.03001
 39 Pd    0.05853    0.00188    0.01440
 40 Pd   -0.02984   -0.02003   -0.03849
 41 Ir    0.05504   -0.11986    0.04773
 42 Ag   -0.05085   -0.02386   -0.06983
 43 Ir    0.18707    0.00501   -0.15060
 44 Ir    0.02897   -0.07649   -0.01278
 45 O    -0.91728   -0.84600   -0.09409
 46 H     0.45992    0.46323   -0.08511

System changes: positions 

Initializing position-dependent things.

Density initialized from wave functions
                                             
                                             
                                             
                                             
                           H                 
                        O                    
                                             
                                             
                 Ag      Ir    Ir            
            Pd      Pd                       
                   Ru    PdIr    Ir          
        Ir   PPt    PAg    Pd                
                                             
        Ir     Pd    IAg    Ir     Pt        
                Ag                           
                       Ru     Pd             
           Pt     Ag    PPd    Ir            
                                             
            Pt     Pt    PPt    Ru           
       Ag     Ag     Ag                      
              Ru    Ir     Pt                
        Pd     Ir     Ru                     
                                             
                                             
                                             
                                             
                                             

Positions:
   0 Pd     0.000000    1.624086   10.000000    ( 0.0000,  0.0000,  0.0000)
   1 Ir     2.812999    1.624086   10.000000    ( 0.0000,  0.0000,  0.0000)
   2 Ru     5.625998    1.624086   10.000000    ( 0.0000,  0.0000,  0.0000)
   3 Ru     1.406500    4.060215   10.000000    ( 0.0000,  0.0000,  0.0000)
   4 Ir     4.219499    4.060215   10.000000    ( 0.0000,  0.0000,  0.0000)
   5 Pt     7.032498    4.060215   10.000000    ( 0.0000,  0.0000,  0.0000)
   6 Pd     2.812999    6.496343   10.000000    ( 0.0000,  0.0000,  0.0000)
   7 Pd     5.625998    6.496343   10.000000    ( 0.0000,  0.0000,  0.0000)
   8 Ru     8.438997    6.496343   10.000000    ( 0.0000,  0.0000,  0.0000)
   9 Ag     0.000000    0.000000   12.296804    ( 0.0000,  0.0000,  0.0000)
  10 Ag     2.812999    0.000000   12.296804    ( 0.0000,  0.0000,  0.0000)
  11 Ag     5.625998    0.000000   12.296804    ( 0.0000,  0.0000,  0.0000)
  12 Pt     1.406500    2.436129   12.296804    ( 0.0000,  0.0000,  0.0000)
  13 Pt     4.219499    2.436129   12.296804    ( 0.0000,  0.0000,  0.0000)
  14 Pt     7.032498    2.436129   12.296804    ( 0.0000,  0.0000,  0.0000)
  15 Ru     2.812999    4.872257   12.296804    ( 0.0000,  0.0000,  0.0000)
  16 Pt     5.625998    4.872257   12.296804    ( 0.0000,  0.0000,  0.0000)
  17 Ir     8.438997    4.872257   12.296804    ( 0.0000,  0.0000,  0.0000)
  18 Pt     1.329749    0.743269   14.650763    ( 0.0000,  0.0000,  0.0000)
  19 Ag     4.178806    0.782330   14.647528    ( 0.0000,  0.0000,  0.0000)
  20 Pd     6.995262    0.851219   14.622681    ( 0.0000,  0.0000,  0.0000)
  21 Ag     2.801147    3.195866   14.640548    ( 0.0000,  0.0000,  0.0000)
  22 Ru     5.666175    3.368710   14.479720    ( 0.0000,  0.0000,  0.0000)
  23 Pd     8.443834    3.198696   14.584843    ( 0.0000,  0.0000,  0.0000)
  24 Ir     4.208695    5.611232   14.587662    ( 0.0000,  0.0000,  0.0000)
  25 Ir     7.027797    5.574346   14.578180    ( 0.0000,  0.0000,  0.0000)
  26 Pt     9.854699    5.656758   14.592807    ( 0.0000,  0.0000,  0.0000)
  27 Ir    -0.066512    1.501089   16.900277    ( 0.0000,  0.0000,  0.0000)
  28 Pd     2.743152    1.597960   16.966199    ( 0.0000,  0.0000,  0.0000)
  29 Ag     5.528729    1.593331   16.910633    ( 0.0000,  0.0000,  0.0000)
  30 Pd     1.404709    4.016437   16.950914    ( 0.0000,  0.0000,  0.0000)
  31 Pd     4.212198    4.106700   16.929002    ( 0.0000,  0.0000,  0.0000)
  32 Pd     6.974445    3.998389   16.794783    ( 0.0000,  0.0000,  0.0000)
  33 Ru     2.848411    6.522991   16.752972    ( 0.0000,  0.0000,  0.0000)
  34 Pd     5.657462    6.408123   16.850405    ( 0.0000,  0.0000,  0.0000)
  35 Ir     8.548321    6.368259   16.909355    ( 0.0000,  0.0000,  0.0000)
  36 Ir     0.047066   -0.008597   18.991486    ( 0.0000,  0.0000,  0.0000)
  37 Pt     2.841011   -0.065640   19.099816    ( 0.0000,  0.0000,  0.0000)
  38 Ag     5.672173    0.013436   19.408948    ( 0.0000,  0.0000,  0.0000)
  39 Pd     1.366538    2.375495   19.279051    ( 0.0000,  0.0000,  0.0000)
  40 Pd     4.297044    2.499958   19.234583    ( 0.0000,  0.0000,  0.0000)
  41 Ir     7.189942    2.476489   19.027257    ( 0.0000,  0.0000,  0.0000)
  42 Ag     2.784537    4.885384   19.360210    ( 0.0000,  0.0000,  0.0000)
  43 Ir     5.776681    4.934075   19.387258    ( 0.0000,  0.0000,  0.0000)
  44 Ir     8.308973    4.836056   18.990539    ( 0.0000,  0.0000,  0.0000)
  45 O      5.583487    4.816877   21.220475    ( 0.0000,  0.0000,  0.0000)
  46 H      6.319232    5.534197   21.623975    ( 0.0000,  0.0000,  0.0000)

Unit cell:
           periodic     x           y           z      points  spacing
  1. axis:    yes    8.465341    0.000000    0.000000    35     0.2095
  2. axis:    yes    4.232670    7.331200    0.000000    35     0.2095
  3. axis:    no     0.000000    0.000000   29.187217   135     0.2162

  Lengths:   8.465341   8.465341  29.187217
  Angles:   90.000000  90.000000  60.000000

Effective grid spacing dv^(1/3) = 0.2221

                     log10-error:    total        iterations:
           time      wfs    density  energy       fermi  poisson
iter:   1  17:02:34  -1.84   +inf  -241.213599    35            
iter:   2  17:03:50  -1.69  -2.00  -307.661078    34            
iter:   3  17:05:06  -1.97  -1.32  -239.554905    35            
iter:   4  17:06:23  -2.98  -2.29  -239.306810    3             
iter:   5  17:07:39  -3.89  -2.40  -239.078222    3             
iter:   6  17:08:56  -3.91  -2.72  -239.003420    3             
iter:   7  17:10:13  -3.73  -2.84  -238.980207    3             
iter:   8  17:11:31  -3.97  -2.75  -238.983310    3             
iter:   9  17:12:49  -4.22  -2.70  -238.999063    3             
iter:  10  17:14:06  -4.38  -2.74  -238.933100    3             
iter:  11  17:15:23  -4.76  -3.02  -238.941647    3             
iter:  12  17:16:42  -5.26  -2.93  -238.925227    2             
iter:  13  17:17:58  -5.43  -3.23  -238.924075    2             
iter:  14  17:19:16  -5.76  -3.41  -238.924143    2             
iter:  15  17:20:32  -4.97  -3.40  -238.931968    3             
iter:  16  17:21:50  -5.27  -3.20  -238.924990    3             
iter:  17  17:23:06  -5.17  -3.26  -238.925642    3             
iter:  18  17:24:22  -6.08  -3.61  -238.924129    2             
iter:  19  17:25:39  -6.60  -3.70  -238.924037    2             
iter:  20  17:26:56  -6.66  -3.75  -238.923409    2             
iter:  21  17:28:13  -6.67  -3.99  -238.923534    2             
iter:  22  17:29:29  -6.27  -3.89  -238.922808    2             
iter:  23  17:30:45  -6.67  -3.95  -238.923795    2             
iter:  24  17:32:01  -6.66  -4.04  -238.922958    2             
iter:  25  17:33:18  -7.15  -4.28  -238.923051    2             
iter:  26  17:34:33  -7.51  -4.45  -238.923023    2             

Converged after 26 iterations.

Dipole moment: (24.282993, 12.965408, 0.128775) |e|*Ang

Energy contributions relative to reference atoms: (reference = -12877860.274276)

Kinetic:       -227.744169
Potential:     +101.921863
External:        +0.000000
XC:            -105.057315
Entropy (-ST):   -2.250992
Local:           -6.917906
--------------------------
Free energy:   -240.048519
Extrapolated:  -238.923023

Fermi level: 1.12122

Showing only first 2 kpts
 Kpt  Band  Eigenvalues  Occupancy
  0   360      1.11949    0.12608
  0   361      1.13945    0.11364
  0   362      1.17308    0.09329
  0   363      1.19757    0.07947

  1   360      1.03041    0.17815
  1   361      1.05285    0.16614
  1   362      1.07019    0.15622
  1   363      1.09775    0.13960



Forces in eV/Ang:
  0 Pd   -0.12226    0.32158   -0.36339
  1 Ir    0.95501    0.68921    0.60748
  2 Ru   -1.08506    0.28377    0.69140
  3 Ru    0.41671    0.26739    1.65491
  4 Ir   -0.56858   -0.79821    1.16732
  5 Pt    0.15818    0.16047    0.05232
  6 Pd   -0.49933   -0.41383   -0.24176
  7 Pd    0.38552   -0.26170   -0.57478
  8 Ru    0.33770   -0.13657    0.55361
  9 Ag   -0.25775   -0.13035    0.07645
 10 Ag   -0.02027   -0.14566    0.07642
 11 Ag    0.07988   -0.17197   -0.13812
 12 Pt    0.06326    0.78907   -0.57025
 13 Pt    0.15027    0.56583   -0.69030
 14 Pt   -0.11888    0.21148   -0.13966
 15 Ru   -0.35502   -0.72568   -0.95349
 16 Pt   -0.41047    0.14027   -0.00692
 17 Ir    0.88120   -0.14042   -1.00338
 18 Pt   -0.00978   -0.14276    0.12212
 19 Ag    0.00227   -0.00511   -0.04353
 20 Pd   -0.00351   -0.03285   -0.03379
 21 Ag    0.07487    0.03928    0.01474
 22 Ru    0.01552    0.02997    0.00034
 23 Pd   -0.05287   -0.00041    0.06836
 24 Ir    0.04181   -0.01936    0.06543
 25 Ir   -0.04578   -0.00106    0.05651
 26 Pt    0.01249   -0.01019   -0.02873
 27 Ir   -0.04545   -0.11165    0.20652
 28 Pd   -0.01650   -0.02498   -0.04573
 29 Ag    0.06688   -0.03448    0.01536
 30 Pd   -0.04244    0.02203    0.01257
 31 Pd   -0.20659   -0.09204   -0.07109
 32 Pd    0.13713   -0.12192   -0.12546
 33 Ru    0.00219    0.04378    0.00853
 34 Pd    0.01248    0.17482   -0.06064
 35 Ir    0.03576   -0.04915   -0.03580
 36 Ir   -0.05292    0.21683   -0.11376
 37 Pt    0.03962    0.03439    0.11139
 38 Ag    0.01675   -0.00396   -0.00368
 39 Pd    0.02359    0.00676   -0.05829
 40 Pd    0.01126   -0.05893    0.00731
 41 Ir    0.12544   -0.17963   -0.03798
 42 Ag   -0.00560    0.01304   -0.06022
 43 Ir    0.02599   -0.17460   -2.45905
 44 Ir    0.09016   -0.01562    0.04380
 45 O     2.05081    2.10720    3.15544
 46 H    -2.24337   -2.10667   -0.95543

System changes: positions 

Initializing position-dependent things.

Density initialized from wave functions
                                             
                                             
                                             
                                             
                          H                  
                        O                    
                                             
                                             
                 Ag      Ir    Ir            
            Pd      Pd                       
                   Ru    PdIr    Ir          
        Ir    Pt    PAg    Pd                
                                             
        Ir     Pd    IAg    Ir     Pt        
                Ag                           
                       Ru     Pd             
           Pt     Ag    PPd    Ir            
                                             
            Pt     Pt    PPt    Ru           
       Ag     Ag     Ag                      
              Ru    Ir     Pt                
         Pd    Ir     Ru                     
                                             
                                             
                                             
                                             
                                             

Positions:
   0 Pd     0.000000    1.624086   10.000000    ( 0.0000,  0.0000,  0.0000)
   1 Ir     2.812999    1.624086   10.000000    ( 0.0000,  0.0000,  0.0000)
   2 Ru     5.625998    1.624086   10.000000    ( 0.0000,  0.0000,  0.0000)
   3 Ru     1.406500    4.060215   10.000000    ( 0.0000,  0.0000,  0.0000)
   4 Ir     4.219499    4.060215   10.000000    ( 0.0000,  0.0000,  0.0000)
   5 Pt     7.032498    4.060215   10.000000    ( 0.0000,  0.0000,  0.0000)
   6 Pd     2.812999    6.496343   10.000000    ( 0.0000,  0.0000,  0.0000)
   7 Pd     5.625998    6.496343   10.000000    ( 0.0000,  0.0000,  0.0000)
   8 Ru     8.438997    6.496343   10.000000    ( 0.0000,  0.0000,  0.0000)
   9 Ag     0.000000    0.000000   12.296804    ( 0.0000,  0.0000,  0.0000)
  10 Ag     2.812999    0.000000   12.296804    ( 0.0000,  0.0000,  0.0000)
  11 Ag     5.625998    0.000000   12.296804    ( 0.0000,  0.0000,  0.0000)
  12 Pt     1.406500    2.436129   12.296804    ( 0.0000,  0.0000,  0.0000)
  13 Pt     4.219499    2.436129   12.296804    ( 0.0000,  0.0000,  0.0000)
  14 Pt     7.032498    2.436129   12.296804    ( 0.0000,  0.0000,  0.0000)
  15 Ru     2.812999    4.872257   12.296804    ( 0.0000,  0.0000,  0.0000)
  16 Pt     5.625998    4.872257   12.296804    ( 0.0000,  0.0000,  0.0000)
  17 Ir     8.438997    4.872257   12.296804    ( 0.0000,  0.0000,  0.0000)
  18 Pt     1.329323    0.743922   14.652189    ( 0.0000,  0.0000,  0.0000)
  19 Ag     4.180196    0.786829   14.647807    ( 0.0000,  0.0000,  0.0000)
  20 Pd     6.998681    0.856010   14.622788    ( 0.0000,  0.0000,  0.0000)
  21 Ag     2.799738    3.196673   14.642571    ( 0.0000,  0.0000,  0.0000)
  22 Ru     5.664387    3.370572   14.471690    ( 0.0000,  0.0000,  0.0000)
  23 Pd     8.448150    3.201553   14.577109    ( 0.0000,  0.0000,  0.0000)
  24 Ir     4.205802    5.612543   14.577745    ( 0.0000,  0.0000,  0.0000)
  25 Ir     7.029972    5.576010   14.571753    ( 0.0000,  0.0000,  0.0000)
  26 Pt     9.856403    5.661308   14.595876    ( 0.0000,  0.0000,  0.0000)
  27 Ir    -0.072296    1.501967   16.922954    ( 0.0000,  0.0000,  0.0000)
  28 Pd     2.746129    1.594721   16.979219    ( 0.0000,  0.0000,  0.0000)
  29 Ag     5.528523    1.594405   16.914864    ( 0.0000,  0.0000,  0.0000)
  30 Pd     1.403565    4.024232   16.963123    ( 0.0000,  0.0000,  0.0000)
  31 Pd     4.199378    4.105757   16.904256    ( 0.0000,  0.0000,  0.0000)
  32 Pd     6.989003    3.984863   16.767038    ( 0.0000,  0.0000,  0.0000)
  33 Ru     2.845043    6.530588   16.753768    ( 0.0000,  0.0000,  0.0000)
  34 Pd     5.660668    6.430559   16.817322    ( 0.0000,  0.0000,  0.0000)
  35 Ir     8.548838    6.371280   16.917832    ( 0.0000,  0.0000,  0.0000)
  36 Ir     0.054243   -0.014039   18.979738    ( 0.0000,  0.0000,  0.0000)
  37 Pt     2.826010   -0.079738   19.116787    ( 0.0000,  0.0000,  0.0000)
  38 Ag     5.666548    0.012713   19.406855    ( 0.0000,  0.0000,  0.0000)
  39 Pd     1.356127    2.374558   19.279247    ( 0.0000,  0.0000,  0.0000)
  40 Pd     4.304063    2.505259   19.243357    ( 0.0000,  0.0000,  0.0000)
  41 Ir     7.183563    2.493799   19.018477    ( 0.0000,  0.0000,  0.0000)
  42 Ag     2.794238    4.889116   19.370853    ( 0.0000,  0.0000,  0.0000)
  43 Ir     5.737804    4.924537   19.315992    ( 0.0000,  0.0000,  0.0000)
  44 Ir     8.303959    4.845307   18.992303    ( 0.0000,  0.0000,  0.0000)
  45 O      5.667050    4.889394   21.256492    ( 0.0000,  0.0000,  0.0000)
  46 H      6.309048    5.523505   21.691384    ( 0.0000,  0.0000,  0.0000)

Unit cell:
           periodic     x           y           z      points  spacing
  1. axis:    yes    8.465341    0.000000    0.000000    35     0.2095
  2. axis:    yes    4.232670    7.331200    0.000000    35     0.2095
  3. axis:    no     0.000000    0.000000   29.187217   135     0.2162

  Lengths:   8.465341   8.465341  29.187217
  Angles:   90.000000  90.000000  60.000000

Effective grid spacing dv^(1/3) = 0.2221

                     log10-error:    total        iterations:
           time      wfs    density  energy       fermi  poisson
iter:   1  17:36:22  -2.11   +inf  -239.591645    4             
iter:   2  17:37:38  -2.82  -2.48  -241.893788    3             
iter:   3  17:38:54  -2.89  -1.97  -241.506434    3             
iter:   4  17:40:11  -3.47  -1.97  -239.400759    3             
iter:   5  17:41:27  -4.12  -2.61  -239.326064    3             
iter:   6  17:42:43  -4.19  -2.86  -239.289077    3             
iter:   7  17:43:59  -4.10  -2.93  -239.273822    3             
iter:   8  17:45:15  -4.32  -3.01  -239.264131    3             
iter:   9  17:46:31  -4.52  -3.07  -239.288544    2             
iter:  10  17:47:49  -4.73  -2.80  -239.274656    2             
iter:  11  17:49:05  -5.20  -2.92  -239.255983    2             
iter:  12  17:50:21  -5.31  -3.26  -239.248962    3             
iter:  13  17:51:38  -5.95  -3.39  -239.249347    2             
iter:  14  17:52:54  -6.04  -3.52  -239.248490    2             
iter:  15  17:54:10  -5.35  -3.52  -239.250790    3             
iter:  16  17:55:27  -5.27  -3.26  -239.260711    2             
iter:  17  17:56:44  -5.38  -3.08  -239.248155    2             
iter:  18  17:58:00  -5.85  -3.59  -239.247468    2             
iter:  19  17:59:18  -6.06  -3.53  -239.248412    2             
iter:  20  18:00:36  -6.47  -3.88  -239.247486    2             
iter:  21  18:01:52  -6.84  -3.77  -239.247340    2             
iter:  22  18:03:06  -6.11  -3.94  -239.248109    2             
iter:  23  18:04:20  -6.97  -4.05  -239.247702    2             
iter:  24  18:05:35  -7.10  -3.99  -239.247614    2             
iter:  25  18:06:49  -7.20  -4.47  -239.247816    2             
iter:  26  18:08:04  -7.58  -4.47  -239.247532    2             

Converged after 26 iterations.

Dipole moment: (24.338745, 14.339384, 0.061009) |e|*Ang

Energy contributions relative to reference atoms: (reference = -12877860.274276)

Kinetic:       -228.422101
Potential:     +102.895528
External:        +0.000000
XC:            -105.707942
Entropy (-ST):   -2.250943
Local:           -6.887546
--------------------------
Free energy:   -240.373003
Extrapolated:  -239.247532

Fermi level: 1.08754

Showing only first 2 kpts
 Kpt  Band  Eigenvalues  Occupancy
  0   360      1.08524    0.12644
  0   361      1.10455    0.11440
  0   362      1.13776    0.09425
  0   363      1.16429    0.07925

  1   360      0.99600    0.17853
  1   361      1.02020    0.16557
  1   362      1.04135    0.15337
  1   363      1.06401    0.13964



Forces in eV/Ang:
  0 Pd   -0.12329    0.32216   -0.35804
  1 Ir    0.95307    0.69096    0.61293
  2 Ru   -1.08163    0.28283    0.69059
  3 Ru    0.41854    0.26793    1.63797
  4 Ir   -0.56987   -0.79824    1.17285
  5 Pt    0.15634    0.15931    0.05723
  6 Pd   -0.49965   -0.41328   -0.23965
  7 Pd    0.38471   -0.26271   -0.57358
  8 Ru    0.34018   -0.14072    0.55809
  9 Ag   -0.25675   -0.11597    0.06096
 10 Ag   -0.01682   -0.13217    0.06783
 11 Ag    0.08091   -0.16875   -0.13709
 12 Pt    0.07471    0.78504   -0.57540
 13 Pt    0.13823    0.56145   -0.70484
 14 Pt   -0.11730    0.20029   -0.16315
 15 Ru   -0.36519   -0.72683   -0.95630
 16 Pt   -0.41076    0.16093   -0.06958
 17 Ir    0.89503   -0.12245   -1.02227
 18 Pt    0.00285   -0.05438    0.04621
 19 Ag   -0.00607   -0.01950   -0.01368
 20 Pd   -0.01828   -0.03071   -0.00962
 21 Ag    0.03277    0.01028    0.00279
 22 Ru    0.01322    0.00145    0.03833
 23 Pd   -0.03481   -0.00818    0.06339
 24 Ir    0.02445   -0.01185    0.07175
 25 Ir   -0.02355   -0.00666    0.04615
 26 Pt   -0.00475   -0.02325   -0.01897
 27 Ir    0.01563   -0.04236   -0.02761
 28 Pd   -0.02311    0.00754   -0.07439
 29 Ag    0.02802   -0.02118   -0.01124
 30 Pd   -0.00925   -0.02973   -0.05288
 31 Pd   -0.00817   -0.02277    0.11048
 32 Pd   -0.01521    0.02619    0.08861
 33 Ru    0.01643   -0.01508    0.00661
 34 Pd   -0.00998   -0.04176    0.13354
 35 Ir    0.01453   -0.02151   -0.05047
 36 Ir   -0.05922    0.08906   -0.00129
 37 Pt    0.07629    0.07146   -0.04885
 38 Ag    0.03537    0.00130   -0.00343
 39 Pd    0.05459    0.01309   -0.03705
 40 Pd   -0.02372   -0.03012   -0.06092
 41 Ir    0.06367   -0.13905    0.01463
 42 Ag   -0.04160   -0.01088   -0.08662
 43 Ir    0.15476   -0.01956   -0.46424
 44 Ir    0.04465   -0.04904   -0.00184
 45 O    -0.07344   -0.02639    0.61964
 46 H    -0.26731   -0.24852   -0.45190

System changes: positions 

Initializing position-dependent things.

Density initialized from wave functions
                                             
                                             
                                             
                                             
                          H                  
                        O                    
                                             
                                             
                 Ag      Ir    Ir            
            Pd      Pd                       
                   Ru    PdIr    Ir          
        Ir   PPt    PAg    Pd                
                                             
        Ir     Pd    IAg    Ir     Pt        
                Ag                           
                       Ru     Pd             
           Pt     Ag    PPd    Ir            
                                             
            Pt     Pt    PPt    Ru           
       Ag     Ag     Ag                      
              Ru    Ir     Pt                
        Pd     Ir     Ru                     
                                             
                                             
                                             
                                             
                                             

Positions:
   0 Pd     0.000000    1.624086   10.000000    ( 0.0000,  0.0000,  0.0000)
   1 Ir     2.812999    1.624086   10.000000    ( 0.0000,  0.0000,  0.0000)
   2 Ru     5.625998    1.624086   10.000000    ( 0.0000,  0.0000,  0.0000)
   3 Ru     1.406500    4.060215   10.000000    ( 0.0000,  0.0000,  0.0000)
   4 Ir     4.219499    4.060215   10.000000    ( 0.0000,  0.0000,  0.0000)
   5 Pt     7.032498    4.060215   10.000000    ( 0.0000,  0.0000,  0.0000)
   6 Pd     2.812999    6.496343   10.000000    ( 0.0000,  0.0000,  0.0000)
   7 Pd     5.625998    6.496343   10.000000    ( 0.0000,  0.0000,  0.0000)
   8 Ru     8.438997    6.496343   10.000000    ( 0.0000,  0.0000,  0.0000)
   9 Ag     0.000000    0.000000   12.296804    ( 0.0000,  0.0000,  0.0000)
  10 Ag     2.812999    0.000000   12.296804    ( 0.0000,  0.0000,  0.0000)
  11 Ag     5.625998    0.000000   12.296804    ( 0.0000,  0.0000,  0.0000)
  12 Pt     1.406500    2.436129   12.296804    ( 0.0000,  0.0000,  0.0000)
  13 Pt     4.219499    2.436129   12.296804    ( 0.0000,  0.0000,  0.0000)
  14 Pt     7.032498    2.436129   12.296804    ( 0.0000,  0.0000,  0.0000)
  15 Ru     2.812999    4.872257   12.296804    ( 0.0000,  0.0000,  0.0000)
  16 Pt     5.625998    4.872257   12.296804    ( 0.0000,  0.0000,  0.0000)
  17 Ir     8.438997    4.872257   12.296804    ( 0.0000,  0.0000,  0.0000)
  18 Pt     1.329577    0.737562   14.656820    ( 0.0000,  0.0000,  0.0000)
  19 Ag     4.179123    0.782711   14.646560    ( 0.0000,  0.0000,  0.0000)
  20 Pd     6.995397    0.850515   14.622001    ( 0.0000,  0.0000,  0.0000)
  21 Ag     2.803864    3.197735   14.642076    ( 0.0000,  0.0000,  0.0000)
  22 Ru     5.666629    3.369909   14.478006    ( 0.0000,  0.0000,  0.0000)
  23 Pd     8.442300    3.199228   14.586754    ( 0.0000,  0.0000,  0.0000)
  24 Ir     4.209460    5.610721   14.588517    ( 0.0000,  0.0000,  0.0000)
  25 Ir     7.026430    5.574742   14.579315    ( 0.0000,  0.0000,  0.0000)
  26 Pt     9.855539    5.657378   14.593201    ( 0.0000,  0.0000,  0.0000)
  27 Ir    -0.069185    1.494888   16.916738    ( 0.0000,  0.0000,  0.0000)
  28 Pd     2.742692    1.596054   16.966352    ( 0.0000,  0.0000,  0.0000)
  29 Ag     5.531692    1.591752   16.912297    ( 0.0000,  0.0000,  0.0000)
  30 Pd     1.402700    4.018754   16.953282    ( 0.0000,  0.0000,  0.0000)
  31 Pd     4.202619    4.103163   16.922414    ( 0.0000,  0.0000,  0.0000)
  32 Pd     6.982095    3.991750   16.785896    ( 0.0000,  0.0000,  0.0000)
  33 Ru     2.847572    6.526700   16.754370    ( 0.0000,  0.0000,  0.0000)
  34 Pd     5.658429    6.420141   16.840743    ( 0.0000,  0.0000,  0.0000)
  35 Ir     8.550074    6.367030   16.909891    ( 0.0000,  0.0000,  0.0000)
  36 Ir     0.045576    0.001394   18.978034    ( 0.0000,  0.0000,  0.0000)
  37 Pt     2.840775   -0.065385   19.104469    ( 0.0000,  0.0000,  0.0000)
  38 Ag     5.672118    0.013004   19.407686    ( 0.0000,  0.0000,  0.0000)
  39 Pd     1.364210    2.375300   19.276150    ( 0.0000,  0.0000,  0.0000)
  40 Pd     4.298793    2.498970   19.233700    ( 0.0000,  0.0000,  0.0000)
  41 Ir     7.194152    2.471729   19.020666    ( 0.0000,  0.0000,  0.0000)
  42 Ag     2.785535    4.886514   19.358252    ( 0.0000,  0.0000,  0.0000)
  43 Ir     5.764735    4.923314   19.310756    ( 0.0000,  0.0000,  0.0000)
  44 Ir     8.315153    4.837227   18.989897    ( 0.0000,  0.0000,  0.0000)
  45 O      5.622030    4.852786   21.288978    ( 0.0000,  0.0000,  0.0000)
  46 H      6.291989    5.508688   21.625372    ( 0.0000,  0.0000,  0.0000)

Unit cell:
           periodic     x           y           z      points  spacing
  1. axis:    yes    8.465341    0.000000    0.000000    35     0.2095
  2. axis:    yes    4.232670    7.331200    0.000000    35     0.2095
  3. axis:    no     0.000000    0.000000   29.187217   135     0.2162

  Lengths:   8.465341   8.465341  29.187217
  Angles:   90.000000  90.000000  60.000000

Effective grid spacing dv^(1/3) = 0.2221

                     log10-error:    total        iterations:
           time      wfs    density  energy       fermi  poisson
iter:   1  18:09:55  -2.40   +inf  -239.819483    3             
iter:   2  18:11:11  -3.00  -2.50  -240.262926    4             
iter:   3  18:12:28  -2.85  -2.15  -243.008218    3             
iter:   4  18:13:44  -3.37  -1.88  -239.538469    2             
iter:   5  18:15:00  -3.93  -2.55  -239.323946    3             
iter:   6  18:16:17  -4.45  -2.93  -239.296718    3             
iter:   7  18:17:34  -5.14  -3.09  -239.292337    2             
iter:   8  18:18:50  -5.05  -3.13  -239.290501    2             
iter:   9  18:20:06  -5.04  -3.28  -239.287251    3             
iter:  10  18:21:23  -4.97  -3.22  -239.286640    2             
iter:  11  18:22:40  -5.20  -3.30  -239.292226    3             
iter:  12  18:23:57  -5.32  -3.16  -239.284101    2             
iter:  13  18:25:13  -6.02  -3.68  -239.285739    2             
iter:  14  18:26:30  -6.11  -3.62  -239.284098    2             
iter:  15  18:27:45  -6.21  -3.80  -239.285578    2             
iter:  16  18:29:00  -6.07  -3.73  -239.285033    2             
iter:  17  18:30:15  -6.37  -3.84  -239.284630    2             
iter:  18  18:31:30  -6.75  -3.97  -239.284164    2             
iter:  19  18:32:44  -7.01  -4.01  -239.284729    2             
iter:  20  18:33:57  -6.91  -4.00  -239.283911    2             
iter:  21  18:35:11  -7.34  -4.10  -239.284281    2             
iter:  22  18:36:25  -7.33  -4.27  -239.283934    2             
iter:  23  18:37:40  -7.17  -4.27  -239.283948    2             
iter:  24  18:38:54  -7.21  -4.07  -239.283802    2             
iter:  25  18:40:09  -7.51  -4.37  -239.284172    2             

Converged after 25 iterations.

Dipole moment: (24.486919, 12.498723, -0.003246) |e|*Ang

Energy contributions relative to reference atoms: (reference = -12877860.274276)

Kinetic:       -229.491506
Potential:     +103.811000
External:        +0.000000
XC:            -105.597552
Entropy (-ST):   -2.250889
Local:           -6.880670
--------------------------
Free energy:   -240.409616
Extrapolated:  -239.284172

Fermi level: 1.05875

Showing only first 2 kpts
 Kpt  Band  Eigenvalues  Occupancy
  0   360      1.05986    0.12431
  0   361      1.07497    0.11489
  0   362      1.10992    0.09370
  0   363      1.13651    0.07871

  1   360      0.96846    0.17788
  1   361      0.99317    0.16458
  1   362      1.00989    0.15495
  1   363      1.03534    0.13956



Forces in eV/Ang:
  0 Pd   -0.12119    0.32205   -0.35789
  1 Ir    0.95406    0.68943    0.61293
  2 Ru   -1.08427    0.28356    0.69390
  3 Ru    0.41730    0.27189    1.65025
  4 Ir   -0.56850   -0.79629    1.17119
  5 Pt    0.15790    0.16141    0.05712
  6 Pd   -0.49808   -0.41442   -0.23943
  7 Pd    0.38403   -0.26227   -0.57030
  8 Ru    0.33984   -0.13998    0.55861
  9 Ag   -0.25117   -0.12685    0.08377
 10 Ag   -0.02510   -0.14197    0.07727
 11 Ag    0.07994   -0.17447   -0.14297
 12 Pt    0.06345    0.78833   -0.54625
 13 Pt    0.14469    0.56626   -0.69488
 14 Pt   -0.11097    0.20883   -0.13862
 15 Ru   -0.36018   -0.72764   -0.95093
 16 Pt   -0.41053    0.14988   -0.01760
 17 Ir    0.88602   -0.13883   -1.00811
 18 Pt   -0.01451   -0.05996    0.04170
 19 Ag    0.00277   -0.00510   -0.02982
 20 Pd    0.00844   -0.01801   -0.02581
 21 Ag    0.02403    0.00656   -0.00940
 22 Ru    0.00801   -0.00195    0.00770
 23 Pd   -0.01672   -0.02382    0.02184
 24 Ir    0.02686   -0.00975    0.02908
 25 Ir   -0.01225    0.00133    0.03009
 26 Pt    0.00632   -0.01744   -0.02763
 27 Ir   -0.01091    0.00835   -0.07220
 28 Pd    0.00677   -0.00389   -0.04580
 29 Ag    0.01317   -0.02074   -0.01513
 30 Pd   -0.01447   -0.01261   -0.03068
 31 Pd   -0.07358   -0.03513   -0.01360
 32 Pd    0.03063   -0.06462   -0.02012
 33 Ru   -0.02108   -0.02143   -0.01878
 34 Pd    0.01631    0.02397    0.01620
 35 Ir    0.00894   -0.02363   -0.01713
 36 Ir    0.00384    0.02534    0.11169
 37 Pt    0.02291   -0.04905    0.03200
 38 Ag    0.00988   -0.00913   -0.00006
 39 Pd    0.07127    0.02203   -0.03473
 40 Pd    0.00865   -0.01257   -0.00281
 41 Ir    0.05845   -0.03061    0.02650
 42 Ag    0.03715    0.00874   -0.04496
 43 Ir   -0.10522   -0.19799    0.01561
 44 Ir    0.01541   -0.00451    0.03128
 45 O     0.25995    0.19143   -0.22006
 46 H    -0.21512   -0.16857   -0.02095

System changes: positions 

Initializing position-dependent things.

Density initialized from wave functions
                                             
                                             
                                             
                                             
                          H                  
                        O                    
                                             
                                             
                 Ag      Ir    Ir            
            Pd      Pd                       
                   Ru    PdIr    Ir          
        Ir   PPt    PAg    Pd                
                                             
        Ir     Pd    IAg    Ir     Pt        
                Ag                           
                       Ru     Pd             
           Pt     Ag    PPd    Ir            
                                             
            Pt     Pt    PPt    Ru           
       Ag     Ag     Ag                      
              Ru    Ir     Pt                
        Pd     Ir     Ru                     
                                             
                                             
                                             
                                             
                                             

Positions:
   0 Pd     0.000000    1.624086   10.000000    ( 0.0000,  0.0000,  0.0000)
   1 Ir     2.812999    1.624086   10.000000    ( 0.0000,  0.0000,  0.0000)
   2 Ru     5.625998    1.624086   10.000000    ( 0.0000,  0.0000,  0.0000)
   3 Ru     1.406500    4.060215   10.000000    ( 0.0000,  0.0000,  0.0000)
   4 Ir     4.219499    4.060215   10.000000    ( 0.0000,  0.0000,  0.0000)
   5 Pt     7.032498    4.060215   10.000000    ( 0.0000,  0.0000,  0.0000)
   6 Pd     2.812999    6.496343   10.000000    ( 0.0000,  0.0000,  0.0000)
   7 Pd     5.625998    6.496343   10.000000    ( 0.0000,  0.0000,  0.0000)
   8 Ru     8.438997    6.496343   10.000000    ( 0.0000,  0.0000,  0.0000)
   9 Ag     0.000000    0.000000   12.296804    ( 0.0000,  0.0000,  0.0000)
  10 Ag     2.812999    0.000000   12.296804    ( 0.0000,  0.0000,  0.0000)
  11 Ag     5.625998    0.000000   12.296804    ( 0.0000,  0.0000,  0.0000)
  12 Pt     1.406500    2.436129   12.296804    ( 0.0000,  0.0000,  0.0000)
  13 Pt     4.219499    2.436129   12.296804    ( 0.0000,  0.0000,  0.0000)
  14 Pt     7.032498    2.436129   12.296804    ( 0.0000,  0.0000,  0.0000)
  15 Ru     2.812999    4.872257   12.296804    ( 0.0000,  0.0000,  0.0000)
  16 Pt     5.625998    4.872257   12.296804    ( 0.0000,  0.0000,  0.0000)
[...]
  31 Pd     4.199007    4.047680   16.891644    ( 0.0000,  0.0000,  0.0000)
  32 Pd     6.993367    3.948984   16.768834    ( 0.0000,  0.0000,  0.0000)
  33 Ru     2.842144    6.494031   16.746426    ( 0.0000,  0.0000,  0.0000)
  34 Pd     5.637401    6.371572   16.869854    ( 0.0000,  0.0000,  0.0000)
  35 Ir     8.543018    6.340298   16.892328    ( 0.0000,  0.0000,  0.0000)
  36 Ir     0.053160    0.061125   18.990778    ( 0.0000,  0.0000,  0.0000)
  37 Pt     2.824564   -0.136091   19.108823    ( 0.0000,  0.0000,  0.0000)
  38 Ag     5.675420   -0.018621   19.406677    ( 0.0000,  0.0000,  0.0000)
  39 Pd     1.440292    2.376272   19.261891    ( 0.0000,  0.0000,  0.0000)
  40 Pd     4.296323    2.446664   19.218819    ( 0.0000,  0.0000,  0.0000)
  41 Ir     7.255916    2.443832   19.009684    ( 0.0000,  0.0000,  0.0000)
  42 Ag     2.860749    4.896847   19.304983    ( 0.0000,  0.0000,  0.0000)
  43 Ir     5.839604    4.751538   19.217266    ( 0.0000,  0.0000,  0.0000)
  44 Ir     8.381528    4.817127   18.970938    ( 0.0000,  0.0000,  0.0000)
  45 O      5.595493    4.787349   21.171708    ( 0.0000,  0.0000,  0.0000)
  46 H      6.196796    5.500573   21.509799    ( 0.0000,  0.0000,  0.0000)

Unit cell:
           periodic     x           y           z      points  spacing
  1. axis:    yes    8.465341    0.000000    0.000000    35     0.2095
  2. axis:    yes    4.232670    7.331200    0.000000    35     0.2095
  3. axis:    no     0.000000    0.000000   29.187217   135     0.2162

  Lengths:   8.465341   8.465341  29.187217
  Angles:   90.000000  90.000000  60.000000

Effective grid spacing dv^(1/3) = 0.2221

                     log10-error:    total        iterations:
           time      wfs    density  energy       fermi  poisson
iter:   1  22:23:37  -2.64   +inf  -241.230441    3             
iter:   2  22:24:51  -1.69  -2.03  -305.927671    37            
iter:   3  22:26:04  -2.04  -1.33  -240.033372    36            
iter:   4  22:27:17  -3.09  -2.25  -239.419415    3             
iter:   5  22:28:32  -4.10  -2.80  -239.395720    3             
iter:   6  22:29:47  -4.62  -2.89  -239.370687    3             
iter:   7  22:31:01  -4.73  -3.11  -239.361901    2             
iter:   8  22:32:17  -5.31  -3.32  -239.364878    2             
iter:   9  22:33:32  -5.38  -3.15  -239.361490    2             
iter:  10  22:34:47  -5.32  -3.39  -239.359175    2             
iter:  11  22:36:03  -5.56  -3.46  -239.358706    2             
iter:  12  22:37:18  -5.72  -3.57  -239.357293    2             
iter:  13  22:38:34  -6.24  -3.80  -239.357190    2             
iter:  14  22:39:50  -6.07  -3.86  -239.356861    2             
iter:  15  22:41:06  -6.17  -3.85  -239.359388    2             
iter:  16  22:42:21  -6.44  -3.62  -239.357052    2             
iter:  17  22:43:36  -6.88  -4.11  -239.357237    2             
iter:  18  22:44:51  -6.88  -4.22  -239.357059    2             
iter:  19  22:46:06  -7.05  -4.12  -239.357165    2             
iter:  20  22:47:20  -7.39  -4.39  -239.357082    2             
iter:  21  22:48:35  -7.63  -4.43  -239.357003    2             

Converged after 21 iterations.

Dipole moment: (21.062943, 10.795462, 0.021865) |e|*Ang

Energy contributions relative to reference atoms: (reference = -12877860.274276)

Kinetic:       -221.099581
Potential:      +96.761479
External:        +0.000000
XC:            -107.016544
Entropy (-ST):   -2.233918
Local:           -6.885398
--------------------------
Free energy:   -240.473961
Extrapolated:  -239.357003

Fermi level: 1.07201

Showing only first 2 kpts
 Kpt  Band  Eigenvalues  Occupancy
  0   360      1.07563    0.12274
  0   361      1.08207    0.11872
  0   362      1.12722    0.09134
  0   363      1.15144    0.07781

  1   360      0.98116    0.17817
  1   361      1.00953    0.16283
  1   362      1.02260    0.15527
  1   363      1.05998    0.13251



Forces in eV/Ang:
  0 Pd   -0.12273    0.32436   -0.36653
  1 Ir    0.96144    0.68852    0.59955
  2 Ru   -1.08524    0.28625    0.67265
  3 Ru    0.40880    0.27850    1.64192
  4 Ir   -0.56717   -0.79818    1.15183
  5 Pt    0.15677    0.15920    0.04931
  6 Pd   -0.49850   -0.41348   -0.24282
  7 Pd    0.38529   -0.26339   -0.57021
  8 Ru    0.34139   -0.13270    0.55057
  9 Ag   -0.23390   -0.13828    0.06464
 10 Ag   -0.03047   -0.16252    0.06731
 11 Ag    0.07365   -0.19515   -0.19978
 12 Pt    0.06649    0.72708   -0.60745
 13 Pt    0.15407    0.53470   -0.74251
 14 Pt   -0.10161    0.17023   -0.19637
 15 Ru   -0.33936   -0.74413   -0.96883
 16 Pt   -0.39606    0.12838   -0.03144
 17 Ir    0.87270   -0.17264   -1.00469
 18 Pt   -0.00956   -0.02940    0.02169
 19 Ag    0.00043   -0.00166   -0.01134
 20 Pd    0.00241   -0.00298   -0.00884
 21 Ag    0.00312   -0.01221   -0.00173
 22 Ru    0.01127    0.01083    0.01602
 23 Pd    0.01289   -0.00375   -0.01446
 24 Ir    0.00331   -0.00861    0.02608
 25 Ir   -0.00910   -0.00234    0.01190
 26 Pt    0.01329   -0.02045   -0.01832
 27 Ir    0.01318   -0.00896   -0.01315
 28 Pd   -0.00701    0.00679   -0.00823
 29 Ag    0.01437   -0.01429   -0.01984
 30 Pd    0.00144    0.02979    0.03879
 31 Pd    0.00293   -0.04998   -0.00864
 32 Pd    0.05178   -0.00859   -0.01563
 33 Ru    0.01129    0.00020   -0.01916
 34 Pd    0.03474   -0.00255   -0.03774
 35 Ir    0.02352   -0.03951    0.00678
 36 Ir   -0.02553    0.02010    0.02405
 37 Pt    0.01565   -0.03082    0.00613
 38 Ag    0.01027   -0.01837   -0.01547
 39 Pd   -0.01639   -0.00693   -0.01327
 40 Pd    0.01232   -0.03836    0.01289
 41 Ir    0.01561   -0.05475    0.00889
 42 Ag   -0.00247   -0.02724   -0.00193
 43 Ir   -0.05873   -0.05859    0.08570
 44 Ir    0.00469   -0.00056   -0.00077
 45 O     0.06031    0.07990    0.06313
 46 H    -0.10683   -0.04710    0.03653

System changes: positions 

Initializing position-dependent things.

Density initialized from wave functions
                                             
                                             
                                             
                                             
                          H                  
                        O                    
                                             
                                             
                  Ag     Ir    Ir            
             Pd     Pd     Ir                
                   Ru    Pd     Ir           
        Ir    Pt    PAg    Pd                
                                             
        Ir     Pd    IAg    Ir     Pt        
                Ag     Ru     Pd             
                                             
           Pt     Ag    PPd    Ir            
                                             
            Pt     Pt    PPt    Ru           
       Ag     Ag    IAg    Pt                
                                             
         Pd    Ir     Ru                     
                                             
                                             
                                             
                                             
                                             

Positions:
   0 Pd     0.000000    1.624086   10.000000    ( 0.0000,  0.0000,  0.0000)
   1 Ir     2.812999    1.624086   10.000000    ( 0.0000,  0.0000,  0.0000)
   2 Ru     5.625998    1.624086   10.000000    ( 0.0000,  0.0000,  0.0000)
   3 Ru     1.406500    4.060215   10.000000    ( 0.0000,  0.0000,  0.0000)
   4 Ir     4.219499    4.060215   10.000000    ( 0.0000,  0.0000,  0.0000)
   5 Pt     7.032498    4.060215   10.000000    ( 0.0000,  0.0000,  0.0000)
   6 Pd     2.812999    6.496343   10.000000    ( 0.0000,  0.0000,  0.0000)
   7 Pd     5.625998    6.496343   10.000000    ( 0.0000,  0.0000,  0.0000)
   8 Ru     8.438997    6.496343   10.000000    ( 0.0000,  0.0000,  0.0000)
   9 Ag     0.000000    0.000000   12.296804    ( 0.0000,  0.0000,  0.0000)
  10 Ag     2.812999    0.000000   12.296804    ( 0.0000,  0.0000,  0.0000)
  11 Ag     5.625998    0.000000   12.296804    ( 0.0000,  0.0000,  0.0000)
  12 Pt     1.406500    2.436129   12.296804    ( 0.0000,  0.0000,  0.0000)
  13 Pt     4.219499    2.436129   12.296804    ( 0.0000,  0.0000,  0.0000)
  14 Pt     7.032498    2.436129   12.296804    ( 0.0000,  0.0000,  0.0000)
  15 Ru     2.812999    4.872257   12.296804    ( 0.0000,  0.0000,  0.0000)
  16 Pt     5.625998    4.872257   12.296804    ( 0.0000,  0.0000,  0.0000)
  17 Ir     8.438997    4.872257   12.296804    ( 0.0000,  0.0000,  0.0000)
  18 Pt     1.336368    0.681986   14.665518    ( 0.0000,  0.0000,  0.0000)
  19 Ag     4.189781    0.762362   14.635980    ( 0.0000,  0.0000,  0.0000)
  20 Pd     6.994633    0.817673   14.606033    ( 0.0000,  0.0000,  0.0000)
  21 Ag     2.802310    3.161757   14.627001    ( 0.0000,  0.0000,  0.0000)
  22 Ru     5.666172    3.347271   14.468998    ( 0.0000,  0.0000,  0.0000)
  23 Pd     8.447909    3.158686   14.571877    ( 0.0000,  0.0000,  0.0000)
  24 Ir     4.206866    5.582292   14.585735    ( 0.0000,  0.0000,  0.0000)
  25 Ir     7.029200    5.553301   14.581269    ( 0.0000,  0.0000,  0.0000)
  26 Pt     9.853011    5.629833   14.577838    ( 0.0000,  0.0000,  0.0000)
  27 Ir    -0.057507    1.448881   16.874484    ( 0.0000,  0.0000,  0.0000)
  28 Pd     2.753729    1.523930   16.953456    ( 0.0000,  0.0000,  0.0000)
  29 Ag     5.550260    1.546344   16.914038    ( 0.0000,  0.0000,  0.0000)
  30 Pd     1.414497    3.975837   16.924603    ( 0.0000,  0.0000,  0.0000)
  31 Pd     4.203330    4.031250   16.882619    ( 0.0000,  0.0000,  0.0000)
  32 Pd     7.004424    3.943465   16.760913    ( 0.0000,  0.0000,  0.0000)
  33 Ru     2.845091    6.490273   16.743854    ( 0.0000,  0.0000,  0.0000)
  34 Pd     5.638493    6.362303   16.866257    ( 0.0000,  0.0000,  0.0000)
  35 Ir     8.546753    6.332527   16.888852    ( 0.0000,  0.0000,  0.0000)
  36 Ir     0.051605    0.066758   18.990823    ( 0.0000,  0.0000,  0.0000)
  37 Pt     2.819323   -0.153630   19.108806    ( 0.0000,  0.0000,  0.0000)
  38 Ag     5.677027   -0.026297   19.403835    ( 0.0000,  0.0000,  0.0000)
  39 Pd     1.444441    2.374932   19.260816    ( 0.0000,  0.0000,  0.0000)
  40 Pd     4.299038    2.432084   19.220171    ( 0.0000,  0.0000,  0.0000)
  41 Ir     7.263478    2.436193   19.006041    ( 0.0000,  0.0000,  0.0000)
  42 Ag     2.873853    4.894710   19.299827    ( 0.0000,  0.0000,  0.0000)
  43 Ir     5.846167    4.722346   19.218926    ( 0.0000,  0.0000,  0.0000)
  44 Ir     8.389825    4.814383   18.968853    ( 0.0000,  0.0000,  0.0000)
  45 O      5.590024    4.782114   21.169411    ( 0.0000,  0.0000,  0.0000)
  46 H      6.178607    5.504844   21.506642    ( 0.0000,  0.0000,  0.0000)

Unit cell:
           periodic     x           y           z      points  spacing
  1. axis:    yes    8.465341    0.000000    0.000000    35     0.2095
  2. axis:    yes    4.232670    7.331200    0.000000    35     0.2095
  3. axis:    no     0.000000    0.000000   29.187217   135     0.2162

  Lengths:   8.465341   8.465341  29.187217
  Angles:   90.000000  90.000000  60.000000

Effective grid spacing dv^(1/3) = 0.2221

                     log10-error:    total        iterations:
           time      wfs    density  energy       fermi  poisson
iter:   1  22:50:22  -2.82   +inf  -240.463985    3             
iter:   2  22:51:35  -1.92  -2.15  -283.349509    4             
iter:   3  22:52:48  -2.24  -1.40  -239.638658    36            
iter:   4  22:54:02  -3.36  -2.46  -239.395203    3             
iter:   5  22:55:16  -4.38  -2.95  -239.383949    3             
iter:   6  22:56:29  -4.89  -3.02  -239.370684    2             
iter:   7  22:57:43  -5.06  -3.24  -239.366189    2             
iter:   8  22:58:57  -5.60  -3.44  -239.367305    2             
iter:   9  23:00:12  -5.58  -3.26  -239.366729    2             
iter:  10  23:01:26  -5.34  -3.45  -239.365009    2             
iter:  11  23:02:40  -5.80  -3.51  -239.364535    2             
iter:  12  23:03:54  -5.93  -3.72  -239.363511    2             
iter:  13  23:05:07  -6.52  -3.90  -239.363423    2             
iter:  14  23:06:21  -6.46  -4.00  -239.363471    2             
iter:  15  23:07:36  -6.46  -4.04  -239.363333    2             
iter:  16  23:08:50  -6.84  -3.81  -239.363529    2             
iter:  17  23:10:02  -6.87  -4.20  -239.363161    2             
iter:  18  23:11:16  -7.25  -4.30  -239.363278    2             
iter:  19  23:12:28  -7.55  -4.49  -239.363158    2             

Converged after 19 iterations.

Dipole moment: (21.034289, 10.943017, 0.024043) |e|*Ang

Energy contributions relative to reference atoms: (reference = -12877860.274276)

Kinetic:       -219.668995
Potential:      +95.534035
External:        +0.000000
XC:            -107.228079
Entropy (-ST):   -2.230131
Local:           -6.885054
--------------------------
Free energy:   -240.478223
Extrapolated:  -239.363158

Fermi level: 1.07371

Showing only first 2 kpts
 Kpt  Band  Eigenvalues  Occupancy
  0   360      1.07697    0.12296
  0   361      1.08419    0.11845
  0   362      1.12831    0.09170
  0   363      1.15384    0.07744

  1   360      0.98322    0.17799
  1   361      1.01099    0.16296
  1   362      1.02481    0.15497
  1   363      1.06247    0.13202



Forces in eV/Ang:
  0 Pd   -0.12144    0.32554   -0.36742
  1 Ir    0.95912    0.69137    0.59964
  2 Ru   -1.08430    0.28699    0.67484
  3 Ru    0.40873    0.27732    1.63672
  4 Ir   -0.56722   -0.79787    1.15025
  5 Pt    0.15898    0.15928    0.04937
  6 Pd   -0.49885   -0.41489   -0.24201
  7 Pd    0.38532   -0.26343   -0.57061
  8 Ru    0.34262   -0.13412    0.54932
  9 Ag   -0.23167   -0.14417    0.05653
 10 Ag   -0.03162   -0.16431    0.05854
 11 Ag    0.07289   -0.19890   -0.21616
 12 Pt    0.07523    0.71160   -0.64497
 13 Pt    0.15725    0.53483   -0.75582
 14 Pt   -0.10853    0.16517   -0.21633
 15 Ru   -0.33612   -0.75092   -0.97554
 16 Pt   -0.40296    0.11975   -0.03671
 17 Ir    0.86915   -0.17243   -1.02000
 18 Pt    0.00566   -0.00915    0.00579
 19 Ag   -0.00384   -0.01200   -0.00061
 20 Pd    0.00792    0.00833    0.00536
 21 Ag   -0.00250    0.00614    0.01756
 22 Ru    0.01315    0.00940   -0.00347
 23 Pd   -0.00651    0.00991    0.03208
 24 Ir    0.01918   -0.01510    0.00993
 25 Ir    0.01482   -0.01073    0.00015
 26 Pt    0.01687   -0.01866    0.00662
 27 Ir    0.01243   -0.01216   -0.03999
 28 Pd    0.00186    0.01709   -0.00325
 29 Ag    0.01567   -0.00109   -0.01767
 30 Pd    0.04026   -0.00366   -0.02241
 31 Pd    0.01644   -0.00264    0.03461
 32 Pd    0.00833   -0.02473    0.03617
 33 Ru    0.00637   -0.01924   -0.01817
 34 Pd    0.01251   -0.01614    0.01857
 35 Ir    0.00515    0.00106    0.00648
 36 Ir   -0.00598   -0.00262    0.01844
 37 Pt    0.01727    0.00689   -0.00248
 38 Ag    0.00412   -0.02870   -0.00764
 39 Pd    0.00749   -0.02333   -0.00033
 40 Pd   -0.00298   -0.02130    0.00315
 41 Ir   -0.01648   -0.01629    0.01793
 42 Ag   -0.00932   -0.03900   -0.00074
 43 Ir    0.00260   -0.03538    0.06647
 44 Ir   -0.05208   -0.02702    0.02299
 45 O    -0.01115    0.03741    0.07143
 46 H    -0.08131   -0.01219    0.03776

Timing:                                      incl.     excl.
-------------------------------------------------------------------
Density initialized from wave functions:    57.182    57.181   0.2% |
 Symmetrize density:                         0.001     0.001   0.0% |
Forces:                                    299.390   299.390   0.9% |
Hamiltonian:                                51.871     0.132   0.0% |
 Atomic:                                    13.963     7.095   0.0% |
  XC Correction:                             6.867     6.867   0.0% |
 Calculate atomic Hamiltonians:             17.809    17.809   0.1% |
 Communicate:                                0.774     0.774   0.0% |
 Initialize Hamiltonian:                     0.001     0.001   0.0% |
 Poisson:                                    0.101     0.101   0.0% |
 XC 3D grid:                                19.093    19.093   0.1% |
LCAO initialization:                        62.044     6.077   0.0% |
 LCAO eigensolver:                           7.097     0.002   0.0% |
  Calculate projections:                     0.093     0.093   0.0% |
  DenseAtomicCorrection:                     0.078     0.078   0.0% |
  Distribute overlap matrix:                 0.015     0.015   0.0% |
  Orbital Layouts:                           0.532     0.532   0.0% |
  Potential matrix:                          6.317     6.317   0.0% |
  Sum over cells:                            0.060     0.060   0.0% |
 LCAO to grid:                              46.279    46.279   0.1% |
 Set positions (LCAO WFS):                   2.591     0.736   0.0% |
  Basic WFS set positions:                   0.003     0.003   0.0% |
  Basis functions set positions:             0.001     0.001   0.0% |
  P tci:                                     0.824     0.824   0.0% |
  ST tci:                                    0.758     0.758   0.0% |
  mktci:                                     0.270     0.270   0.0% |
PWDescriptor:                                0.045     0.045   0.0% |
Redistribute:                                0.104     0.104   0.0% |
SCF-cycle:                               31413.753  2409.073   7.5% |--|
 Davidson:                               26247.844  6216.265  19.4% |-------|
  Apply H:                                3911.710  3799.385  11.9% |----|
   HMM T:                                  112.325   112.325   0.4% |
  Subspace diag:                          3743.335     0.128   0.0% |
   calc_h_matrix:                         2134.687   818.952   2.6% ||
    Apply H:                              1315.736  1277.724   4.0% |-|
     HMM T:                                 38.012    38.012   0.1% |
   diagonalize:                             63.766    63.766   0.2% |
   rotate_psi:                            1544.753  1544.753   4.8% |-|
  calc. matrices:                         8181.411  5565.747  17.4% |------|
   Apply H:                               2615.663  2540.245   7.9% |--|
    HMM T:                                  75.418    75.418   0.2% |
  diagonalize:                            1108.965  1108.965   3.5% ||
  rotate_psi:                             3086.158  3086.158   9.6% |---|
 Density:                                 1411.730     0.020   0.0% |
  Atomic density matrices:                   6.658     6.658   0.0% |
  Mix:                                     493.434   493.434   1.5% ||
  Multipole moments:                         0.582     0.582   0.0% |
  Pseudo density:                          911.035   911.013   2.8% ||
   Symmetrize density:                       0.022     0.022   0.0% |
 Hamiltonian:                             1233.311     3.093   0.0% |
  Atomic:                                  347.132   185.329   0.6% |
   XC Correction:                          161.803   161.803   0.5% |
  Calculate atomic Hamiltonians:           417.041   417.041   1.3% ||
  Communicate:                              17.179    17.179   0.1% |
  Poisson:                                   2.331     2.331   0.0% |
  XC 3D grid:                              446.535   446.535   1.4% ||
 Orthonormalize:                           111.795     0.007   0.0% |
  calc_s_matrix:                            16.945    16.945   0.1% |
  inverse-cholesky:                          1.233     1.233   0.0% |
  projections:                              61.286    61.286   0.2% |
  rotate_psi_s:                             32.323    32.323   0.1% |
Set symmetry:                                0.003     0.003   0.0% |
Other:                                     153.837   153.837   0.5% |
-------------------------------------------------------------------
Total:                                             32038.230 100.0%

Date: Thu Mar  3 23:12:46 2022
