
  ___ ___ ___ _ _ _  
 |   |   |_  | | | | 
 | | | | | . | | | | 
 |__ |  _|___|_____|  1.5.1
 |___|_|             

User:   clausen@node048.cluster
Date:   Fri Mar  4 01:02:27 2022
Arch:   x86_64
Pid:    54746
Python: 3.6.12
gpaw:   /software/kemi/gpaw/1.5.1/gpaw
_gpaw:  /software/kemi/gpaw/1.5.1/bin/gpaw-python
ase:    /software/kemi/ase/3.17.0/ase (version 3.17.0)
numpy:  /opt/rh/rh-python36/root/usr/lib64/python3.6/site-packages/numpy (version 1.13.1)
scipy:  /opt/rh/rh-python36/root/usr/lib64/python3.6/site-packages/scipy (version 0.19.1)
units:  Angstrom and eV
cores:  16

Input parameters:
  kpts: [4 4 1]
  mode: {ecut: 400.0,
         gammacentered: False,
         name: pw}
  xc: RPBE

System changes: positions, numbers, cell, pbc, initial_charges, initial_magmoms 

Initialize ...

Pd-setup:
  name: Palladium
  id: 6da19bfba079f22767af9506641940b9
  Z: 46
  valence: 16
  core: 30
  charge: 0.0
  file: /software/kemi/gpaw-setups/0.9.20000/Pd.RPBE.gz
  cutoffs: 1.19(comp), 2.38(filt), 2.28(core), lmax=2
  valence states:
                energy  radius
    5s(0.00)    -3.225   1.228
    4p(6.00)   -51.131   1.360
    5p(0.00)    -0.373   1.360
    4d(10.00)    -3.964   1.228
    *s          23.987   1.228
    *d          23.247   1.228

  Using partial waves for Pd as LCAO basis

Ag-setup:
  name: Silver
  id: c05e55bab2c3858b3f9398f6d75cb77c
  Z: 47
  valence: 17
  core: 30
  charge: 0.0
  file: /software/kemi/gpaw-setups/0.9.20000/Ag.RPBE.gz
  cutoffs: 1.25(comp), 2.35(filt), 2.19(core), lmax=2
  valence states:
                energy  radius
    5s(1.00)    -4.277   1.286
    4p(6.00)   -58.523   1.328
    5p(0.00)    -0.755   1.328
    4d(10.00)    -7.386   1.180
    *s          22.934   1.286
    *d          19.826   1.180

  Using partial waves for Ag as LCAO basis

Pt-setup:
  name: Platinum
  id: f04f522592575c47ad794f6b4a415b4b
  Z: 78
  valence: 16
  core: 62
  charge: 0.0
  file: /software/kemi/gpaw-setups/0.9.20000/Pt.RPBE.gz
  cutoffs: 1.29(comp), 2.26(filt), 2.26(core), lmax=2
  valence states:
                energy  radius
    6s(1.00)    -5.516   1.307
    5p(6.00)   -55.971   1.371
    6p(0.00)    -0.856   1.371
    5d(9.00)    -6.087   1.307
    *s          21.695   1.307
    *d          21.125   1.307

  Using partial waves for Pt as LCAO basis

Ru-setup:
  name: Ruthenium
  id: 76477906e28f51dc1b29884d53556fe9
  Z: 44
  valence: 16
  core: 28
  charge: 0.0
  file: /software/kemi/gpaw-setups/0.9.20000/Ru.RPBE.gz
  cutoffs: 1.23(comp), 2.16(filt), 1.30(core), lmax=2
  valence states:
                energy  radius
    4s(2.00)   -76.255   1.281
    5s(1.00)    -4.126   1.281
    4p(6.00)   -46.371   1.286
    5p(0.00)    -0.913   1.286
    4d(7.00)    -5.146   1.254
    *d          22.066   1.254

  Using partial waves for Ru as LCAO basis

O-setup:
  name: Oxygen
  id: 08071ca1eed670e7821b24b7eb4d558c
  Z: 8
  valence: 6
  core: 2
  charge: 0.0
  file: /software/kemi/gpaw-setups/0.9.20000/O.RPBE.gz
  cutoffs: 0.67(comp), 1.17(filt), 0.83(core), lmax=2
  valence states:
                energy  radius
    2s(2.00)   -24.041   0.688
    2p(4.00)    -8.984   0.598
    *s           3.170   0.688
    *p          18.228   0.598
    *d           0.000   0.619

  Using partial waves for O as LCAO basis

Reference energy: -9073453.423555

Spin-paired calculation

Occupation numbers:
  Fermi-Dirac: width=0.1000 eV

Convergence criteria:
  Maximum total energy change: 0.0005 eV / electron
  Maximum integral of absolute density change: 0.0001 electrons
  Maximum integral of absolute eigenstate change: 4e-08 eV^2
  Maximum number of iterations: 333

Symmetries present (total): 1

  ( 1  0  0)
  ( 0  1  0)
  ( 0  0  1)

16 k-points: 4 x 4 x 1 Monkhorst-Pack grid
8 k-points in the irreducible part of the Brillouin zone
       k-points in crystal coordinates                weights
   0:     0.12500000   -0.37500000    0.00000000          2/16
   1:     0.12500000   -0.12500000    0.00000000          2/16
   2:     0.12500000    0.12500000    0.00000000          2/16
   3:     0.12500000    0.37500000    0.00000000          2/16
   4:     0.37500000   -0.37500000    0.00000000          2/16
   5:     0.37500000   -0.12500000    0.00000000          2/16
   6:     0.37500000    0.12500000    0.00000000          2/16
   7:     0.37500000    0.37500000    0.00000000          2/16

Wave functions: Plane wave expansion
  Cutoff energy: 400.000 eV
  Number of coefficients (min, max): 32266, 32339
  Pulay-stress correction: 0.000000 eV/Ang^3 (de/decut=0.000000)
  Using FFTW library
  ScaLapack parameters: grid=1x1, blocksize=None
  Wavefunction extrapolation:
    Improved wavefunction reuse through dual PAW basis 

Eigensolver
   Davidson(niter=2, smin=None, normalize=True) 

Densities:
  Coarse grid: 35*35*135 grid
  Fine grid: 70*70*270 grid
  Total Charge: 0.000000 

Density mixing:
  Method: separate
  Backend: pulay
  Linear mixing parameter: 0.05
  Mixing with 5 old densities
  Damping of long wave oscillations: 50 

Hamiltonian:
  XC and Coulomb potentials evaluated on a 70*70*270 grid
  Using the RPBE Exchange-Correlation functional
 

XC parameters: RPBE with 2 nearest neighbor stencil

Memory estimate:
  Process memory now: 148.75 MiB
  Calculator: 548.11 MiB
    Density: 48.38 MiB
      Arrays: 16.41 MiB
      Localized functions: 25.61 MiB
      Mixer: 6.36 MiB
    Hamiltonian: 11.51 MiB
      Arrays: 10.73 MiB
      XC: 0.00 MiB
      Poisson: 0.00 MiB
      vbar: 0.78 MiB
    Wavefunctions: 488.23 MiB
      Arrays psit_nG: 220.57 MiB
      Eigensolver: 253.54 MiB
      Projections: 2.81 MiB
      Projectors: 4.69 MiB
      PW-descriptor: 6.62 MiB

Total number of cores used: 16
Parallelization over k-points: 8
Domain decomposition: 1 x 1 x 2

Number of atoms: 46
Number of atomic orbitals: 551
Number of bands in calculation: 447
Bands to converge: occupied states only
Number of valence electrons: 738

... initialized

Initializing position-dependent things.

Density initialized from atomic densities
Creating initial wave functions:
  447 bands from LCAO basis set

                                             
                                             
                                             
                                             
                                             
                                             
                         Pd                  
                 Pt            Ru            
            Pt    APd    OPd    Ru           
                                             
        Pd    Ru     Pd    Pt                
                                             
        Pt     Pd    PPd    Pd     Ag        
                Ag     Ag     Ag             
                                             
           Ag    PAg    APt    Pd            
                                             
            Pd     Ru     Ag     Pd          
       Ag     Ru     Ru                      
             Pd     Pd     Pt                
        Pd     Ag     Pt                     
                                             
                                             
                                             
                                             
                                             

Positions:
   0 Pd     0.000000    1.633958   10.000000    ( 0.0000,  0.0000,  0.0000)
   1 Ag     2.830098    1.633958   10.000000    ( 0.0000,  0.0000,  0.0000)
   2 Pt     5.660196    1.633958   10.000000    ( 0.0000,  0.0000,  0.0000)
   3 Pd     1.415049    4.084895   10.000000    ( 0.0000,  0.0000,  0.0000)
   4 Pd     4.245147    4.084895   10.000000    ( 0.0000,  0.0000,  0.0000)
   5 Pt     7.075245    4.084895   10.000000    ( 0.0000,  0.0000,  0.0000)
   6 Pd     2.830098    6.535832   10.000000    ( 0.0000,  0.0000,  0.0000)
   7 Ag     5.660196    6.535832   10.000000    ( 0.0000,  0.0000,  0.0000)
   8 Pd     8.490294    6.535832   10.000000    ( 0.0000,  0.0000,  0.0000)
   9 Ag     0.000000    0.000000   12.310765    ( 0.0000,  0.0000,  0.0000)
  10 Ru     2.830098    0.000000   12.310765    ( 0.0000,  0.0000,  0.0000)
  11 Ru     5.660196    0.000000   12.310765    ( 0.0000,  0.0000,  0.0000)
  12 Pd     1.415049    2.450937   12.310765    ( 0.0000,  0.0000,  0.0000)
  13 Ru     4.245147    2.450937   12.310765    ( 0.0000,  0.0000,  0.0000)
  14 Ag     7.075245    2.450937   12.310765    ( 0.0000,  0.0000,  0.0000)
  15 Pd     2.830098    4.901874   12.310765    ( 0.0000,  0.0000,  0.0000)
  16 Ag     5.660196    4.901874   12.310765    ( 0.0000,  0.0000,  0.0000)
  17 Pd     8.490294    4.901874   12.310765    ( 0.0000,  0.0000,  0.0000)
  18 Ag     1.422839    0.836358   14.687202    ( 0.0000,  0.0000,  0.0000)
  19 Ag     4.228290    0.834029   14.668537    ( 0.0000,  0.0000,  0.0000)
  20 Pt     7.000876    0.833422   14.677349    ( 0.0000,  0.0000,  0.0000)
  21 Ag     2.849410    3.275055   14.697646    ( 0.0000,  0.0000,  0.0000)
  22 Ag     5.607020    3.276035   14.715763    ( 0.0000,  0.0000,  0.0000)
  23 Ag     8.407636    3.278571   14.701685    ( 0.0000,  0.0000,  0.0000)
  24 Pd     4.226650    5.664441   14.783889    ( 0.0000,  0.0000,  0.0000)
  25 Pd     7.021524    5.717496   14.695770    ( 0.0000,  0.0000,  0.0000)
  26 Ag     9.810161    5.688371   14.690489    ( 0.0000,  0.0000,  0.0000)
  27 Pt     0.030364    1.654579   17.054310    ( 0.0000,  0.0000,  0.0000)
  28 Pd     2.863636    1.668211   17.080253    ( 0.0000,  0.0000,  0.0000)
  29 Pd     5.584811    1.668389   17.077768    ( 0.0000,  0.0000,  0.0000)
  30 Pd     1.451673    4.084780   17.054426    ( 0.0000,  0.0000,  0.0000)
  31 Ru     4.287216    4.070209   17.299465    ( 0.0000,  0.0000,  0.0000)
  32 Pt     6.976254    4.091014   17.095978    ( 0.0000,  0.0000,  0.0000)
  33 Ag     2.791829    6.501265   17.070936    ( 0.0000,  0.0000,  0.0000)
  34 Pt     5.617052    6.449501   17.092744    ( 0.0000,  0.0000,  0.0000)
  35 Ru     8.289070    6.444709   17.186717    ( 0.0000,  0.0000,  0.0000)
  36 Pd     0.109969    0.038419   19.432145    ( 0.0000,  0.0000,  0.0000)
  37 Ru     2.913932   -0.060119   19.211827    ( 0.0000,  0.0000,  0.0000)
  38 Pd     5.607656    0.003198   19.432032    ( 0.0000,  0.0000,  0.0000)
  39 Pt     1.441354    2.458850   19.369405    ( 0.0000,  0.0000,  0.0000)
  40 Pd     4.211433    2.427374   19.463642    ( 0.0000,  0.0000,  0.0000)
  41 Pd     7.082631    2.483306   19.414916    ( 0.0000,  0.0000,  0.0000)
  42 Pt     2.814800    4.836018   19.384744    ( 0.0000,  0.0000,  0.0000)
  43 Pd     5.686541    4.887569   19.522731    ( 0.0000,  0.0000,  0.0000)
  44 Ru     8.428363    4.985817   19.203811    ( 0.0000,  0.0000,  0.0000)
  45 O      7.059918    0.841641   20.822731    ( 0.0000,  0.0000,  0.0000)

Unit cell:
           periodic     x           y           z      points  spacing
  1. axis:    yes    8.379498    0.000000    0.000000    35     0.2073
  2. axis:    yes    4.189749    7.256858    0.000000    35     0.2073
  3. axis:    no     0.000000    0.000000   29.243062   135     0.2166

  Lengths:   8.379498   8.379498  29.243062
  Angles:   90.000000  90.000000  60.000000

Effective grid spacing dv^(1/3) = 0.2207

                     log10-error:    total        iterations:
           time      wfs    density  energy       fermi  poisson
iter:   1  01:04:43  +0.49   +inf  -240.026289    2             
iter:   2  01:05:52  -1.05  -1.20  -211.702091    3             
iter:   3  01:06:57  -1.34  -1.31  -240.578019    36            
iter:   4  01:07:51  -1.28  -1.25  -252.819438    3             
iter:   5  01:08:44  -1.47  -1.23  -194.468506    35            
iter:   6  01:09:34  -1.86  -1.49  -188.029649    37            
iter:   7  01:10:36  -2.51  -1.61  -186.598104    4             
iter:   8  01:11:44  -2.62  -1.66  -184.651490    3             
iter:   9  01:12:51  -1.85  -1.74  -184.785266    3             
iter:  10  01:13:46  -2.77  -1.87  -182.305763    3             
iter:  11  01:14:41  -3.15  -2.08  -182.509394    2             
iter:  12  01:15:35  -3.22  -2.07  -182.584039    3             
iter:  13  01:16:30  -3.11  -2.10  -182.002478    3             
iter:  14  01:17:23  -3.48  -2.28  -181.895042    3             
iter:  15  01:18:18  -3.49  -2.38  -181.865940    3             
iter:  16  01:19:11  -3.66  -2.43  -181.733642    3             
iter:  17  01:20:03  -3.85  -2.55  -181.724384    3             
iter:  18  01:20:58  -4.21  -2.63  -181.694961    3             
iter:  19  01:21:49  -4.20  -2.68  -181.640974    2             
iter:  20  01:22:47  -4.42  -2.87  -181.627412    3             
iter:  21  01:23:55  -4.49  -2.94  -181.629824    2             
iter:  22  01:25:05  -5.06  -2.95  -181.626019    3             
iter:  23  01:26:15  -4.69  -3.00  -181.630601    3             
iter:  24  01:27:11  -5.40  -2.93  -181.623655    2             
iter:  25  01:28:06  -5.27  -3.05  -181.622091    2             
iter:  26  01:29:01  -5.17  -3.12  -181.622402    2             
iter:  27  01:30:06  -5.33  -3.09  -181.619700    2             
iter:  28  01:31:10  -5.35  -3.23  -181.621634    3             
iter:  29  01:32:14  -5.50  -3.30  -181.621171    2             
iter:  30  01:33:21  -5.81  -3.23  -181.617663    2             
iter:  31  01:34:28  -5.90  -3.41  -181.618959    2             
iter:  32  01:35:34  -6.27  -3.47  -181.617922    2             
iter:  33  01:36:39  -6.10  -3.49  -181.617656    2             
iter:  34  01:37:45  -5.49  -3.59  -181.621005    2             
iter:  35  01:38:36  -6.22  -3.48  -181.617529    2             
iter:  36  01:39:28  -6.52  -3.74  -181.616716    2             
iter:  37  01:40:15  -6.39  -3.80  -181.617938    2             
iter:  38  01:41:08  -6.65  -3.77  -181.617402    2             
iter:  39  01:42:03  -6.80  -3.92  -181.617258    2             
iter:  40  01:43:09  -7.01  -3.98  -181.617374    2             
iter:  41  01:44:16  -7.12  -3.96  -181.617079    2             
iter:  42  01:45:24  -6.61  -4.17  -181.616556    2             
iter:  43  01:46:31  -7.25  -4.08  -181.617047    2             
iter:  44  01:47:40  -7.57  -4.21  -181.617055    2             

Converged after 44 iterations.

Dipole moment: (24.260324, 21.059065, -0.371272) |e|*Ang

Energy contributions relative to reference atoms: (reference = -9073453.423555)

Kinetic:       -184.228287
Potential:      +37.493325
External:        +0.000000
XC:             -29.510389
Entropy (-ST):   -2.039217
Local:           -4.352095
--------------------------
Free energy:   -182.636663
Extrapolated:  -181.617055

Fermi level: 0.75320

Showing only first 2 kpts
 Kpt  Band  Eigenvalues  Occupancy
  0   367      0.74476    0.13027
  0   368      0.76042    0.12049
  0   369      0.79826    0.09731
  0   370      0.83580    0.07612

  1   367      0.65423    0.18226
  1   368      0.68016    0.16872
  1   369      0.70900    0.15219
  1   370      0.71341    0.14955



Forces in eV/Ang:
  0 Pd    0.09397    0.51388   -0.42486
  1 Ag    0.10710    0.49218   -0.51115
  2 Pt   -0.22667    0.51639    0.81847
  3 Pd    0.09762    0.02788   -0.08461
  4 Pd    0.11620   -0.37708    0.20536
  5 Pt   -0.13865   -0.29373   -0.09272
  6 Pd   -0.16967   -0.38831   -0.05093
  7 Ag   -0.12551   -0.45803   -0.70845
  8 Pd   -0.25125   -0.30712    0.26827
  9 Ag    0.51298    0.22013    0.43314
 10 Ru    2.21680    1.29621    0.41052
 11 Ru   -1.86294    0.87516   -0.33897
 12 Pd    1.12035   -0.23944   -0.00038
 13 Ru   -0.54250   -1.48723   -0.87987
 14 Ag   -0.44129    0.12449    0.28217
 15 Pd    0.18758   -0.58307    0.07605
 16 Ag   -0.18683   -0.38234    0.34447
 17 Pd   -0.36564    0.54050   -0.02240
 18 Ag   -0.02688   -0.00064    0.00811
 19 Ag   -0.01562   -0.00724    0.02185
 20 Pt    0.01868   -0.02084   -0.01871
 21 Ag    0.00710    0.01044    0.01109
 22 Ag    0.01195   -0.00925    0.00177
 23 Ag   -0.01317   -0.00343    0.03289
 24 Pd    0.02265    0.02237    0.03042
 25 Pd    0.05912    0.05437   -0.00621
 26 Ag   -0.00627   -0.00751    0.02876
 27 Pt    0.06547    0.01277   -0.22278
 28 Pd   -0.01942   -0.00700    0.03828
 29 Pd   -0.02532   -0.04641   -0.17496
 30 Pd    0.00550   -0.03002    0.04059
 31 Ru    0.00037   -0.00260    0.00879
 32 Pt    0.02973   -0.05009    0.25468
 33 Ag   -0.02445    0.03678   -0.08500
 34 Pt   -0.01984    0.05385    0.17648
 35 Ru    0.08745    0.04030   -0.04639
 36 Pd   -0.07307   -0.02430    0.53171
 37 Ru   -0.18874    0.06819   -0.01506
 38 Pd    0.13136    0.10222    0.79890
 39 Pt    0.32064    0.18291   -0.01243
 40 Pd   -0.19297    0.03057   -0.04232
 41 Pd   -0.10170   -0.11677    0.62704
 42 Pt   -0.08120   -0.27547   -0.12143
 43 Pd    0.00849    0.04177   -0.02980
 44 Ru   -0.04647   -0.16770   -0.03013
 45 O    -0.05449    0.04702   -1.60195

System changes: positions 

Initializing position-dependent things.

Density initialized from wave functions
                                             
                                             
                                             
                                             
                                             
                                             
                         Pd                  
                 Pt            Ru            
             Pt   APd    OPd    Ru           
                                             
        Pd    Ru     Pd    Pt                
        Pt     Pd     Pd                     
                     Pd     Pd     Ag        
                Ag     Ag     Ag             
                                             
           Ag    PAg    APt    Pd            
                                             
            Pd     Ru     Ag     Pd          
       Ag    PRu    PRu    Pt                
                                             
        Pd     Ag     Pt                     
                                             
                                             
                                             
                                             
                                             

Positions:
   0 Pd     0.000000    1.633958   10.000000    ( 0.0000,  0.0000,  0.0000)
   1 Ag     2.830098    1.633958   10.000000    ( 0.0000,  0.0000,  0.0000)
   2 Pt     5.660196    1.633958   10.000000    ( 0.0000,  0.0000,  0.0000)
   3 Pd     1.415049    4.084895   10.000000    ( 0.0000,  0.0000,  0.0000)
   4 Pd     4.245147    4.084895   10.000000    ( 0.0000,  0.0000,  0.0000)
   5 Pt     7.075245    4.084895   10.000000    ( 0.0000,  0.0000,  0.0000)
   6 Pd     2.830098    6.535832   10.000000    ( 0.0000,  0.0000,  0.0000)
   7 Ag     5.660196    6.535832   10.000000    ( 0.0000,  0.0000,  0.0000)
   8 Pd     8.490294    6.535832   10.000000    ( 0.0000,  0.0000,  0.0000)
   9 Ag     0.000000    0.000000   12.310765    ( 0.0000,  0.0000,  0.0000)
  10 Ru     2.830098    0.000000   12.310765    ( 0.0000,  0.0000,  0.0000)
  11 Ru     5.660196    0.000000   12.310765    ( 0.0000,  0.0000,  0.0000)
  12 Pd     1.415049    2.450937   12.310765    ( 0.0000,  0.0000,  0.0000)
  13 Ru     4.245147    2.450937   12.310765    ( 0.0000,  0.0000,  0.0000)
  14 Ag     7.075245    2.450937   12.310765    ( 0.0000,  0.0000,  0.0000)
  15 Pd     2.830098    4.901874   12.310765    ( 0.0000,  0.0000,  0.0000)
  16 Ag     5.660196    4.901874   12.310765    ( 0.0000,  0.0000,  0.0000)
  17 Pd     8.490294    4.901874   12.310765    ( 0.0000,  0.0000,  0.0000)
  18 Ag     1.420151    0.836294   14.688013    ( 0.0000,  0.0000,  0.0000)
  19 Ag     4.226729    0.833304   14.670722    ( 0.0000,  0.0000,  0.0000)
  20 Pt     7.002744    0.831338   14.675478    ( 0.0000,  0.0000,  0.0000)
  21 Ag     2.850120    3.276099   14.698755    ( 0.0000,  0.0000,  0.0000)
  22 Ag     5.608215    3.275110   14.715940    ( 0.0000,  0.0000,  0.0000)
  23 Ag     8.406319    3.278228   14.704974    ( 0.0000,  0.0000,  0.0000)
  24 Pd     4.228915    5.666678   14.786932    ( 0.0000,  0.0000,  0.0000)
  25 Pd     7.027436    5.722933   14.695149    ( 0.0000,  0.0000,  0.0000)
  26 Ag     9.809535    5.687620   14.693365    ( 0.0000,  0.0000,  0.0000)
  27 Pt     0.036911    1.655856   17.032032    ( 0.0000,  0.0000,  0.0000)
  28 Pd     2.861694    1.667511   17.084081    ( 0.0000,  0.0000,  0.0000)
  29 Pd     5.582278    1.663748   17.060273    ( 0.0000,  0.0000,  0.0000)
  30 Pd     1.452223    4.081778   17.058485    ( 0.0000,  0.0000,  0.0000)
  31 Ru     4.287253    4.069949   17.300344    ( 0.0000,  0.0000,  0.0000)
  32 Pt     6.979227    4.086005   17.121447    ( 0.0000,  0.0000,  0.0000)
  33 Ag     2.789385    6.504942   17.062436    ( 0.0000,  0.0000,  0.0000)
  34 Pt     5.615068    6.454886   17.110391    ( 0.0000,  0.0000,  0.0000)
  35 Ru     8.297816    6.448739   17.182078    ( 0.0000,  0.0000,  0.0000)
  36 Pd     0.102661    0.035989   19.485316    ( 0.0000,  0.0000,  0.0000)
  37 Ru     2.895058   -0.053300   19.210321    ( 0.0000,  0.0000,  0.0000)
  38 Pd     5.620792    0.013420   19.511922    ( 0.0000,  0.0000,  0.0000)
  39 Pt     1.473418    2.477141   19.368162    ( 0.0000,  0.0000,  0.0000)
  40 Pd     4.192136    2.430431   19.459409    ( 0.0000,  0.0000,  0.0000)
  41 Pd     7.072461    2.471629   19.477619    ( 0.0000,  0.0000,  0.0000)
  42 Pt     2.806680    4.808471   19.372601    ( 0.0000,  0.0000,  0.0000)
  43 Pd     5.687390    4.891746   19.519751    ( 0.0000,  0.0000,  0.0000)
  44 Ru     8.423716    4.969047   19.200799    ( 0.0000,  0.0000,  0.0000)
  45 O      7.054469    0.846343   20.662537    ( 0.0000,  0.0000,  0.0000)

Unit cell:
           periodic     x           y           z      points  spacing
  1. axis:    yes    8.379498    0.000000    0.000000    35     0.2073
  2. axis:    yes    4.189749    7.256858    0.000000    35     0.2073
  3. axis:    no     0.000000    0.000000   29.243062   135     0.2166

  Lengths:   8.379498   8.379498  29.243062
  Angles:   90.000000  90.000000  60.000000

Effective grid spacing dv^(1/3) = 0.2207

                     log10-error:    total        iterations:
           time      wfs    density  energy       fermi  poisson
iter:   1  01:49:20  -1.96   +inf  -184.379608    4             
iter:   2  01:50:28  -2.03  -2.13  -193.275963    37            
iter:   3  01:51:31  -1.89  -1.71  -209.123607    35            
iter:   4  01:52:37  -2.60  -1.57  -183.246019    37            
iter:   5  01:53:43  -3.38  -2.18  -182.396994    3             
iter:   6  01:54:50  -3.67  -2.35  -181.855719    3             
iter:   7  01:55:42  -4.00  -2.77  -181.789514    3             
iter:   8  01:56:34  -4.46  -2.94  -181.785347    3             
iter:   9  01:57:25  -4.33  -2.96  -181.814874    2             
iter:  10  01:58:12  -4.29  -2.72  -181.758934    2             
iter:  11  01:58:58  -4.41  -3.19  -181.748482    3             
iter:  12  01:59:53  -4.79  -3.33  -181.748636    3             
iter:  13  02:00:59  -5.36  -3.41  -181.745590    2             
iter:  14  02:02:11  -5.78  -3.52  -181.747330    2             
iter:  15  02:03:22  -6.15  -3.50  -181.745963    2             
iter:  16  02:04:31  -6.00  -3.55  -181.746677    2             
iter:  17  02:05:39  -6.05  -3.55  -181.745503    2             
iter:  18  02:06:48  -6.34  -3.75  -181.747038    2             
iter:  19  02:07:58  -5.94  -3.60  -181.745258    2             
iter:  20  02:09:00  -6.17  -3.93  -181.746553    2             
iter:  21  02:09:55  -5.98  -3.74  -181.746840    2             
iter:  22  02:10:46  -6.33  -3.53  -181.745370    2             
iter:  23  02:11:38  -6.89  -4.16  -181.745125    2             
iter:  24  02:12:30  -6.94  -4.13  -181.745665    2             
iter:  25  02:13:20  -6.89  -4.09  -181.745073    2             
iter:  26  02:14:12  -7.32  -4.19  -181.745243    2             
iter:  27  02:15:08  -7.15  -4.42  -181.745196    2             
iter:  28  02:16:08  -7.34  -4.36  -181.745187    2             
iter:  29  02:17:01  -7.09  -4.38  -181.745195    2             
iter:  30  02:17:57  -7.69  -4.69  -181.745364    2             

Converged after 30 iterations.

Dipole moment: (23.143972, 20.534296, -0.254978) |e|*Ang

Energy contributions relative to reference atoms: (reference = -9073453.423555)

Kinetic:       -174.181760
Potential:      +28.465640
External:        +0.000000
XC:             -30.666650
Entropy (-ST):   -2.021543
Local:           -4.351823
--------------------------
Free energy:   -182.756135
Extrapolated:  -181.745364

Fermi level: 0.81540

Showing only first 2 kpts
 Kpt  Band  Eigenvalues  Occupancy
  0   367      0.79870    0.13541
  0   368      0.83266    0.11424
  0   369      0.86829    0.09269
  0   370      0.90559    0.07216

  1   367      0.72444    0.17822
  1   368      0.73754    0.17134
  1   369      0.76680    0.15479
  1   370      0.77512    0.14984



Forces in eV/Ang:
  0 Pd    0.10145    0.50950   -0.41998
  1 Ag    0.10335    0.49206   -0.51079
  2 Pt   -0.23046    0.51480    0.83060
  3 Pd    0.10417    0.02754   -0.07900
  4 Pd    0.10827   -0.37362    0.20396
  5 Pt   -0.13785   -0.29012   -0.08254
  6 Pd   -0.16689   -0.39385   -0.05075
  7 Ag   -0.12700   -0.45584   -0.71065
  8 Pd   -0.25261   -0.30618    0.27009
  9 Ag    0.51901    0.21518    0.42477
 10 Ru    2.21184    1.29945    0.41330
 11 Ru   -1.86837    0.86739   -0.33270
 12 Pd    1.11584   -0.23838    0.00213
 13 Ru   -0.54339   -1.48595   -0.88053
 14 Ag   -0.43353    0.13353    0.28629
 15 Pd    0.18621   -0.58229    0.08278
 16 Ag   -0.18484   -0.38182    0.36317
 17 Pd   -0.36013    0.53268   -0.01146
 18 Ag    0.03158   -0.00651   -0.02965
 19 Ag   -0.01093    0.01972   -0.00649
 20 Pt   -0.00901   -0.00745   -0.07564
 21 Ag    0.00704    0.00441    0.01291
 22 Ag    0.02698    0.04236    0.00869
 23 Ag   -0.01969    0.04831   -0.00724
 24 Pd    0.04793   -0.01304    0.02442
 25 Pd   -0.00554   -0.00984    0.04137
 26 Ag    0.01031   -0.01887    0.00783
 27 Pt   -0.01354    0.01126    0.08456
 28 Pd    0.01023   -0.02537   -0.06534
 29 Pd    0.01279   -0.04843    0.04158
 30 Pd   -0.02701    0.01425   -0.09433
 31 Ru    0.07221    0.00972   -0.08686
 32 Pt   -0.03351   -0.08544    0.12918
 33 Ag   -0.03287    0.03435    0.14449
 34 Pt   -0.03791    0.00566    0.10515
 35 Ru   -0.04137   -0.01203    0.18805
 36 Pd    0.63668   -0.36043   -0.30062
 37 Ru    0.05623    0.04335   -0.04814
 38 Pd   -0.71960   -0.45500   -0.16584
 39 Pt   -0.10168   -0.08606    0.00025
 40 Pd    0.02893   -0.07845   -0.01669
 41 Pd    0.00866    0.74932   -0.28880
 42 Pt   -0.04289    0.08488   -0.01419
 43 Pd   -0.01342   -0.00188    0.01534
 44 Ru    0.06708    0.06680   -0.02493
 45 O    -0.05687    0.02637    0.54745

System changes: positions 

Initializing position-dependent things.

Density initialized from wave functions
                                             
                                             
                                             
                                             
                                             
                                             
                         Pd                  
                 Pt            Ru            
             Pt   APd    OPd    Ru           
                                             
        Pd    Ru     Pd    Pt                
        Pt     Pd     Pd                     
                     Pd     Pd     Ag        
                Ag     Ag     Ag             
                                             
           Ag    PAg    APt    Pd            
                                             
            Pd     Ru     Ag     Pd          
       Ag    PRu    PRu    Pt                
                                             
        Pd     Ag     Pt                     
                                             
                                             
                                             
                                             
                                             

Positions:
   0 Pd     0.000000    1.633958   10.000000    ( 0.0000,  0.0000,  0.0000)
   1 Ag     2.830098    1.633958   10.000000    ( 0.0000,  0.0000,  0.0000)
   2 Pt     5.660196    1.633958   10.000000    ( 0.0000,  0.0000,  0.0000)
   3 Pd     1.415049    4.084895   10.000000    ( 0.0000,  0.0000,  0.0000)
   4 Pd     4.245147    4.084895   10.000000    ( 0.0000,  0.0000,  0.0000)
   5 Pt     7.075245    4.084895   10.000000    ( 0.0000,  0.0000,  0.0000)
   6 Pd     2.830098    6.535832   10.000000    ( 0.0000,  0.0000,  0.0000)
   7 Ag     5.660196    6.535832   10.000000    ( 0.0000,  0.0000,  0.0000)
   8 Pd     8.490294    6.535832   10.000000    ( 0.0000,  0.0000,  0.0000)
   9 Ag     0.000000    0.000000   12.310765    ( 0.0000,  0.0000,  0.0000)
  10 Ru     2.830098    0.000000   12.310765    ( 0.0000,  0.0000,  0.0000)
  11 Ru     5.660196    0.000000   12.310765    ( 0.0000,  0.0000,  0.0000)
  12 Pd     1.415049    2.450937   12.310765    ( 0.0000,  0.0000,  0.0000)
  13 Ru     4.245147    2.450937   12.310765    ( 0.0000,  0.0000,  0.0000)
  14 Ag     7.075245    2.450937   12.310765    ( 0.0000,  0.0000,  0.0000)
  15 Pd     2.830098    4.901874   12.310765    ( 0.0000,  0.0000,  0.0000)
  16 Ag     5.660196    4.901874   12.310765    ( 0.0000,  0.0000,  0.0000)
  17 Pd     8.490294    4.901874   12.310765    ( 0.0000,  0.0000,  0.0000)
  18 Ag     1.421850    0.835808   14.686039    ( 0.0000,  0.0000,  0.0000)
  19 Ag     4.225591    0.834576   14.670733    ( 0.0000,  0.0000,  0.0000)
  20 Pt     7.002501    0.830338   14.669576    ( 0.0000,  0.0000,  0.0000)
  21 Ag     2.850787    3.276649   14.699937    ( 0.0000,  0.0000,  0.0000)
  22 Ag     5.610436    3.277981   14.716610    ( 0.0000,  0.0000,  0.0000)
  23 Ag     8.404599    3.281660   14.705173    ( 0.0000,  0.0000,  0.0000)
  24 Pd     4.232894    5.666224   14.789375    ( 0.0000,  0.0000,  0.0000)
  25 Pd     7.028337    5.723416   14.698015    ( 0.0000,  0.0000,  0.0000)
  26 Ag     9.810145    5.686085   14.694568    ( 0.0000,  0.0000,  0.0000)
  27 Pt     0.037370    1.656954   17.033261    ( 0.0000,  0.0000,  0.0000)
  28 Pd     2.862008    1.665515   17.080182    ( 0.0000,  0.0000,  0.0000)
  29 Pd     5.582649    1.659210   17.059436    ( 0.0000,  0.0000,  0.0000)
  30 Pd     1.450384    4.082151   17.052532    ( 0.0000,  0.0000,  0.0000)
  31 Ru     4.292503    4.070597   17.294232    ( 0.0000,  0.0000,  0.0000)
  32 Pt     6.977450    4.078699   17.136435    ( 0.0000,  0.0000,  0.0000)
  33 Ag     2.786461    6.508246   17.071051    ( 0.0000,  0.0000,  0.0000)
  34 Pt     5.611880    6.456484   17.121912    ( 0.0000,  0.0000,  0.0000)
  35 Ru     8.296739    6.448754   17.194706    ( 0.0000,  0.0000,  0.0000)
  36 Pd     0.147266    0.009291   19.475211    ( 0.0000,  0.0000,  0.0000)
  37 Ru     2.894981   -0.048650   19.206495    ( 0.0000,  0.0000,  0.0000)
  38 Pd     5.571452   -0.017355   19.517486    ( 0.0000,  0.0000,  0.0000)
  39 Pt     1.473103    2.474924   19.367906    ( 0.0000,  0.0000,  0.0000)
  40 Pd     4.189984    2.425409   19.457265    ( 0.0000,  0.0000,  0.0000)
  41 Pd     7.070849    2.523447   19.470472    ( 0.0000,  0.0000,  0.0000)
  42 Pt     2.801778    4.808562   19.368895    ( 0.0000,  0.0000,  0.0000)
  43 Pd     5.686603    4.892531   19.520208    ( 0.0000,  0.0000,  0.0000)
  44 Ru     8.427561    4.970201   19.198325    ( 0.0000,  0.0000,  0.0000)
  45 O      7.049140    0.849294   20.666979    ( 0.0000,  0.0000,  0.0000)

Unit cell:
           periodic     x           y           z      points  spacing
  1. axis:    yes    8.379498    0.000000    0.000000    35     0.2073
  2. axis:    yes    4.189749    7.256858    0.000000    35     0.2073
  3. axis:    no     0.000000    0.000000   29.243062   135     0.2166

  Lengths:   8.379498   8.379498  29.243062
  Angles:   90.000000  90.000000  60.000000

Effective grid spacing dv^(1/3) = 0.2207

                     log10-error:    total        iterations:
           time      wfs    density  energy       fermi  poisson
iter:   1  02:19:29  -2.29   +inf  -182.461142    3             
iter:   2  02:20:38  -2.58  -2.38  -188.948589    4             
iter:   3  02:21:47  -2.73  -1.79  -183.674885    3             
iter:   4  02:22:57  -3.51  -2.08  -181.929660    3             
iter:   5  02:24:00  -3.90  -2.74  -182.035575    3             
iter:   6  02:24:57  -4.39  -2.50  -181.826500    3             
iter:   7  02:25:55  -4.83  -3.18  -181.827483    3             
iter:   8  02:26:53  -5.21  -3.08  -181.819617    3             
iter:   9  02:27:45  -4.98  -3.30  -181.815637    2             
iter:  10  02:28:37  -4.96  -3.43  -181.815741    2             
iter:  11  02:29:30  -5.43  -3.45  -181.812408    2             
iter:  12  02:30:24  -5.74  -3.66  -181.819723    2             
iter:  13  02:31:16  -5.91  -3.33  -181.813438    2             
iter:  14  02:32:05  -6.24  -3.78  -181.812585    2             
iter:  15  02:33:00  -6.02  -3.82  -181.812945    2             
iter:  16  02:33:55  -6.58  -3.86  -181.812539    2             
iter:  17  02:34:49  -6.25  -3.98  -181.812696    2             
iter:  18  02:36:01  -5.96  -3.96  -181.818105    2             
iter:  19  02:37:11  -6.38  -3.41  -181.812988    2             
iter:  20  02:38:21  -6.98  -4.28  -181.812577    2             
iter:  21  02:39:31  -7.17  -4.11  -181.813033    2             
iter:  22  02:40:37  -7.29  -4.39  -181.812684    2             
iter:  23  02:41:34  -7.50  -4.44  -181.812905    2             

Converged after 23 iterations.

Dipole moment: (22.358232, 22.867989, -0.282941) |e|*Ang

Energy contributions relative to reference atoms: (reference = -9073453.423555)

Kinetic:       -175.644226
Potential:      +29.642894
External:        +0.000000
XC:             -30.451281
Entropy (-ST):   -2.021633
Local:           -4.349477
--------------------------
Free energy:   -182.823722
Extrapolated:  -181.812905

Fermi level: 0.79998

Showing only first 2 kpts
 Kpt  Band  Eigenvalues  Occupancy
  0   367      0.78585    0.13382
  0   368      0.81926    0.11299
  0   369      0.84915    0.09487
  0   370      0.89285    0.07080

  1   367      0.71129    0.17706
  1   368      0.72471    0.16994
  1   369      0.75460    0.15289
  1   370      0.76193    0.14850



Forces in eV/Ang:
  0 Pd    0.10003    0.51016   -0.42279
  1 Ag    0.10299    0.49335   -0.51302
  2 Pt   -0.22871    0.51495    0.82634
  3 Pd    0.10442    0.02893   -0.08262
  4 Pd    0.10802   -0.37231    0.20155
  5 Pt   -0.13650   -0.29094   -0.08396
  6 Pd   -0.16721   -0.39452   -0.05342
  7 Ag   -0.12747   -0.45654   -0.71094
  8 Pd   -0.25220   -0.30901    0.26709
  9 Ag    0.52394    0.21031    0.41721
 10 Ru    2.21294    1.29531    0.40771
 11 Ru   -1.87094    0.86291   -0.33013
 12 Pd    1.11481   -0.23438    0.00538
 13 Ru   -0.54202   -1.48079   -0.87859
 14 Ag   -0.43171    0.13970    0.27936
 15 Pd    0.18678   -0.58165    0.08647
 16 Ag   -0.18259   -0.37882    0.36061
 17 Pd   -0.35973    0.53632   -0.01524
 18 Ag    0.00515    0.00573   -0.01153
 19 Ag    0.01047    0.00834   -0.01240
 20 Pt   -0.00149   -0.00884   -0.03557
 21 Ag    0.01089    0.00511   -0.00281
 22 Ag    0.02034    0.01107    0.01076
 23 Ag   -0.01219    0.01259   -0.00566
 24 Pd    0.00794    0.00486    0.03811
 25 Pd   -0.00883   -0.00743    0.07586
 26 Ag    0.02053    0.01208    0.00481
 27 Pt   -0.01438   -0.00381    0.08856
 28 Pd    0.00199    0.00745   -0.06044
 29 Pd    0.01095   -0.03563    0.06293
 30 Pd   -0.00672    0.00411   -0.06024
 31 Ru    0.01282    0.00562   -0.03938
 32 Pt   -0.02967    0.00275   -0.00930
 33 Ag   -0.01964    0.02273    0.10948
 34 Pt    0.00856   -0.04781   -0.04193
 35 Ru   -0.01786   -0.01738    0.00141
 36 Pd   -0.07761    0.11821    0.04970
 37 Ru   -0.05449    0.07446    0.03181
 38 Pd   -0.00458    0.00320    0.09455
 39 Pt   -0.12507   -0.09230   -0.03263
 40 Pd    0.06278   -0.04794   -0.03285
 41 Pd    0.06130   -0.04169    0.02284
 42 Pt    0.00722    0.08109   -0.02768
 43 Pd   -0.01940   -0.01930    0.05238
 44 Ru    0.02410   -0.11464    0.02135
 45 O    -0.04554   -0.00090   -0.22806

System changes: positions 

Initializing position-dependent things.

Density initialized from wave functions
                                            
                                            
                                            
                                            
                                            
                                            
                 Pt     Pd     Ru           
            Pt     Pd    OPd                
                  Ag     Pt    Ru           
       Pd    PRu    RPd    Pt               
                                            
        Pt     Pd    PPd    Pd    Ag        
                                            
                Ag     Ag     Ag            
           Ag     Ag     Pt                 
                 Pd     Ag     Pd           
            Pd     Ru     Ag                
                  Pd     Ag     Pd          
       Ag    PRu    PRu    Pt               
        Pd     Ag     Pt                    
                                            
                                            
                                            
                                            
                                            

Positions:
   0 Pd     0.000000    1.633958   10.000000    ( 0.0000,  0.0000,  0.0000)
   1 Ag     2.830098    1.633958   10.000000    ( 0.0000,  0.0000,  0.0000)
   2 Pt     5.660196    1.633958   10.000000    ( 0.0000,  0.0000,  0.0000)
   3 Pd     1.415049    4.084895   10.000000    ( 0.0000,  0.0000,  0.0000)
   4 Pd     4.245147    4.084895   10.000000    ( 0.0000,  0.0000,  0.0000)
   5 Pt     7.075245    4.084895   10.000000    ( 0.0000,  0.0000,  0.0000)
   6 Pd     2.830098    6.535832   10.000000    ( 0.0000,  0.0000,  0.0000)
   7 Ag     5.660196    6.535832   10.000000    ( 0.0000,  0.0000,  0.0000)
   8 Pd     8.490294    6.535832   10.000000    ( 0.0000,  0.0000,  0.0000)
   9 Ag     0.000000    0.000000   12.310765    ( 0.0000,  0.0000,  0.0000)
  10 Ru     2.830098    0.000000   12.310765    ( 0.0000,  0.0000,  0.0000)
  11 Ru     5.660196    0.000000   12.310765    ( 0.0000,  0.0000,  0.0000)
  12 Pd     1.415049    2.450937   12.310765    ( 0.0000,  0.0000,  0.0000)
  13 Ru     4.245147    2.450937   12.310765    ( 0.0000,  0.0000,  0.0000)
  14 Ag     7.075245    2.450937   12.310765    ( 0.0000,  0.0000,  0.0000)
  15 Pd     2.830098    4.901874   12.310765    ( 0.0000,  0.0000,  0.0000)
  16 Ag     5.660196    4.901874   12.310765    ( 0.0000,  0.0000,  0.0000)
  17 Pd     8.490294    4.901874   12.310765    ( 0.0000,  0.0000,  0.0000)
  18 Ag     1.422712    0.836258   14.684531    ( 0.0000,  0.0000,  0.0000)
  19 Ag     4.226378    0.835637   14.669527    ( 0.0000,  0.0000,  0.0000)
  20 Pt     7.002291    0.829312   14.665004    ( 0.0000,  0.0000,  0.0000)
  21 Ag     2.851955    3.277238   14.699895    ( 0.0000,  0.0000,  0.0000)
  22 Ag     5.612817    3.279628   14.717772    ( 0.0000,  0.0000,  0.0000)
  23 Ag     8.403100    3.283559   14.704639    ( 0.0000,  0.0000,  0.0000)
  24 Pd     4.234432    5.666574   14.793480    ( 0.0000,  0.0000,  0.0000)
  25 Pd     7.027614    5.722749   14.705852    ( 0.0000,  0.0000,  0.0000)
  26 Ag     9.812237    5.686938   14.695241    ( 0.0000,  0.0000,  0.0000)
  27 Pt     0.036022    1.656798   17.042200    ( 0.0000,  0.0000,  0.0000)
  28 Pd     2.862281    1.665832   17.073579    ( 0.0000,  0.0000,  0.0000)
  29 Pd     5.583796    1.654936   17.065460    ( 0.0000,  0.0000,  0.0000)
  30 Pd     1.449366    4.082649   17.045532    ( 0.0000,  0.0000,  0.0000)
  31 Ru     4.294787    4.071268   17.289226    ( 0.0000,  0.0000,  0.0000)
  32 Pt     6.974225    4.077539   17.138311    ( 0.0000,  0.0000,  0.0000)
  33 Ag     2.784018    6.511048   17.083340    ( 0.0000,  0.0000,  0.0000)
  34 Pt     5.612075    6.452181   17.120049    ( 0.0000,  0.0000,  0.0000)
  35 Ru     8.294727    6.447055   17.197434    ( 0.0000,  0.0000,  0.0000)
  36 Pd     0.148912    0.015235   19.477390    ( 0.0000,  0.0000,  0.0000)
  37 Ru     2.889945   -0.040663   19.208779    ( 0.0000,  0.0000,  0.0000)
  38 Pd     5.560936   -0.023356   19.526843    ( 0.0000,  0.0000,  0.0000)
  39 Pt     1.460759    2.465470   19.364747    ( 0.0000,  0.0000,  0.0000)
  40 Pd     4.195747    2.419783   19.453734    ( 0.0000,  0.0000,  0.0000)
  41 Pd     7.076486    2.530026   19.470583    ( 0.0000,  0.0000,  0.0000)
  42 Pt     2.801562    4.816610   19.365624    ( 0.0000,  0.0000,  0.0000)
  43 Pd     5.684581    4.890802   19.525338    ( 0.0000,  0.0000,  0.0000)
  44 Ru     8.430687    4.959642   19.199898    ( 0.0000,  0.0000,  0.0000)
  45 O      7.043767    0.849755   20.647683    ( 0.0000,  0.0000,  0.0000)

Unit cell:
           periodic     x           y           z      points  spacing
  1. axis:    yes    8.379498    0.000000    0.000000    35     0.2073
  2. axis:    yes    4.189749    7.256858    0.000000    35     0.2073
  3. axis:    no     0.000000    0.000000   29.243062   135     0.2166

  Lengths:   8.379498   8.379498  29.243062
  Angles:   90.000000  90.000000  60.000000

Effective grid spacing dv^(1/3) = 0.2207

                     log10-error:    total        iterations:
           time      wfs    density  energy       fermi  poisson
iter:   1  02:42:57  -3.09   +inf  -181.891971    3             
iter:   2  02:43:53  -3.83  -2.91  -181.871588    3             
iter:   3  02:44:49  -3.90  -2.92  -182.373245    3             
iter:   4  02:46:01  -4.14  -2.32  -181.837553    2             
iter:   5  02:47:13  -5.02  -3.05  -181.832470    3             
iter:   6  02:48:20  -5.34  -3.24  -181.824065    2             
iter:   7  02:49:30  -5.72  -3.42  -181.823544    2             
iter:   8  02:50:39  -5.69  -3.56  -181.822995    2             
iter:   9  02:51:47  -5.50  -3.61  -181.822653    2             
iter:  10  02:52:44  -6.18  -3.98  -181.822842    2             
iter:  11  02:53:37  -6.79  -4.05  -181.822574    2             
iter:  12  02:54:30  -6.76  -3.96  -181.822942    2             
iter:  13  02:55:18  -6.80  -3.96  -181.823135    2             
iter:  14  02:56:14  -6.71  -4.03  -181.822658    2             
iter:  15  02:57:11  -7.23  -4.38  -181.822620    2             
iter:  16  02:58:09  -7.41  -4.52  -181.822764    2             

Converged after 16 iterations.

Dipole moment: (22.648507, 22.464398, -0.274397) |e|*Ang

Energy contributions relative to reference atoms: (reference = -9073453.423555)

Kinetic:       -175.545762
Potential:      +29.547641
External:        +0.000000
XC:             -30.474293
Entropy (-ST):   -2.021879
Local:           -4.339410
--------------------------
Free energy:   -182.833704
Extrapolated:  -181.822764

Fermi level: 0.80470

Showing only first 2 kpts
 Kpt  Band  Eigenvalues  Occupancy
  0   367      0.79057    0.13382
  0   368      0.82571    0.11192
  0   369      0.85339    0.09516
  0   370      0.89920    0.06997

  1   367      0.71590    0.17712
  1   368      0.72920    0.17007
  1   369      0.76014    0.15240
  1   370      0.76706    0.14826



Forces in eV/Ang:
  0 Pd    0.09914    0.50943   -0.41784
  1 Ag    0.10302    0.49267   -0.50943
  2 Pt   -0.22824    0.51404    0.83183
  3 Pd    0.10380    0.02773   -0.07813
  4 Pd    0.10765   -0.37353    0.20397
  5 Pt   -0.13582   -0.29166   -0.08053
  6 Pd   -0.16738   -0.39264   -0.04773
  7 Ag   -0.12670   -0.45506   -0.70939
  8 Pd   -0.25377   -0.30837    0.26987
  9 Ag    0.52603    0.20547    0.41114
 10 Ru    2.21669    1.29227    0.40825
 11 Ru   -1.87128    0.86177   -0.33548
 12 Pd    1.11565   -0.23288    0.00186
 13 Ru   -0.53947   -1.47844   -0.87646
 14 Ag   -0.43361    0.14084    0.27342
 15 Pd    0.18967   -0.58093    0.09010
 16 Ag   -0.18205   -0.37570    0.37445
 17 Pd   -0.36022    0.54331   -0.00805
 18 Ag   -0.01792    0.00975    0.00942
 19 Ag    0.01673   -0.00172   -0.00250
 20 Pt    0.01027    0.00165    0.03000
 21 Ag    0.01725    0.00867   -0.01566
 22 Ag    0.00153   -0.01692    0.00825
 23 Ag   -0.00263   -0.01696    0.00868
 24 Pd   -0.01519    0.01093    0.03032
 25 Pd    0.01089    0.00926    0.03814
 26 Ag    0.00952    0.01967    0.00945
 27 Pt   -0.02036   -0.02252   -0.01388
 28 Pd    0.00112    0.00592   -0.01533
 29 Pd    0.01152   -0.02060    0.02878
 30 Pd    0.00845   -0.00161    0.00151
 31 Ru   -0.03124   -0.01054    0.00757
 32 Pt    0.00188   -0.00542   -0.01463
 33 Ag   -0.00001    0.02606    0.03611
 34 Pt    0.00021    0.00534    0.00073
 35 Ru   -0.02607   -0.01823    0.05531
 36 Pd   -0.04929    0.00180   -0.00435
 37 Ru   -0.03617    0.01696   -0.03580
 38 Pd   -0.02284    0.00106    0.02903
 39 Pt    0.08206    0.04744   -0.04240
 40 Pd   -0.03177    0.02214   -0.05515
 41 Pd   -0.02645   -0.02979   -0.00132
 42 Pt   -0.00244   -0.07237   -0.03457
 43 Pd   -0.03116    0.01236    0.01822
 44 Ru    0.00871   -0.05207   -0.02667
 45 O    -0.06968    0.00467   -0.01887

System changes: positions 

Initializing position-dependent things.

Density initialized from wave functions
                                            
                                            
                                            
                                            
                                            
                                            
                 Pt     Pd     Ru           
            Pt     Pd    OPd                
                  Ag     Pt    Ru           
       Pd    PRu    RPd    Pt               
                                            
        Pt     Pd    PPd    Pd    Ag        
                                            
                Ag     Ag     Ag            
           Ag     Ag     Pt                 
                 Pd     Ag     Pd           
            Pd     Ru     Ag                
                  Pd     Ag     Pd          
       Ag    PRu    PRu    Pt               
        Pd     Ag     Pt                    
                                            
                                            
                                            
                                            
                                            

Positions:
   0 Pd     0.000000    1.633958   10.000000    ( 0.0000,  0.0000,  0.0000)
   1 Ag     2.830098    1.633958   10.000000    ( 0.0000,  0.0000,  0.0000)
   2 Pt     5.660196    1.633958   10.000000    ( 0.0000,  0.0000,  0.0000)
   3 Pd     1.415049    4.084895   10.000000    ( 0.0000,  0.0000,  0.0000)
   4 Pd     4.245147    4.084895   10.000000    ( 0.0000,  0.0000,  0.0000)
   5 Pt     7.075245    4.084895   10.000000    ( 0.0000,  0.0000,  0.0000)
   6 Pd     2.830098    6.535832   10.000000    ( 0.0000,  0.0000,  0.0000)
   7 Ag     5.660196    6.535832   10.000000    ( 0.0000,  0.0000,  0.0000)
   8 Pd     8.490294    6.535832   10.000000    ( 0.0000,  0.0000,  0.0000)
   9 Ag     0.000000    0.000000   12.310765    ( 0.0000,  0.0000,  0.0000)
  10 Ru     2.830098    0.000000   12.310765    ( 0.0000,  0.0000,  0.0000)
  11 Ru     5.660196    0.000000   12.310765    ( 0.0000,  0.0000,  0.0000)
  12 Pd     1.415049    2.450937   12.310765    ( 0.0000,  0.0000,  0.0000)
  13 Ru     4.245147    2.450937   12.310765    ( 0.0000,  0.0000,  0.0000)
  14 Ag     7.075245    2.450937   12.310765    ( 0.0000,  0.0000,  0.0000)
  15 Pd     2.830098    4.901874   12.310765    ( 0.0000,  0.0000,  0.0000)
  16 Ag     5.660196    4.901874   12.310765    ( 0.0000,  0.0000,  0.0000)
  17 Pd     8.490294    4.901874   12.310765    ( 0.0000,  0.0000,  0.0000)
  18 Ag     1.421177    0.837413   14.684950    ( 0.0000,  0.0000,  0.0000)
  19 Ag     4.228356    0.835856   14.668865    ( 0.0000,  0.0000,  0.0000)
  20 Pt     7.003292    0.829111   14.666432    ( 0.0000,  0.0000,  0.0000)
  21 Ag     2.854180    3.278364   14.698277    ( 0.0000,  0.0000,  0.0000)
  22 Ag     5.613845    3.278501   14.719049    ( 0.0000,  0.0000,  0.0000)
  23 Ag     8.402264    3.282531   14.705381    ( 0.0000,  0.0000,  0.0000)
  24 Pd     4.233491    5.667820   14.798114    ( 0.0000,  0.0000,  0.0000)
  25 Pd     7.028552    5.723517   14.712555    ( 0.0000,  0.0000,  0.0000)
  26 Ag     9.813951    5.689231   14.696500    ( 0.0000,  0.0000,  0.0000)
  27 Pt     0.033446    1.654417   17.043748    ( 0.0000,  0.0000,  0.0000)
  28 Pd     2.862503    1.666483   17.069639    ( 0.0000,  0.0000,  0.0000)
  29 Pd     5.585403    1.651191   17.070456    ( 0.0000,  0.0000,  0.0000)
  30 Pd     1.449848    4.082661   17.043154    ( 0.0000,  0.0000,  0.0000)
  31 Ru     4.292452    4.070404   17.288139    ( 0.0000,  0.0000,  0.0000)
  32 Pt     6.973291    4.076308   17.137944    ( 0.0000,  0.0000,  0.0000)
  33 Ag     2.783103    6.514838   17.091525    ( 0.0000,  0.0000,  0.0000)
  34 Pt     5.612039    6.451386   17.119943    ( 0.0000,  0.0000,  0.0000)
  35 Ru     8.291270    6.444573   17.204650    ( 0.0000,  0.0000,  0.0000)
  36 Pd     0.146009    0.016340   19.477197    ( 0.0000,  0.0000,  0.0000)
  37 Ru     2.884500   -0.036080   19.205614    ( 0.0000,  0.0000,  0.0000)
  38 Pd     5.553138   -0.026426   19.533105    ( 0.0000,  0.0000,  0.0000)
  39 Pt     1.465295    2.467251   19.359236    ( 0.0000,  0.0000,  0.0000)
  40 Pd     4.194232    2.420066   19.446689    ( 0.0000,  0.0000,  0.0000)
  41 Pd     7.075502    2.531083   19.470135    ( 0.0000,  0.0000,  0.0000)
  42 Pt     2.801052    4.811669   19.360778    ( 0.0000,  0.0000,  0.0000)
  43 Pd     5.680605    4.891561   19.528963    ( 0.0000,  0.0000,  0.0000)
  44 Ru     8.432787    4.950753   19.197514    ( 0.0000,  0.0000,  0.0000)
  45 O      7.034463    0.850509   20.639700    ( 0.0000,  0.0000,  0.0000)

Unit cell:
           periodic     x           y           z      points  spacing
  1. axis:    yes    8.379498    0.000000    0.000000    35     0.2073
  2. axis:    yes    4.189749    7.256858    0.000000    35     0.2073
  3. axis:    no     0.000000    0.000000   29.243062   135     0.2166

  Lengths:   8.379498   8.379498  29.243062
  Angles:   90.000000  90.000000  60.000000

Effective grid spacing dv^(1/3) = 0.2207

                     log10-error:    total        iterations:
           time      wfs    density  energy       fermi  poisson
iter:   1  02:59:48  -3.44   +inf  -181.876196    2             
iter:   2  03:00:56  -3.34  -2.84  -184.424285    3             
iter:   3  03:02:07  -3.59  -2.00  -181.842367    2             
iter:   4  03:03:18  -4.60  -3.29  -181.833750    3             
iter:   5  03:04:29  -5.51  -3.23  -181.832341    2             
iter:   6  03:05:37  -5.90  -3.43  -181.829637    2             
iter:   7  03:06:42  -5.76  -3.57  -181.827224    2             
iter:   8  03:07:51  -5.93  -3.82  -181.827576    2             
iter:   9  03:09:00  -6.44  -3.95  -181.827481    2             
iter:  10  03:10:09  -6.48  -4.09  -181.827802    2             
iter:  11  03:11:17  -6.81  -4.17  -181.827470    2             
iter:  12  03:12:15  -6.91  -3.98  -181.827937    2             
iter:  13  03:13:08  -7.02  -4.22  -181.827405    2             
iter:  14  03:13:54  -7.19  -4.25  -181.827920    2             
iter:  15  03:14:38  -7.64  -4.43  -181.827611    2             

Converged after 15 iterations.

Dipole moment: (22.388581, 22.361781, -0.269094) |e|*Ang

Energy contributions relative to reference atoms: (reference = -9073453.423555)

Kinetic:       -174.393532
Potential:      +28.554242
External:        +0.000000
XC:             -30.641940
Entropy (-ST):   -2.020708
Local:           -4.336027
--------------------------
Free energy:   -182.837965
Extrapolated:  -181.827611

Fermi level: 0.80654

Showing only first 2 kpts
 Kpt  Band  Eigenvalues  Occupancy
  0   367      0.79270    0.13364
  0   368      0.82837    0.11141
  0   369      0.85373    0.09604
  0   370      0.90228    0.06935

  1   367      0.71665    0.17768
  1   368      0.73183    0.16964
  1   369      0.76241    0.15214
  1   370      0.76974    0.14774



Forces in eV/Ang:
  0 Pd    0.10048    0.51090   -0.42418
  1 Ag    0.10397    0.49301   -0.51031
  2 Pt   -0.22950    0.51330    0.82424
  3 Pd    0.10410    0.02855   -0.08117
  4 Pd    0.10686   -0.37357    0.20167
  5 Pt   -0.13438   -0.29002   -0.08454
  6 Pd   -0.16827   -0.39422   -0.05384
  7 Ag   -0.12635   -0.45615   -0.71075
  8 Pd   -0.25254   -0.30913    0.27008
  9 Ag    0.52827    0.20112    0.41609
 10 Ru    2.21362    1.28666    0.41434
 11 Ru   -1.87269    0.85577   -0.33788
 12 Pd    1.11548   -0.23098    0.00204
 13 Ru   -0.53868   -1.47665   -0.88402
 14 Ag   -0.43336    0.14286    0.27466
 15 Pd    0.18810   -0.57695    0.08599
 16 Ag   -0.17756   -0.36993    0.38842
 17 Pd   -0.36177    0.54753    0.00255
 18 Ag    0.00696    0.00177    0.00028
 19 Ag   -0.00219   -0.00912    0.00426
 20 Pt    0.00608   -0.00313    0.02118
 21 Ag   -0.00581    0.00268   -0.01931
 22 Ag   -0.00171   -0.00409    0.00123
 23 Ag    0.01724    0.00346    0.00019
 24 Pd   -0.00253    0.00632    0.00954
 25 Pd    0.00657    0.00817    0.00017
 26 Ag   -0.00654   -0.00014    0.01009
 27 Pt    0.01432    0.00845   -0.03294
 28 Pd    0.00022   -0.01407   -0.04491
 29 Pd   -0.01948    0.00225   -0.01078
 30 Pd   -0.00645    0.00613   -0.04540
 31 Ru    0.00921    0.00349   -0.02437
 32 Pt   -0.01605   -0.00784   -0.00935
 33 Ag   -0.01303   -0.01752   -0.00814
 34 Pt   -0.02169   -0.00156   -0.00549
 35 Ru    0.01257   -0.00473   -0.00599
 36 Pd   -0.03939    0.00577    0.01637
 37 Ru   -0.02580    0.00029    0.01525
 38 Pd   -0.04059   -0.02828    0.00871
 39 Pt    0.00224   -0.01445   -0.00221
 40 Pd    0.01176   -0.00604   -0.00900
 41 Pd   -0.01508   -0.00665   -0.00254
 42 Pt    0.00555    0.01189    0.01645
 43 Pd    0.00033    0.01211   -0.00000
 44 Ru   -0.01665   -0.01523    0.00678
 45 O    -0.06050   -0.01176    0.02775

Timing:                                      incl.     excl.
-------------------------------------------------------------------
Density initialized from wave functions:    12.393    12.392   0.2% |
 Symmetrize density:                         0.000     0.000   0.0% |
Forces:                                     72.938    72.938   0.9% |
Hamiltonian:                                10.776     0.053   0.0% |
 Atomic:                                     2.369     1.240   0.0% |
  XC Correction:                             1.128     1.128   0.0% |
 Calculate atomic Hamiltonians:              3.917     3.917   0.0% |
 Communicate:                                0.472     0.472   0.0% |
 Initialize Hamiltonian:                     0.000     0.000   0.0% |
 Poisson:                                    0.027     0.027   0.0% |
 XC 3D grid:                                 3.938     3.938   0.0% |
LCAO initialization:                        62.725     2.421   0.0% |
 LCAO eigensolver:                           5.306     0.002   0.0% |
  Calculate projections:                     0.025     0.025   0.0% |
  DenseAtomicCorrection:                     0.045     0.045   0.0% |
  Distribute overlap matrix:                 0.378     0.378   0.0% |
  Orbital Layouts:                           0.487     0.487   0.0% |
  Potential matrix:                          4.331     4.331   0.1% |
  Sum over cells:                            0.037     0.037   0.0% |
 LCAO to grid:                              53.442    53.442   0.7% |
 Set positions (LCAO WFS):                   1.556     0.604   0.0% |
  Basic WFS set positions:                   0.002     0.002   0.0% |
  Basis functions set positions:             0.000     0.000   0.0% |
  P tci:                                     0.370     0.370   0.0% |
  ST tci:                                    0.432     0.432   0.0% |
  mktci:                                     0.147     0.147   0.0% |
PWDescriptor:                                0.031     0.031   0.0% |
Redistribute:                                0.031     0.031   0.0% |
SCF-cycle:                                7749.916   391.087   4.9% |-|
 Davidson:                                6747.216  1615.631  20.3% |-------|
  Apply H:                                1156.239  1119.170  14.1% |-----|
   HMM T:                                   37.069    37.069   0.5% |
  Subspace diag:                           973.542     0.042   0.0% |
   calc_h_matrix:                          560.147   170.198   2.1% ||
    Apply H:                               389.949   376.914   4.7% |-|
     HMM T:                                 13.036    13.036   0.2% |
   diagonalize:                             33.690    33.690   0.4% |
   rotate_psi:                             379.664   379.664   4.8% |-|
  calc. matrices:                         1960.850  1207.632  15.2% |-----|
   Apply H:                                753.218   728.599   9.2% |---|
    HMM T:                                  24.619    24.619   0.3% |
  diagonalize:                             320.412   320.412   4.0% |-|
  rotate_psi:                              720.542   720.542   9.1% |---|
 Density:                                  329.721     0.008   0.0% |
  Atomic density matrices:                   2.196     2.196   0.0% |
  Mix:                                     122.757   122.757   1.5% ||
  Multipole moments:                         0.132     0.132   0.0% |
  Pseudo density:                          204.629   204.620   2.6% ||
   Symmetrize density:                       0.008     0.008   0.0% |
 Hamiltonian:                              255.229     1.358   0.0% |
  Atomic:                                   55.625    28.009   0.4% |
   XC Correction:                           27.615    27.615   0.3% |
  Calculate atomic Hamiltonians:            93.880    93.880   1.2% |
  Communicate:                               5.500     5.500   0.1% |
  Poisson:                                   0.685     0.685   0.0% |
  XC 3D grid:                               98.182    98.182   1.2% |
 Orthonormalize:                            26.663     0.003   0.0% |
  calc_s_matrix:                             3.539     3.539   0.0% |
  inverse-cholesky:                          0.810     0.810   0.0% |
  projections:                              14.057    14.057   0.2% |
  rotate_psi_s:                              8.253     8.253   0.1% |
Set symmetry:                                0.001     0.001   0.0% |
Other:                                      33.112    33.112   0.4% |
-------------------------------------------------------------------
Total:                                              7941.922 100.0%

Date: Fri Mar  4 03:14:49 2022
