
  ___ ___ ___ _ _ _  
 |   |   |_  | | | | 
 | | | | | . | | | | 
 |__ |  _|___|_____|  1.5.1
 |___|_|             

User:   clausen@node046.cluster
Date:   Thu Mar  3 19:45:22 2022
Arch:   x86_64
Pid:    32125
Python: 3.6.12
gpaw:   /software/kemi/gpaw/1.5.1/gpaw
_gpaw:  /software/kemi/gpaw/1.5.1/bin/gpaw-python
ase:    /software/kemi/ase/3.17.0/ase (version 3.17.0)
numpy:  /opt/rh/rh-python36/root/usr/lib64/python3.6/site-packages/numpy (version 1.13.1)
scipy:  /opt/rh/rh-python36/root/usr/lib64/python3.6/site-packages/scipy (version 0.19.1)
units:  Angstrom and eV
cores:  16

Input parameters:
  kpts: [4 4 1]
  mode: {ecut: 400.0,
         gammacentered: False,
         name: pw}
  xc: RPBE

System changes: positions, numbers, cell, pbc, initial_charges, initial_magmoms 

Initialize ...

Ag-setup:
  name: Silver
  id: c05e55bab2c3858b3f9398f6d75cb77c
  Z: 47
  valence: 17
  core: 30
  charge: 0.0
  file: /software/kemi/gpaw-setups/0.9.20000/Ag.RPBE.gz
  cutoffs: 1.25(comp), 2.35(filt), 2.19(core), lmax=2
  valence states:
                energy  radius
    5s(1.00)    -4.277   1.286
    4p(6.00)   -58.523   1.328
    5p(0.00)    -0.755   1.328
    4d(10.00)    -7.386   1.180
    *s          22.934   1.286
    *d          19.826   1.180

  Using partial waves for Ag as LCAO basis

Ir-setup:
  name: Iridium
  id: 73b603359d1d5397a85ae3c2440f9033
  Z: 77
  valence: 15
  core: 62
  charge: 0.0
  file: /software/kemi/gpaw-setups/0.9.20000/Ir.RPBE.gz
  cutoffs: 1.26(comp), 2.40(filt), 2.36(core), lmax=2
  valence states:
                energy  radius
    6s(2.00)    -6.219   1.296
    5p(6.00)   -54.684   1.328
    6p(0.00)    -1.215   1.328
    5d(7.00)    -7.118   1.286
    *s          20.992   1.296
    *d          20.093   1.286

  Using partial waves for Ir as LCAO basis

Pt-setup:
  name: Platinum
  id: f04f522592575c47ad794f6b4a415b4b
  Z: 78
  valence: 16
  core: 62
  charge: 0.0
  file: /software/kemi/gpaw-setups/0.9.20000/Pt.RPBE.gz
  cutoffs: 1.29(comp), 2.26(filt), 2.26(core), lmax=2
  valence states:
                energy  radius
    6s(1.00)    -5.516   1.307
    5p(6.00)   -55.971   1.371
    6p(0.00)    -0.856   1.371
    5d(9.00)    -6.087   1.307
    *s          21.695   1.307
    *d          21.125   1.307

  Using partial waves for Pt as LCAO basis

Ru-setup:
  name: Ruthenium
  id: 76477906e28f51dc1b29884d53556fe9
  Z: 44
  valence: 16
  core: 28
  charge: 0.0
  file: /software/kemi/gpaw-setups/0.9.20000/Ru.RPBE.gz
  cutoffs: 1.23(comp), 2.16(filt), 1.30(core), lmax=2
  valence states:
                energy  radius
    4s(2.00)   -76.255   1.281
    5s(1.00)    -4.126   1.281
    4p(6.00)   -46.371   1.286
    5p(0.00)    -0.913   1.286
    4d(7.00)    -5.146   1.254
    *d          22.066   1.254

  Using partial waves for Ru as LCAO basis

O-setup:
  name: Oxygen
  id: 08071ca1eed670e7821b24b7eb4d558c
  Z: 8
  valence: 6
  core: 2
  charge: 0.0
  file: /software/kemi/gpaw-setups/0.9.20000/O.RPBE.gz
  cutoffs: 0.67(comp), 1.17(filt), 0.83(core), lmax=2
  valence states:
                energy  radius
    2s(2.00)   -24.041   0.688
    2p(4.00)    -8.984   0.598
    *s           3.170   0.688
    *p          18.228   0.598
    *d           0.000   0.619

  Using partial waves for O as LCAO basis

H-setup:
  name: Hydrogen
  id: ea3f9156a1dc40d47a60fdce8f8bd75d
  Z: 1
  valence: 1
  core: 0
  charge: 0.0
  file: /software/kemi/gpaw-setups/0.9.20000/H.RPBE.gz
  cutoffs: 0.48(comp), 0.85(filt), 0.53(core), lmax=2
  valence states:
                energy  radius
    1s(1.00)    -6.572   0.476
    *s          20.639   0.476
    *p           0.000   0.476

  Using partial waves for H as LCAO basis

Reference energy: -16429291.423757

Spin-paired calculation

Occupation numbers:
  Fermi-Dirac: width=0.1000 eV

Convergence criteria:
  Maximum total energy change: 0.0005 eV / electron
  Maximum integral of absolute density change: 0.0001 electrons
  Maximum integral of absolute eigenstate change: 4e-08 eV^2
  Maximum number of iterations: 333

Symmetries present (total): 1

  ( 1  0  0)
  ( 0  1  0)
  ( 0  0  1)

16 k-points: 4 x 4 x 1 Monkhorst-Pack grid
8 k-points in the irreducible part of the Brillouin zone
       k-points in crystal coordinates                weights
   0:     0.12500000   -0.37500000    0.00000000          2/16
   1:     0.12500000   -0.12500000    0.00000000          2/16
   2:     0.12500000    0.12500000    0.00000000          2/16
   3:     0.12500000    0.37500000    0.00000000          2/16
   4:     0.37500000   -0.37500000    0.00000000          2/16
   5:     0.37500000   -0.12500000    0.00000000          2/16
   6:     0.37500000    0.12500000    0.00000000          2/16
   7:     0.37500000    0.37500000    0.00000000          2/16

Wave functions: Plane wave expansion
  Cutoff energy: 400.000 eV
  Number of coefficients (min, max): 32722, 32776
  Pulay-stress correction: 0.000000 eV/Ang^3 (de/decut=0.000000)
  Using FFTW library
  ScaLapack parameters: grid=1x1, blocksize=None
  Wavefunction extrapolation:
    Improved wavefunction reuse through dual PAW basis 

Eigensolver
   Davidson(niter=2, smin=None, normalize=True) 

Densities:
  Coarse grid: 35*35*135 grid
  Fine grid: 70*70*270 grid
  Total Charge: 0.000000 

Density mixing:
  Method: separate
  Backend: pulay
  Linear mixing parameter: 0.05
  Mixing with 5 old densities
  Damping of long wave oscillations: 50 

Hamiltonian:
  XC and Coulomb potentials evaluated on a 70*70*270 grid
  Using the RPBE Exchange-Correlation functional
 

XC parameters: RPBE with 2 nearest neighbor stencil

Memory estimate:
  Process memory now: 149.31 MiB
  Calculator: 545.08 MiB
    Density: 51.32 MiB
      Arrays: 16.41 MiB
      Localized functions: 28.56 MiB
      Mixer: 6.36 MiB
    Hamiltonian: 11.63 MiB
      Arrays: 10.73 MiB
      XC: 0.00 MiB
      Poisson: 0.00 MiB
      vbar: 0.90 MiB
    Wavefunctions: 482.13 MiB
      Arrays psit_nG: 218.05 MiB
      Eigensolver: 249.57 MiB
      Projections: 2.75 MiB
      Projectors: 5.13 MiB
      PW-descriptor: 6.62 MiB

Total number of cores used: 16
Parallelization over k-points: 8
Domain decomposition: 1 x 1 x 2

Number of atoms: 47
Number of atomic orbitals: 548
Number of bands in calculation: 436
Bands to converge: occupied states only
Number of valence electrons: 719

... initialized

Initializing position-dependent things.

Density initialized from atomic densities
Creating initial wave functions:
  436 bands from LCAO basis set

                                             
                                             
                                             
                                             
                                             
                                             
                            H                
                          O                  
                               Ag            
                  Ir    Ir                   
            Ag    AIr     Pt    Ru           
                                             
       Ir    IIr    IPt    Pt                
         Ru    Ir     Ir                     
                     Pt     Ag     Ir        
                Ag     Ag     Ag             
                                             
           Ir    PPt    RPt    Ir            
                                             
            Ir    IAg    AAg    Pt           
       Ag    IIr    IIr    Ir                
                                             
        Ag     Ag     Ir                     
                                             
                                             
                                             
                                             
                                             

Positions:
   0 Ag     0.000000    1.621936   10.000000    ( 0.0000,  0.0000,  0.0000)
   1 Ag     2.809275    1.621936   10.000000    ( 0.0000,  0.0000,  0.0000)
   2 Ir     5.618550    1.621936   10.000000    ( 0.0000,  0.0000,  0.0000)
   3 Ir     1.404638    4.054840   10.000000    ( 0.0000,  0.0000,  0.0000)
   4 Ir     4.213913    4.054840   10.000000    ( 0.0000,  0.0000,  0.0000)
   5 Ir     7.023188    4.054840   10.000000    ( 0.0000,  0.0000,  0.0000)
   6 Ir     2.809275    6.487743   10.000000    ( 0.0000,  0.0000,  0.0000)
   7 Ag     5.618550    6.487743   10.000000    ( 0.0000,  0.0000,  0.0000)
   8 Pt     8.427826    6.487743   10.000000    ( 0.0000,  0.0000,  0.0000)
   9 Ag     0.000000    0.000000   12.293764    ( 0.0000,  0.0000,  0.0000)
  10 Ir     2.809275    0.000000   12.293764    ( 0.0000,  0.0000,  0.0000)
  11 Ir     5.618550    0.000000   12.293764    ( 0.0000,  0.0000,  0.0000)
  12 Ir     1.404638    2.432904   12.293764    ( 0.0000,  0.0000,  0.0000)
  13 Ag     4.213913    2.432904   12.293764    ( 0.0000,  0.0000,  0.0000)
  14 Ag     7.023188    2.432904   12.293764    ( 0.0000,  0.0000,  0.0000)
  15 Pt     2.809275    4.865807   12.293764    ( 0.0000,  0.0000,  0.0000)
  16 Ru     5.618550    4.865807   12.293764    ( 0.0000,  0.0000,  0.0000)
  17 Ir     8.427826    4.865807   12.293764    ( 0.0000,  0.0000,  0.0000)
  18 Ir     1.441638    0.791118   14.593247    ( 0.0000,  0.0000,  0.0000)
  19 Pt     4.193480    0.729862   14.611205    ( 0.0000,  0.0000,  0.0000)
  20 Pt     7.034823    0.803600   14.634811    ( 0.0000,  0.0000,  0.0000)
  21 Ag     2.789574    3.267050   14.608106    ( 0.0000,  0.0000,  0.0000)
  22 Ag     5.614143    3.230616   14.629701    ( 0.0000,  0.0000,  0.0000)
  23 Ag     8.464759    3.239382   14.607930    ( 0.0000,  0.0000,  0.0000)
  24 Pt     4.237230    5.675263   14.599690    ( 0.0000,  0.0000,  0.0000)
  25 Ag     7.020289    5.624637   14.588938    ( 0.0000,  0.0000,  0.0000)
  26 Ir     9.810296    5.749034   14.534386    ( 0.0000,  0.0000,  0.0000)
  27 Ru     0.088724    1.655821   16.925664    ( 0.0000,  0.0000,  0.0000)
  28 Ir     2.745717    1.627778   16.875164    ( 0.0000,  0.0000,  0.0000)
  29 Ir     5.551846    1.597836   16.889230    ( 0.0000,  0.0000,  0.0000)
  30 Ir     1.358794    4.007324   17.013226    ( 0.0000,  0.0000,  0.0000)
  31 Ir     4.198339    3.977911   16.957702    ( 0.0000,  0.0000,  0.0000)
  32 Pt     7.125382    4.056246   16.998429    ( 0.0000,  0.0000,  0.0000)
  33 Ag     2.759687    6.474835   16.802442    ( 0.0000,  0.0000,  0.0000)
  34 Ir     5.663661    6.563267   16.864024    ( 0.0000,  0.0000,  0.0000)
  35 Ru     8.399575    6.483077   16.866623    ( 0.0000,  0.0000,  0.0000)
  36 Ir     0.015859   -0.055829   18.998154    ( 0.0000,  0.0000,  0.0000)
  37 Ir     2.776668   -0.025110   18.984491    ( 0.0000,  0.0000,  0.0000)
  38 Pt     5.623976   -0.052286   19.132338    ( 0.0000,  0.0000,  0.0000)
  39 Ag     1.411190    2.424549   19.550242    ( 0.0000,  0.0000,  0.0000)
  40 Ir     4.228423    2.403175   19.018562    ( 0.0000,  0.0000,  0.0000)
  41 Pt     6.964575    2.313754   19.128521    ( 0.0000,  0.0000,  0.0000)
  42 Ir     2.920544    4.885225   19.043791    ( 0.0000,  0.0000,  0.0000)
  43 Ir     5.524960    4.949858   19.026821    ( 0.0000,  0.0000,  0.0000)
  44 Ag     8.407084    4.876484   19.535850    ( 0.0000,  0.0000,  0.0000)
  45 O      6.964575    2.313754   21.550242    ( 0.0000,  0.0000,  0.0000)
  46 H      7.614575    2.963754   21.950242    ( 0.0000,  0.0000,  0.0000)

Unit cell:
           periodic     x           y           z      points  spacing
  1. axis:    yes    8.445283    0.000000    0.000000    35     0.2090
  2. axis:    yes    4.222641    7.313829    0.000000    35     0.2090
  3. axis:    no     0.000000    0.000000   29.175054   135     0.2161

  Lengths:   8.445283   8.445283  29.175054
  Angles:   90.000000  90.000000  60.000000

Effective grid spacing dv^(1/3) = 0.2217

                     log10-error:    total        iterations:
           time      wfs    density  energy       fermi  poisson
iter:   1  19:47:24  +0.19   +inf  -300.360850    3             
iter:   2  19:48:23  -1.11  -1.37  -295.465305    35            
iter:   3  19:49:21  -1.38  -1.34  -333.294931    36            
iter:   4  19:50:20  -1.82  -1.25  -278.981250    3             
iter:   5  19:51:17  -2.23  -1.49  -273.978587    36            
iter:   6  19:52:17  -2.36  -1.53  -272.239407    3             
iter:   7  19:53:16  -2.29  -1.58  -269.011516    3             
iter:   8  19:54:16  -2.56  -1.72  -268.278735    3             
iter:   9  19:55:19  -3.37  -1.85  -268.212665    3             
iter:  10  19:56:18  -2.36  -1.85  -269.196853    3             
iter:  11  19:57:18  -2.85  -1.95  -268.170657    3             
iter:  12  19:58:17  -3.36  -2.20  -268.252570    3             
iter:  13  19:59:16  -3.39  -2.23  -268.508658    3             
iter:  14  20:00:14  -3.60  -2.15  -268.119065    3             
iter:  15  20:01:14  -3.75  -2.31  -268.170845    3             
iter:  16  20:02:14  -3.36  -2.35  -268.066183    3             
iter:  17  20:03:13  -3.81  -2.48  -267.974203    3             
iter:  18  20:04:12  -3.97  -2.72  -267.971577    3             
iter:  19  20:05:11  -4.23  -2.83  -267.968532    3             
iter:  20  20:06:10  -4.28  -2.92  -267.983794    3             
iter:  21  20:07:09  -4.40  -2.78  -267.971156    3             
iter:  22  20:08:09  -5.02  -2.93  -267.961408    3             
iter:  23  20:09:09  -4.92  -2.97  -267.958504    3             
iter:  24  20:10:10  -4.88  -3.08  -267.958887    3             
iter:  25  20:11:10  -4.96  -3.17  -267.962313    3             
iter:  26  20:12:10  -5.57  -3.23  -267.958976    3             
iter:  27  20:13:09  -5.16  -3.30  -267.963711    3             
iter:  28  20:14:08  -5.20  -3.22  -267.963038    3             
iter:  29  20:15:07  -5.38  -3.11  -267.956788    3             
iter:  30  20:16:07  -6.33  -3.56  -267.957182    2             
iter:  31  20:17:07  -6.33  -3.58  -267.957442    2             
iter:  32  20:18:06  -6.29  -3.64  -267.956290    2             
iter:  33  20:19:05  -6.24  -3.60  -267.957104    2             
iter:  34  20:20:04  -6.62  -3.79  -267.956586    2             
iter:  35  20:21:02  -6.96  -3.79  -267.956842    2             
iter:  36  20:22:01  -6.62  -3.91  -267.957222    2             
iter:  37  20:22:57  -6.84  -3.92  -267.956996    2             
iter:  38  20:23:44  -7.10  -4.08  -267.956536    2             
iter:  39  20:24:31  -7.26  -4.07  -267.956966    2             
iter:  40  20:25:18  -7.37  -4.14  -267.956648    2             
iter:  41  20:26:05  -7.64  -4.24  -267.956827    2             

Converged after 41 iterations.

Dipole moment: (23.171383, 19.108703, -0.305329) |e|*Ang

Energy contributions relative to reference atoms: (reference = -16429291.423757)

Kinetic:       -154.371909
Potential:      +96.653224
External:        +0.000000
XC:            -202.831784
Entropy (-ST):   -2.095891
Local:           -6.358413
--------------------------
Free energy:   -269.004772
Extrapolated:  -267.956827

Fermi level: 1.21529

Showing only first 2 kpts
 Kpt  Band  Eigenvalues  Occupancy
  0   357      1.18118    0.14612
  0   358      1.22273    0.12035
  0   359      1.27336    0.08969
  0   360      1.29239    0.07907

  1   357      1.07518    0.20059
  1   358      1.12707    0.17682
  1   359      1.16068    0.15831
  1   360      1.17986    0.14691



Forces in eV/Ang:
  0 Ag   -0.42452    0.16528   -1.04363
  1 Ag    0.25569    0.22864   -0.85512
  2 Ir    0.49821   -0.18052    0.03011
  3 Ir   -0.09645    1.24764    1.38947
  4 Ir    0.41535    0.40635    0.87631
  5 Ir   -0.32898   -0.02117    1.21554
  6 Ir   -1.73291   -0.51717    0.73018
  7 Ag   -0.11651   -0.35690   -0.94089
  8 Pt    1.06213   -0.38926    0.49789
  9 Ag    0.13049    0.01080    0.15724
 10 Ir   -0.01923   -0.42034    0.91903
 11 Ir   -0.66093   -0.77618   -0.52487
 12 Ir    0.36976    0.16134    0.16405
 13 Ag   -0.01469   -0.04067    0.14945
 14 Ag    0.05432    0.08521    0.11732
 15 Pt   -0.15142   -0.02410   -0.60929
 16 Ru    0.62734    0.46534   -1.38542
 17 Ir    0.13509    0.28930   -1.28541
 18 Ir    0.03806   -0.00400   -0.00757
 19 Pt   -0.02202   -0.04534   -0.05937
 20 Pt    0.01028    0.00268    0.07678
 21 Ag    0.00625    0.00830    0.04052
 22 Ag    0.01768   -0.00257    0.03146
 23 Ag    0.00464    0.01108   -0.01068
 24 Pt    0.01467    0.00828    0.03117
 25 Ag   -0.00028   -0.02231    0.01789
 26 Ir    0.01024   -0.03413    0.01440
 27 Ru   -0.14830   -0.02621    0.09550
 28 Ir    0.13080    0.01704    0.11104
 29 Ir    0.15712    0.08755    0.11253
 30 Ir   -0.04463   -0.04169    0.04821
 31 Ir    0.01350   -0.01827    0.04426
 32 Pt    0.00200   -0.05125   -0.01245
 33 Ag   -0.00443   -0.02164   -0.02956
 34 Ir   -0.06788   -0.01549    0.12712
 35 Ru    0.01681   -0.02228    0.09168
 36 Ir    0.09826   -0.14749   -0.10374
 37 Ir    0.02320   -0.00390   -0.00683
 38 Pt   -0.17589   -0.16867   -0.13797
 39 Ag    0.04777   -0.02439   -0.00425
 40 Ir   -0.19950   -0.00403   -0.02480
 41 Pt    0.18465    0.16733    1.83375
 42 Ir   -0.00458   -0.03240   -0.01593
 43 Ir   -0.07816    0.10482   -0.05332
 44 Ag    0.01252    0.02407   -0.04678
 45 O     0.23960    0.16473   -1.07458
 46 H    -0.36508   -0.27834   -0.47202

System changes: positions 

Initializing position-dependent things.

Density initialized from wave functions
                                             
                                             
                                             
                                             
                                             
                                             
                            H                
                          O                  
                               Ag            
                  Ir    Ir                   
            Ag    AIr     Pt    Ru           
                                             
       Ir    IIr    IPt    Pt                
         Ru    Ir     Ir                     
                     Pt     Ag     Ir        
                Ag     Ag     Ag             
                                             
           Ir    PPt    RPt    Ir            
                                             
            Ir    IAg    AAg    Pt           
       Ag    IIr    IIr    Ir                
                                             
        Ag     Ag     Ir                     
                                             
                                             
                                             
                                             
                                             

Positions:
   0 Ag     0.000000    1.621936   10.000000    ( 0.0000,  0.0000,  0.0000)
   1 Ag     2.809275    1.621936   10.000000    ( 0.0000,  0.0000,  0.0000)
   2 Ir     5.618550    1.621936   10.000000    ( 0.0000,  0.0000,  0.0000)
   3 Ir     1.404638    4.054840   10.000000    ( 0.0000,  0.0000,  0.0000)
   4 Ir     4.213913    4.054840   10.000000    ( 0.0000,  0.0000,  0.0000)
   5 Ir     7.023188    4.054840   10.000000    ( 0.0000,  0.0000,  0.0000)
   6 Ir     2.809275    6.487743   10.000000    ( 0.0000,  0.0000,  0.0000)
   7 Ag     5.618550    6.487743   10.000000    ( 0.0000,  0.0000,  0.0000)
   8 Pt     8.427826    6.487743   10.000000    ( 0.0000,  0.0000,  0.0000)
   9 Ag     0.000000    0.000000   12.293764    ( 0.0000,  0.0000,  0.0000)
  10 Ir     2.809275    0.000000   12.293764    ( 0.0000,  0.0000,  0.0000)
  11 Ir     5.618550    0.000000   12.293764    ( 0.0000,  0.0000,  0.0000)
  12 Ir     1.404638    2.432904   12.293764    ( 0.0000,  0.0000,  0.0000)
  13 Ag     4.213913    2.432904   12.293764    ( 0.0000,  0.0000,  0.0000)
  14 Ag     7.023188    2.432904   12.293764    ( 0.0000,  0.0000,  0.0000)
  15 Pt     2.809275    4.865807   12.293764    ( 0.0000,  0.0000,  0.0000)
  16 Ru     5.618550    4.865807   12.293764    ( 0.0000,  0.0000,  0.0000)
  17 Ir     8.427826    4.865807   12.293764    ( 0.0000,  0.0000,  0.0000)
  18 Ir     1.445445    0.790718   14.592490    ( 0.0000,  0.0000,  0.0000)
  19 Pt     4.191278    0.725328   14.605268    ( 0.0000,  0.0000,  0.0000)
  20 Pt     7.035851    0.803867   14.642489    ( 0.0000,  0.0000,  0.0000)
  21 Ag     2.790199    3.267880   14.612157    ( 0.0000,  0.0000,  0.0000)
  22 Ag     5.615911    3.230359   14.632847    ( 0.0000,  0.0000,  0.0000)
  23 Ag     8.465223    3.240490   14.606861    ( 0.0000,  0.0000,  0.0000)
  24 Pt     4.238696    5.676091   14.602807    ( 0.0000,  0.0000,  0.0000)
  25 Ag     7.020261    5.622406   14.590727    ( 0.0000,  0.0000,  0.0000)
  26 Ir     9.811321    5.745621   14.535825    ( 0.0000,  0.0000,  0.0000)
  27 Ru     0.073895    1.653200   16.935214    ( 0.0000,  0.0000,  0.0000)
  28 Ir     2.758797    1.629482   16.886267    ( 0.0000,  0.0000,  0.0000)
  29 Ir     5.567559    1.606591   16.900483    ( 0.0000,  0.0000,  0.0000)
  30 Ir     1.354331    4.003155   17.018048    ( 0.0000,  0.0000,  0.0000)
  31 Ir     4.199689    3.976084   16.962128    ( 0.0000,  0.0000,  0.0000)
  32 Pt     7.125581    4.051121   16.997184    ( 0.0000,  0.0000,  0.0000)
  33 Ag     2.759244    6.472671   16.799486    ( 0.0000,  0.0000,  0.0000)
  34 Ir     5.656874    6.561718   16.876736    ( 0.0000,  0.0000,  0.0000)
  35 Ru     8.401256    6.480849   16.875791    ( 0.0000,  0.0000,  0.0000)
  36 Ir     0.025685   -0.070578   18.987781    ( 0.0000,  0.0000,  0.0000)
  37 Ir     2.778989   -0.025500   18.983808    ( 0.0000,  0.0000,  0.0000)
  38 Pt     5.606387   -0.069152   19.118541    ( 0.0000,  0.0000,  0.0000)
  39 Ag     1.415967    2.422110   19.549818    ( 0.0000,  0.0000,  0.0000)
  40 Ir     4.208473    2.402772   19.016082    ( 0.0000,  0.0000,  0.0000)
  41 Pt     6.983041    2.330487   19.311896    ( 0.0000,  0.0000,  0.0000)
  42 Ir     2.920087    4.881984   19.042198    ( 0.0000,  0.0000,  0.0000)
  43 Ir     5.517144    4.960340   19.021489    ( 0.0000,  0.0000,  0.0000)
  44 Ag     8.408336    4.878891   19.531172    ( 0.0000,  0.0000,  0.0000)
  45 O      6.988535    2.330227   21.442785    ( 0.0000,  0.0000,  0.0000)
  46 H      7.578067    2.935920   21.903041    ( 0.0000,  0.0000,  0.0000)

Unit cell:
           periodic     x           y           z      points  spacing
  1. axis:    yes    8.445283    0.000000    0.000000    35     0.2090
  2. axis:    yes    4.222641    7.313829    0.000000    35     0.2090
  3. axis:    no     0.000000    0.000000   29.175054   135     0.2161

  Lengths:   8.445283   8.445283  29.175054
  Angles:   90.000000  90.000000  60.000000

Effective grid spacing dv^(1/3) = 0.2217

                     log10-error:    total        iterations:
           time      wfs    density  energy       fermi  poisson
iter:   1  20:27:14  -1.98   +inf  -272.893902    4             
iter:   2  20:28:01  -1.66  -1.91  -297.631405    36            
iter:   3  20:28:49  -1.47  -1.46  -324.261648    3             
iter:   4  20:29:36  -2.14  -1.36  -269.415364    36            
iter:   5  20:30:23  -2.86  -2.17  -268.581534    3             
iter:   6  20:31:10  -3.77  -2.47  -268.557461    3             
iter:   7  20:31:58  -4.22  -2.54  -268.440189    3             
iter:   8  20:32:44  -4.16  -2.76  -268.419794    2             
iter:   9  20:33:39  -4.00  -2.74  -268.400873    2             
iter:  10  20:34:37  -4.22  -2.68  -268.374674    3             
iter:  11  20:35:37  -4.47  -2.90  -268.352553    2             
iter:  12  20:36:36  -4.92  -3.14  -268.348730    3             
iter:  13  20:37:36  -5.05  -3.22  -268.347106    3             
iter:  14  20:38:35  -5.47  -3.29  -268.351011    2             
iter:  15  20:39:34  -5.54  -3.21  -268.344814    2             
iter:  16  20:40:32  -6.01  -3.34  -268.344401    2             
iter:  17  20:41:32  -6.18  -3.58  -268.344030    2             
iter:  18  20:42:34  -5.76  -3.67  -268.343545    2             
iter:  19  20:43:37  -6.14  -3.70  -268.343270    2             
iter:  20  20:44:36  -6.26  -3.75  -268.343915    2             
iter:  21  20:45:34  -6.54  -3.82  -268.343117    2             
iter:  22  20:46:32  -6.48  -3.79  -268.343474    2             
iter:  23  20:47:33  -6.43  -4.02  -268.343582    2             
iter:  24  20:48:32  -6.65  -4.01  -268.343192    2             
iter:  25  20:49:34  -6.78  -4.09  -268.343224    2             
iter:  26  20:50:35  -7.20  -4.09  -268.343452    2             
iter:  27  20:51:36  -7.25  -4.13  -268.343026    2             
iter:  28  20:52:38  -7.25  -4.07  -268.343178    2             
iter:  29  20:53:39  -7.54  -4.34  -268.343262    2             

Converged after 29 iterations.

Dipole moment: (22.625996, 20.306334, -0.144693) |e|*Ang

Energy contributions relative to reference atoms: (reference = -16429291.423757)

Kinetic:       -152.551990
Potential:      +95.097190
External:        +0.000000
XC:            -203.480606
Entropy (-ST):   -2.090076
Local:           -6.362818
--------------------------
Free energy:   -269.388300
Extrapolated:  -268.343262

Fermi level: 1.28866

Showing only first 2 kpts
 Kpt  Band  Eigenvalues  Occupancy
  0   357      1.25663    0.14485
  0   358      1.29317    0.12218
  0   359      1.35038    0.08761
  0   360      1.35851    0.08304

  1   357      1.14292    0.20279
  1   358      1.19424    0.17999
  1   359      1.23224    0.15936
  1   360      1.26581    0.13922



Forces in eV/Ang:
  0 Ag   -0.41748    0.15555   -1.05001
  1 Ag    0.25092    0.22400   -0.86418
  2 Ir    0.49728   -0.17693    0.03960
  3 Ir   -0.09771    1.23611    1.38287
  4 Ir    0.41710    0.40252    0.88008
  5 Ir   -0.32929   -0.02113    1.21618
  6 Ir   -1.72247   -0.50780    0.73195
  7 Ag   -0.11622   -0.34238   -0.94143
  8 Pt    1.04794   -0.38542    0.47914
  9 Ag    0.11959    0.01698    0.17003
 10 Ir   -0.01438   -0.43065    0.95421
 11 Ir   -0.64301   -0.77430   -0.51144
 12 Ir    0.36717    0.17383    0.17699
 13 Ag   -0.00873   -0.02597    0.16797
 14 Ag    0.04889    0.07540    0.15523
 15 Pt   -0.13116   -0.03282   -0.59385
 16 Ru    0.62436    0.46078   -1.37392
 17 Ir    0.12427    0.28206   -1.27966
 18 Ir   -0.00040    0.01986    0.07303
 19 Pt   -0.00812   -0.01343    0.01012
 20 Pt    0.00786    0.02705    0.03393
 21 Ag    0.01249   -0.00878    0.02986
 22 Ag   -0.00006   -0.01629    0.01172
 23 Ag    0.00618   -0.02515    0.00993
 24 Pt    0.02052    0.00257    0.00326
 25 Ag   -0.01334   -0.01277    0.04130
 26 Ir   -0.00289   -0.00935   -0.01371
 27 Ru   -0.18245    0.05550    0.12211
 28 Ir    0.02721   -0.01277    0.00051
 29 Ir    0.30306    0.16597    0.35007
 30 Ir   -0.06025   -0.07118    0.01347
 31 Ir    0.05538   -0.04631   -0.06401
 32 Pt   -0.05965   -0.29273    0.22691
 33 Ag   -0.03204   -0.03537   -0.00686
 34 Ir    0.03752    0.02452   -0.12203
 35 Ru    0.03159   -0.01118    0.00271
 36 Ir   -0.12253    0.09544    0.07439
 37 Ir    0.05216    0.02453    0.02126
 38 Pt   -0.01020    0.03372   -0.15240
 39 Ag    0.00867   -0.01508    0.02627
 40 Ir   -0.00405   -0.01789    0.06528
 41 Pt    0.09733    0.16711    0.64386
 42 Ir   -0.09279   -0.02348    0.00111
 43 Ir    0.08677   -0.08017    0.02516
 44 Ag   -0.01912   -0.06136    0.00149
 45 O    -0.94831   -1.13868   -1.36079
 46 H     0.79325    0.91862    0.15205

System changes: positions 

Initializing position-dependent things.

Density initialized from wave functions
                                             
                                             
                                             
                                             
                                             
                                             
                            H                
                          O                  
                  Ir    Ir     Ag            
            Ag            Pt                 
                  AIr     Ir    Ru           
             IIr    IPt    Pt                
       Ir                                    
         Ru    Ir    PIr    Ag     Ir        
                                             
                Ag     Ag     Ag             
           Ir    PPt    RPt    Ir            
                                             
            Ir    IAg    AAg    Pt           
       Ag     Ir     Ir                      
             Ir     Ir     Ir                
        Ag     Ag     Ir                     
                                             
                                             
                                             
                                             
                                             

Positions:
   0 Ag     0.000000    1.621936   10.000000    ( 0.0000,  0.0000,  0.0000)
   1 Ag     2.809275    1.621936   10.000000    ( 0.0000,  0.0000,  0.0000)
   2 Ir     5.618550    1.621936   10.000000    ( 0.0000,  0.0000,  0.0000)
   3 Ir     1.404638    4.054840   10.000000    ( 0.0000,  0.0000,  0.0000)
   4 Ir     4.213913    4.054840   10.000000    ( 0.0000,  0.0000,  0.0000)
   5 Ir     7.023188    4.054840   10.000000    ( 0.0000,  0.0000,  0.0000)
   6 Ir     2.809275    6.487743   10.000000    ( 0.0000,  0.0000,  0.0000)
   7 Ag     5.618550    6.487743   10.000000    ( 0.0000,  0.0000,  0.0000)
   8 Pt     8.427826    6.487743   10.000000    ( 0.0000,  0.0000,  0.0000)
   9 Ag     0.000000    0.000000   12.293764    ( 0.0000,  0.0000,  0.0000)
  10 Ir     2.809275    0.000000   12.293764    ( 0.0000,  0.0000,  0.0000)
  11 Ir     5.618550    0.000000   12.293764    ( 0.0000,  0.0000,  0.0000)
  12 Ir     1.404638    2.432904   12.293764    ( 0.0000,  0.0000,  0.0000)
  13 Ag     4.213913    2.432904   12.293764    ( 0.0000,  0.0000,  0.0000)
  14 Ag     7.023188    2.432904   12.293764    ( 0.0000,  0.0000,  0.0000)
  15 Pt     2.809275    4.865807   12.293764    ( 0.0000,  0.0000,  0.0000)
  16 Ru     5.618550    4.865807   12.293764    ( 0.0000,  0.0000,  0.0000)
  17 Ir     8.427826    4.865807   12.293764    ( 0.0000,  0.0000,  0.0000)
  18 Ir     1.448794    0.791443   14.595791    ( 0.0000,  0.0000,  0.0000)
  19 Pt     4.188886    0.720584   14.600561    ( 0.0000,  0.0000,  0.0000)
  20 Pt     7.037189    0.805575   14.651132    ( 0.0000,  0.0000,  0.0000)
  21 Ag     2.791431    3.268137   14.617368    ( 0.0000,  0.0000,  0.0000)
  22 Ag     5.617474    3.229245   14.636270    ( 0.0000,  0.0000,  0.0000)
  23 Ag     8.465970    3.240102   14.606456    ( 0.0000,  0.0000,  0.0000)
  24 Pt     4.241111    5.676964   14.605744    ( 0.0000,  0.0000,  0.0000)
  25 Ag     7.019511    5.619736   14.594557    ( 0.0000,  0.0000,  0.0000)
  26 Ir     9.812071    5.742090   14.536354    ( 0.0000,  0.0000,  0.0000)
  27 Ru     0.050842    1.653897   16.950310    ( 0.0000,  0.0000,  0.0000)
  28 Ir     2.771858    1.630296   16.896127    ( 0.0000,  0.0000,  0.0000)
  29 Ir     5.597952    1.623369   16.929485    ( 0.0000,  0.0000,  0.0000)
  30 Ir     1.347103    3.995593   17.023050    ( 0.0000,  0.0000,  0.0000)
  31 Ir     4.203896    3.971948   16.962566    ( 0.0000,  0.0000,  0.0000)
  32 Pt     7.122515    4.030663   17.008421    ( 0.0000,  0.0000,  0.0000)
  33 Ag     2.757109    6.468831   16.796496    ( 0.0000,  0.0000,  0.0000)
  34 Ir     5.652904    6.561681   16.881356    ( 0.0000,  0.0000,  0.0000)
  35 Ru     8.404462    6.478268   16.884056    ( 0.0000,  0.0000,  0.0000)
  36 Ir     0.027722   -0.078448   18.982641    ( 0.0000,  0.0000,  0.0000)
  37 Ir     2.783880   -0.024511   18.984360    ( 0.0000,  0.0000,  0.0000)
  38 Pt     5.590259   -0.082253   19.098036    ( 0.0000,  0.0000,  0.0000)
  39 Ag     1.420669    2.419131   19.550870    ( 0.0000,  0.0000,  0.0000)
  40 Ir     4.190588    2.401442   19.017437    ( 0.0000,  0.0000,  0.0000)
  41 Pt     7.004684    2.354391   19.509279    ( 0.0000,  0.0000,  0.0000)
  42 Ir     2.914635    4.877838   19.040848    ( 0.0000,  0.0000,  0.0000)
  43 Ir     5.514942    4.965261   19.018136    ( 0.0000,  0.0000,  0.0000)
  44 Ag     8.408406    4.877685   19.527111    ( 0.0000,  0.0000,  0.0000)
  45 O      6.958178    2.282888   21.273633    ( 0.0000,  0.0000,  0.0000)
  46 H      7.588881    2.961231   21.869516    ( 0.0000,  0.0000,  0.0000)

Unit cell:
           periodic     x           y           z      points  spacing
  1. axis:    yes    8.445283    0.000000    0.000000    35     0.2090
  2. axis:    yes    4.222641    7.313829    0.000000    35     0.2090
  3. axis:    no     0.000000    0.000000   29.175054   135     0.2161

  Lengths:   8.445283   8.445283  29.175054
  Angles:   90.000000  90.000000  60.000000

Effective grid spacing dv^(1/3) = 0.2217

                     log10-error:    total        iterations:
           time      wfs    density  energy       fermi  poisson
iter:   1  20:55:08  -1.74   +inf  -269.457809    3             
iter:   2  20:56:10  -1.91  -2.00  -299.618469    36            
iter:   3  20:57:11  -2.24  -1.47  -268.744409    36            
iter:   4  20:58:11  -2.93  -2.13  -267.912952    4             
iter:   5  20:59:13  -3.89  -2.42  -267.745585    3             
iter:   6  21:00:14  -3.61  -2.61  -267.654803    3             
iter:   7  21:01:15  -3.52  -2.69  -267.581964    3             
iter:   8  21:02:16  -3.92  -2.84  -267.551504    3             
iter:   9  21:03:18  -4.46  -3.04  -267.622208    3             
iter:  10  21:04:19  -4.63  -2.62  -267.551413    3             
iter:  11  21:05:20  -4.75  -3.03  -267.550263    3             
iter:  12  21:06:22  -5.13  -3.04  -267.539343    3             
iter:  13  21:07:23  -5.11  -3.31  -267.539941    3             
iter:  14  21:08:24  -5.40  -3.35  -267.539200    3             
iter:  15  21:09:24  -5.56  -3.43  -267.539467    2             
iter:  16  21:10:26  -5.78  -3.27  -267.540267    2             
iter:  17  21:11:27  -5.68  -3.39  -267.538400    3             
iter:  18  21:12:28  -5.62  -3.58  -267.538337    3             
iter:  19  21:13:29  -5.86  -3.50  -267.537704    3             
iter:  20  21:14:31  -6.31  -3.86  -267.537368    2             
iter:  21  21:15:32  -6.38  -3.98  -267.537226    2             
iter:  22  21:16:33  -6.33  -3.75  -267.539224    2             
iter:  23  21:17:34  -6.19  -3.59  -267.537509    2             
iter:  24  21:18:35  -6.54  -3.95  -267.537328    2             
iter:  25  21:19:33  -6.76  -3.91  -267.537478    2             
iter:  26  21:20:31  -7.28  -4.10  -267.537258    2             
iter:  27  21:21:29  -6.97  -4.22  -267.537126    2             
iter:  28  21:22:28  -6.96  -4.14  -267.537993    2             
iter:  29  21:23:27  -6.96  -3.86  -267.537234    2             
iter:  30  21:24:27  -7.23  -4.31  -267.537184    2             
iter:  31  21:25:27  -7.67  -4.19  -267.537307    2             

Converged after 31 iterations.

Dipole moment: (22.411938, 20.908732, 0.165166) |e|*Ang

Energy contributions relative to reference atoms: (reference = -16429291.423757)

Kinetic:       -141.337629
Potential:      +85.049228
External:        +0.000000
XC:            -203.765400
Entropy (-ST):   -2.084237
Local:           -6.441387
--------------------------
Free energy:   -268.579426
Extrapolated:  -267.537307

Fermi level: 1.43305

Showing only first 2 kpts
 Kpt  Band  Eigenvalues  Occupancy
  0   357      1.40201    0.14424
  0   358      1.42481    0.13015
  0   359      1.47757    0.09762
  0   360      1.50111    0.08403

  1   357      1.29272    0.20068
  1   358      1.33624    0.18119
  1   359      1.36853    0.16398
  1   360      1.42649    0.12910



Forces in eV/Ang:
  0 Ag   -0.41799    0.15616   -1.04910
  1 Ag    0.25212    0.22348   -0.86161
  2 Ir    0.49797   -0.17582    0.04099
  3 Ir   -0.09941    1.23718    1.38328
  4 Ir    0.41599    0.40279    0.88551
  5 Ir   -0.32477   -0.02117    1.21601
  6 Ir   -1.72461   -0.50523    0.73013
  7 Ag   -0.11420   -0.34004   -0.93598
  8 Pt    1.04340   -0.38748    0.47113
  9 Ag    0.10837    0.02240    0.19764
 10 Ir    0.00411   -0.43788    1.00357
 11 Ir   -0.62396   -0.78033   -0.48673
 12 Ir    0.36668    0.19056    0.18937
 13 Ag   -0.00841   -0.01793    0.17983
 14 Ag    0.04634    0.06853    0.16304
 15 Pt   -0.12273   -0.03765   -0.58424
 16 Ru    0.62310    0.45978   -1.36684
 17 Ir    0.11877    0.27676   -1.27175
 18 Ir   -0.03203    0.03996    0.11856
 19 Pt    0.03659    0.01660    0.11972
 20 Pt   -0.01779    0.01235   -0.02768
 21 Ag    0.01074   -0.02420    0.01854
 22 Ag   -0.01934   -0.04170    0.00231
 23 Ag    0.01494   -0.04681    0.03325
 24 Pt    0.01038   -0.00077   -0.01290
 25 Ag   -0.00122   -0.01900    0.05929
 26 Ir   -0.01924    0.04299   -0.02952
 27 Ru   -0.09725    0.09459    0.02576
 28 Ir   -0.07442   -0.07832   -0.09631
 29 Ir    0.21141    0.14472    0.19227
 30 Ir   -0.03556   -0.09739   -0.03373
 31 Ir    0.07507   -0.05176   -0.07553
 32 Pt   -0.08368   -0.32612    0.28140
 33 Ag   -0.02022   -0.06187    0.01696
 34 Ir    0.15869    0.08371   -0.29757
 35 Ru   -0.02819   -0.00068   -0.12318
 36 Ir   -0.23757    0.16677    0.22789
 37 Ir    0.02208    0.02019    0.04503
 38 Pt    0.16891    0.16214   -0.05787
 39 Ag    0.04069   -0.01544    0.01972
 40 Ir    0.11886   -0.00870    0.07182
 41 Pt    0.06249    0.26449   -6.18809
 42 Ir   -0.08887   -0.01412    0.05188
 43 Ir    0.11711   -0.13027    0.11430
 44 Ag   -0.01300   -0.05134    0.02449
 45 O     1.37161    1.46338    7.73105
 46 H    -1.83079   -1.90193   -2.04235

System changes: positions 

Initializing position-dependent things.

Density initialized from wave functions
                                             
                                             
                                             
                                             
                                             
                                             
                            H                
                          O                  
                               Ag            
                  Ir    Ir                   
            Ag    AIr     Pt    Ru           
                                             
       Ir    IIr    IPt    Pt                
         Ru    Ir     Ir                     
                     Pt     Ag     Ir        
                Ag     Ag     Ag             
                                             
           Ir    PPt    RPt    Ir            
                                             
            Ir    IAg    AAg    Pt           
       Ag    IIr    IIr    Ir                
                                             
        Ag     Ag     Ir                     
                                             
                                             
                                             
                                             
                                             

Positions:
   0 Ag     0.000000    1.621936   10.000000    ( 0.0000,  0.0000,  0.0000)
   1 Ag     2.809275    1.621936   10.000000    ( 0.0000,  0.0000,  0.0000)
   2 Ir     5.618550    1.621936   10.000000    ( 0.0000,  0.0000,  0.0000)
   3 Ir     1.404638    4.054840   10.000000    ( 0.0000,  0.0000,  0.0000)
   4 Ir     4.213913    4.054840   10.000000    ( 0.0000,  0.0000,  0.0000)
   5 Ir     7.023188    4.054840   10.000000    ( 0.0000,  0.0000,  0.0000)
   6 Ir     2.809275    6.487743   10.000000    ( 0.0000,  0.0000,  0.0000)
   7 Ag     5.618550    6.487743   10.000000    ( 0.0000,  0.0000,  0.0000)
   8 Pt     8.427826    6.487743   10.000000    ( 0.0000,  0.0000,  0.0000)
   9 Ag     0.000000    0.000000   12.293764    ( 0.0000,  0.0000,  0.0000)
  10 Ir     2.809275    0.000000   12.293764    ( 0.0000,  0.0000,  0.0000)
  11 Ir     5.618550    0.000000   12.293764    ( 0.0000,  0.0000,  0.0000)
  12 Ir     1.404638    2.432904   12.293764    ( 0.0000,  0.0000,  0.0000)
  13 Ag     4.213913    2.432904   12.293764    ( 0.0000,  0.0000,  0.0000)
  14 Ag     7.023188    2.432904   12.293764    ( 0.0000,  0.0000,  0.0000)
  15 Pt     2.809275    4.865807   12.293764    ( 0.0000,  0.0000,  0.0000)
  16 Ru     5.618550    4.865807   12.293764    ( 0.0000,  0.0000,  0.0000)
  17 Ir     8.427826    4.865807   12.293764    ( 0.0000,  0.0000,  0.0000)
  18 Ir     1.446192    0.790880   14.593227    ( 0.0000,  0.0000,  0.0000)
  19 Pt     4.190744    0.724270   14.604218    ( 0.0000,  0.0000,  0.0000)
  20 Pt     7.036150    0.804248   14.644417    ( 0.0000,  0.0000,  0.0000)
  21 Ag     2.790474    3.267937   14.613320    ( 0.0000,  0.0000,  0.0000)
  22 Ag     5.616260    3.230110   14.633610    ( 0.0000,  0.0000,  0.0000)
  23 Ag     8.465390    3.240403   14.606771    ( 0.0000,  0.0000,  0.0000)
  24 Pt     4.239235    5.676286   14.603462    ( 0.0000,  0.0000,  0.0000)
  25 Ag     7.020094    5.621810   14.591582    ( 0.0000,  0.0000,  0.0000)
  26 Ir     9.811488    5.744833   14.535943    ( 0.0000,  0.0000,  0.0000)
  27 Ru     0.068751    1.653356   16.938582    ( 0.0000,  0.0000,  0.0000)
  28 Ir     2.761711    1.629663   16.888467    ( 0.0000,  0.0000,  0.0000)
  29 Ir     5.574340    1.610335   16.906954    ( 0.0000,  0.0000,  0.0000)
  30 Ir     1.352719    4.001468   17.019164    ( 0.0000,  0.0000,  0.0000)
  31 Ir     4.200628    3.975161   16.962226    ( 0.0000,  0.0000,  0.0000)
  32 Pt     7.124897    4.046556   16.999691    ( 0.0000,  0.0000,  0.0000)
  33 Ag     2.758768    6.471814   16.798819    ( 0.0000,  0.0000,  0.0000)
  34 Ir     5.655988    6.561710   16.877767    ( 0.0000,  0.0000,  0.0000)
  35 Ru     8.401971    6.480273   16.877635    ( 0.0000,  0.0000,  0.0000)
  36 Ir     0.026139   -0.072334   18.986634    ( 0.0000,  0.0000,  0.0000)
  37 Ir     2.780080   -0.025279   18.983931    ( 0.0000,  0.0000,  0.0000)
  38 Pt     5.602788   -0.072075   19.113966    ( 0.0000,  0.0000,  0.0000)
  39 Ag     1.417016    2.421446   19.550052    ( 0.0000,  0.0000,  0.0000)
  40 Ir     4.204482    2.402475   19.016385    ( 0.0000,  0.0000,  0.0000)
  41 Pt     6.987870    2.335821   19.355936    ( 0.0000,  0.0000,  0.0000)
  42 Ir     2.918870    4.881059   19.041897    ( 0.0000,  0.0000,  0.0000)
  43 Ir     5.516653    4.961438   19.020741    ( 0.0000,  0.0000,  0.0000)
  44 Ag     8.408352    4.878622   19.530266    ( 0.0000,  0.0000,  0.0000)
  45 O      6.981762    2.319664   21.405044    ( 0.0000,  0.0000,  0.0000)
  46 H      7.580480    2.941567   21.895561    ( 0.0000,  0.0000,  0.0000)

Unit cell:
           periodic     x           y           z      points  spacing
  1. axis:    yes    8.445283    0.000000    0.000000    35     0.2090
  2. axis:    yes    4.222641    7.313829    0.000000    35     0.2090
  3. axis:    no     0.000000    0.000000   29.175054   135     0.2161

  Lengths:   8.445283   8.445283  29.175054
  Angles:   90.000000  90.000000  60.000000

Effective grid spacing dv^(1/3) = 0.2217

                     log10-error:    total        iterations:
           time      wfs    density  energy       fermi  poisson
iter:   1  21:26:53  -1.80   +inf  -270.315313    2             
iter:   2  21:27:52  -2.23  -2.15  -286.872473    3             
iter:   3  21:28:52  -2.36  -1.54  -270.781104    2             
iter:   4  21:29:51  -3.11  -1.95  -268.982561    3             
iter:   5  21:30:50  -3.31  -2.39  -268.555790    3             
iter:   6  21:31:50  -4.05  -2.73  -268.505170    3             
iter:   7  21:32:49  -4.22  -2.83  -268.467509    3             
iter:   8  21:33:55  -3.70  -2.90  -268.455349    3             
iter:   9  21:34:52  -3.60  -2.80  -269.469681    3             
iter:  10  21:35:40  -3.71  -2.10  -268.434370    3             
iter:  11  21:36:28  -4.69  -2.90  -268.417430    3             
iter:  12  21:37:20  -5.23  -3.07  -268.411380    3             
iter:  13  21:38:19  -5.46  -3.17  -268.405866    3             
iter:  14  21:39:19  -5.66  -3.37  -268.405929    2             
iter:  15  21:40:19  -5.21  -3.42  -268.413060    2             
iter:  16  21:41:19  -5.56  -3.06  -268.406747    2             
iter:  17  21:42:19  -6.03  -3.42  -268.405093    3             
iter:  18  21:43:19  -5.79  -3.58  -268.404835    2             
iter:  19  21:44:19  -5.92  -3.69  -268.404268    2             
iter:  20  21:45:18  -6.15  -3.63  -268.404239    2             
iter:  21  21:46:18  -6.45  -3.90  -268.403991    2             
iter:  22  21:47:18  -6.17  -3.75  -268.405637    2             
iter:  23  21:48:17  -6.57  -3.65  -268.404118    2             
iter:  24  21:49:16  -6.96  -4.13  -268.403993    2             
iter:  25  21:50:16  -7.18  -4.24  -268.403820    2             
iter:  26  21:51:15  -7.36  -4.31  -268.404086    2             
iter:  27  21:52:14  -7.49  -4.37  -268.403924    2             

Converged after 27 iterations.

Dipole moment: (22.577512, 20.451007, -0.079755) |e|*Ang

Energy contributions relative to reference atoms: (reference = -16429291.423757)

Kinetic:       -152.891844
Potential:      +95.146827
External:        +0.000000
XC:            -203.280334
Entropy (-ST):   -2.089399
Local:           -6.333873
--------------------------
Free energy:   -269.448623
Extrapolated:  -268.403924

Fermi level: 1.31843

Showing only first 2 kpts
 Kpt  Band  Eigenvalues  Occupancy
  0   357      1.28665    0.14469
  0   358      1.32113    0.12331
  0   359      1.37746    0.08914
  0   360      1.38734    0.08355

  1   357      1.17190    0.20309
  1   358      1.22321    0.18039
  1   359      1.26037    0.16030
  1   360      1.29870    0.13729



Forces in eV/Ang:
  0 Ag   -0.41772    0.15680   -1.04690
  1 Ag    0.25172    0.22510   -0.85957
  2 Ir    0.49625   -0.17808    0.04172
  3 Ir   -0.09859    1.23520    1.38533
  4 Ir    0.41651    0.40317    0.88441
  5 Ir   -0.32793   -0.02043    1.21908
  6 Ir   -1.72333   -0.50702    0.73301
  7 Ag   -0.11655   -0.34394   -0.93807
  8 Pt    1.04828   -0.38546    0.48043
  9 Ag    0.11731    0.01869    0.17664
 10 Ir   -0.00912   -0.43296    0.96176
 11 Ir   -0.63893   -0.77658   -0.50660
 12 Ir    0.36641    0.17600    0.17721
 13 Ag   -0.00934   -0.02539    0.16820
 14 Ag    0.04921    0.07366    0.15832
 15 Pt   -0.13073   -0.03297   -0.59491
 16 Ru    0.62461    0.46168   -1.37515
 17 Ir    0.12277    0.28228   -1.28097
 18 Ir   -0.01432    0.02847    0.09279
 19 Pt    0.01445    0.00012    0.05287
 20 Pt   -0.00119    0.02168    0.01320
 21 Ag    0.01234   -0.01207    0.02840
 22 Ag   -0.00628   -0.02232    0.00675
 23 Ag    0.00894   -0.02946    0.01396
 24 Pt    0.01735    0.00236   -0.00042
 25 Ag   -0.00978   -0.01919    0.05171
 26 Ir   -0.00680    0.00502   -0.01542
 27 Ru   -0.15890    0.07041    0.11966
 28 Ir   -0.00319   -0.03374   -0.04001
 29 Ir    0.28988    0.16388    0.33974
 30 Ir   -0.05210   -0.07818   -0.00077
 31 Ir    0.05363   -0.04394   -0.07093
 32 Pt   -0.06246   -0.31070    0.26319
 33 Ag   -0.03107   -0.04582   -0.00489
 34 Ir    0.07046    0.04293   -0.16904
 35 Ru    0.01711   -0.00465   -0.04123
 36 Ir   -0.16038    0.12185    0.08823
 37 Ir    0.04165    0.02193    0.04201
 38 Pt    0.04157    0.08394   -0.14894
 39 Ag    0.03301   -0.01995   -0.00413
 40 Ir    0.04487   -0.01798    0.05822
 41 Pt    0.03815    0.12004   -0.17839
 42 Ir   -0.09166   -0.01719    0.02236
 43 Ir    0.09386   -0.09912    0.02758
 44 Ag   -0.01122   -0.04147   -0.02023
 45 O    -0.11482   -0.21565    0.07143
 46 H    -0.09057    0.00976   -0.54644

System changes: positions 

Initializing position-dependent things.

Density initialized from wave functions
                                             
                                             
                                             
                                             
                                             
                                             
                            H                
                          O                  
                  Ir    Ir     Ag            
            Ag            Pt                 
                  AIr     Ir    Ru           
       Ir    IIr    IPt    Pt                
                                             
        Ru     Ir    PIr    Ag     Ir        
                                             
                Ag     Ag     Ag             
           Ir    PPt    RPt    Ir            
                                             
            Ir    IAg    AAg    Pt           
       Ag     Ir     Ir                      
             Ir     Ir     Ir                
        Ag     Ag     Ir                     
                                             
                                             
                                             
                                             
                                             

Positions:
   0 Ag     0.000000    1.621936   10.000000    ( 0.0000,  0.0000,  0.0000)
   1 Ag     2.809275    1.621936   10.000000    ( 0.0000,  0.0000,  0.0000)
   2 Ir     5.618550    1.621936   10.000000    ( 0.0000,  0.0000,  0.0000)
   3 Ir     1.404638    4.054840   10.000000    ( 0.0000,  0.0000,  0.0000)
   4 Ir     4.213913    4.054840   10.000000    ( 0.0000,  0.0000,  0.0000)
   5 Ir     7.023188    4.054840   10.000000    ( 0.0000,  0.0000,  0.0000)
   6 Ir     2.809275    6.487743   10.000000    ( 0.0000,  0.0000,  0.0000)
   7 Ag     5.618550    6.487743   10.000000    ( 0.0000,  0.0000,  0.0000)
   8 Pt     8.427826    6.487743   10.000000    ( 0.0000,  0.0000,  0.0000)
   9 Ag     0.000000    0.000000   12.293764    ( 0.0000,  0.0000,  0.0000)
  10 Ir     2.809275    0.000000   12.293764    ( 0.0000,  0.0000,  0.0000)
  11 Ir     5.618550    0.000000   12.293764    ( 0.0000,  0.0000,  0.0000)
  12 Ir     1.404638    2.432904   12.293764    ( 0.0000,  0.0000,  0.0000)
  13 Ag     4.213913    2.432904   12.293764    ( 0.0000,  0.0000,  0.0000)
  14 Ag     7.023188    2.432904   12.293764    ( 0.0000,  0.0000,  0.0000)
  15 Pt     2.809275    4.865807   12.293764    ( 0.0000,  0.0000,  0.0000)
  16 Ru     5.618550    4.865807   12.293764    ( 0.0000,  0.0000,  0.0000)
  17 Ir     8.427826    4.865807   12.293764    ( 0.0000,  0.0000,  0.0000)
  18 Ir     1.445515    0.793816   14.602930    ( 0.0000,  0.0000,  0.0000)
  19 Pt     4.191766    0.723274   14.608494    ( 0.0000,  0.0000,  0.0000)
  20 Pt     7.036262    0.806631   14.647529    ( 0.0000,  0.0000,  0.0000)
  21 Ag     2.791927    3.266835   14.617232    ( 0.0000,  0.0000,  0.0000)
  22 Ag     5.615985    3.227683   14.635022    ( 0.0000,  0.0000,  0.0000)
  23 Ag     8.466440    3.237506   14.608022    ( 0.0000,  0.0000,  0.0000)
  24 Pt     4.241411    5.676717   14.604100    ( 0.0000,  0.0000,  0.0000)
  25 Ag     7.019037    5.619291   14.597470    ( 0.0000,  0.0000,  0.0000)
  26 Ir     9.810992    5.744603   14.534613    ( 0.0000,  0.0000,  0.0000)
  27 Ru     0.048531    1.660276   16.953429    ( 0.0000,  0.0000,  0.0000)
  28 Ir     2.764262    1.626470   16.886679    ( 0.0000,  0.0000,  0.0000)
  29 Ir     5.608713    1.629729   16.945678    ( 0.0000,  0.0000,  0.0000)
  30 Ir     1.346174    3.992233   17.020154    ( 0.0000,  0.0000,  0.0000)
  31 Ir     4.206649    3.970070   16.955626    ( 0.0000,  0.0000,  0.0000)
  32 Pt     7.118279    4.012313   17.027447    ( 0.0000,  0.0000,  0.0000)
  33 Ag     2.755353    6.466474   16.797653    ( 0.0000,  0.0000,  0.0000)
  34 Ir     5.661977    6.565921   16.862566    ( 0.0000,  0.0000,  0.0000)
  35 Ru     8.404189    6.479282   16.875304    ( 0.0000,  0.0000,  0.0000)
  36 Ir     0.011220   -0.062572   18.993779    ( 0.0000,  0.0000,  0.0000)
  37 Ir     2.785049   -0.023018   18.988228    ( 0.0000,  0.0000,  0.0000)
  38 Pt     5.603317   -0.066864   19.095072    ( 0.0000,  0.0000,  0.0000)
  39 Ag     1.421528    2.418797   19.549578    ( 0.0000,  0.0000,  0.0000)
  40 Ir     4.204857    2.400468   19.022076    ( 0.0000,  0.0000,  0.0000)
  41 Pt     6.996055    2.352350   19.378187    ( 0.0000,  0.0000,  0.0000)
  42 Ir     2.908984    4.878510   19.043899    ( 0.0000,  0.0000,  0.0000)
  43 Ir     5.524966    4.953163   19.022525    ( 0.0000,  0.0000,  0.0000)
  44 Ag     8.407410    4.874678   19.527135    ( 0.0000,  0.0000,  0.0000)
  45 O      6.973099    2.298446   21.386652    ( 0.0000,  0.0000,  0.0000)
  46 H      7.564595    2.938320   21.828341    ( 0.0000,  0.0000,  0.0000)

Unit cell:
           periodic     x           y           z      points  spacing
  1. axis:    yes    8.445283    0.000000    0.000000    35     0.2090
  2. axis:    yes    4.222641    7.313829    0.000000    35     0.2090
  3. axis:    no     0.000000    0.000000   29.175054   135     0.2161

  Lengths:   8.445283   8.445283  29.175054
  Angles:   90.000000  90.000000  60.000000

Effective grid spacing dv^(1/3) = 0.2217

                     log10-error:    total        iterations:
           time      wfs    density  energy       fermi  poisson
iter:   1  21:53:41  -2.37   +inf  -270.886701    3             
iter:   2  21:54:41  -1.70  -1.98  -324.662789    36            
iter:   3  21:55:40  -2.00  -1.33  -270.341163    36            
iter:   4  21:56:39  -2.84  -2.07  -268.588100    4             
iter:   5  21:57:38  -4.26  -2.60  -268.521984    3             
iter:   6  21:58:38  -4.80  -2.78  -268.488834    3             
iter:   7  21:59:36  -4.70  -3.00  -268.476323    2             
iter:   8  22:00:33  -4.66  -3.09  -268.470862    2             
iter:   9  22:01:32  -4.71  -3.05  -268.480395    2             
iter:  10  22:02:29  -4.91  -2.99  -268.463014    3             
iter:  11  22:03:27  -5.16  -3.36  -268.464708    3             
iter:  12  22:04:24  -5.16  -3.26  -268.462870    3             
iter:  13  22:05:22  -5.82  -3.44  -268.461658    2             
iter:  14  22:06:20  -5.96  -3.57  -268.460873    2             
iter:  15  22:07:17  -6.18  -3.50  -268.463112    2             
iter:  16  22:08:15  -6.14  -3.47  -268.460843    2             
iter:  17  22:09:15  -6.03  -3.67  -268.461182    2             
iter:  18  22:10:13  -6.44  -3.59  -268.460856    2             
iter:  19  22:11:14  -6.57  -3.83  -268.460752    2             
iter:  20  22:12:14  -6.58  -3.90  -268.460533    2             
iter:  21  22:13:14  -6.65  -3.81  -268.461505    2             
iter:  22  22:14:15  -6.74  -3.82  -268.460696    2             
iter:  23  22:15:17  -6.90  -4.17  -268.460693    2             
iter:  24  22:16:17  -6.67  -4.18  -268.460949    2             
iter:  25  22:17:18  -6.97  -4.08  -268.460967    2             
iter:  26  22:18:19  -7.24  -4.16  -268.460701    2             
iter:  27  22:19:20  -7.85  -4.41  -268.460906    2             

Converged after 27 iterations.

Dipole moment: (22.918710, 19.773844, -0.073185) |e|*Ang

Energy contributions relative to reference atoms: (reference = -16429291.423757)

Kinetic:       -153.895426
Potential:      +96.111070
External:        +0.000000
XC:            -203.291043
Entropy (-ST):   -2.088961
Local:           -6.341027
--------------------------
Free energy:   -269.505386
Extrapolated:  -268.460906

Fermi level: 1.32169

Showing only first 2 kpts
 Kpt  Band  Eigenvalues  Occupancy
  0   357      1.28774    0.14602
  0   358      1.31952    0.12636
  0   359      1.37897    0.09015
  0   360      1.38829    0.08485

  1   357      1.17421    0.20345
  1   358      1.22869    0.17927
  1   359      1.25974    0.16253
  1   360      1.30014    0.13842



Forces in eV/Ang:
  0 Ag   -0.41709    0.15617   -1.04773
  1 Ag    0.24994    0.22384   -0.86284
  2 Ir    0.49800   -0.17723    0.04298
  3 Ir   -0.09669    1.23907    1.38340
  4 Ir    0.41640    0.40384    0.88392
  5 Ir   -0.32698   -0.02367    1.21618
  6 Ir   -1.72590   -0.50921    0.72954
  7 Ag   -0.11565   -0.33941   -0.93609
  8 Pt    1.04578   -0.38324    0.48674
  9 Ag    0.12342    0.02629    0.20018
 10 Ir   -0.01209   -0.41643    1.00049
 11 Ir   -0.63317   -0.76850   -0.48596
 12 Ir    0.37162    0.18238    0.18450
 13 Ag   -0.01367   -0.02942    0.18165
 14 Ag    0.04989    0.07266    0.16904
 15 Pt   -0.12732   -0.03831   -0.57195
 16 Ru    0.63109    0.46280   -1.36737
 17 Ir    0.11300    0.27621   -1.25624
 18 Ir    0.01294    0.01838    0.01203
 19 Pt    0.02878    0.00454    0.07114
 20 Pt   -0.01415    0.00349    0.02395
 21 Ag    0.00235   -0.00064   -0.01000
 22 Ag    0.01367   -0.03282    0.02155
 23 Ag   -0.01598    0.00202    0.03097
 24 Pt    0.00000   -0.01150    0.00467
 25 Ag    0.02501   -0.06615    0.03594
 26 Ir   -0.02318    0.01089   -0.00447
 27 Ru   -0.05799   -0.03718    0.05992
 28 Ir    0.03467   -0.03953    0.03373
 29 Ir    0.14158    0.04865    0.03219
 30 Ir    0.02245   -0.03464    0.01393
 31 Ir   -0.02518    0.01057    0.10476
 32 Pt    0.02225   -0.04008    0.05716
 33 Ag    0.04353   -0.07547   -0.01762
 34 Ir   -0.00741    0.03061    0.16626
 35 Ru   -0.06303   -0.05376   -0.02280
 36 Ir    0.04580   -0.11713   -0.02804
 37 Ir   -0.05908   -0.03000   -0.07650
 38 Pt    0.05845    0.04261    0.02341
 39 Ag    0.02637   -0.01933    0.02556
 40 Ir   -0.02176    0.05238    0.04237
 41 Pt   -0.04158   -0.00339   -0.45975
 42 Ir    0.09147   -0.01463   -0.06360
 43 Ir   -0.15406    0.11793    0.01575
 44 Ag    0.03400    0.02062    0.01795
 45 O    -0.59007   -0.70125    0.21132
 46 H     0.28139    0.40990   -0.04311

System changes: positions 

Initializing position-dependent things.

Density initialized from wave functions
                                             
                                             
                                             
                                             
                                             
                                             
                            H                
                          O                  
                  Ir    Ir     Ag            
            Ag            Pt                 
                  AIr     Ir    Ru           
       Ir    IIr    IPt    Pt                
                                             
        Ru     Ir    PIr    Ag     Ir        
                                             
                Ag     Ag     Ag             
           Ir    PPt    RPt    Ir            
                                             
            Ir    IAg    AAg    Pt           
       Ag     Ir     Ir                      
             Ir     Ir     Ir                
        Ag     Ag     Ir                     
                                             
                                             
                                             
                                             
                                             

Positions:
   0 Ag     0.000000    1.621936   10.000000    ( 0.0000,  0.0000,  0.0000)
   1 Ag     2.809275    1.621936   10.000000    ( 0.0000,  0.0000,  0.0000)
   2 Ir     5.618550    1.621936   10.000000    ( 0.0000,  0.0000,  0.0000)
   3 Ir     1.404638    4.054840   10.000000    ( 0.0000,  0.0000,  0.0000)
   4 Ir     4.213913    4.054840   10.000000    ( 0.0000,  0.0000,  0.0000)
   5 Ir     7.023188    4.054840   10.000000    ( 0.0000,  0.0000,  0.0000)
   6 Ir     2.809275    6.487743   10.000000    ( 0.0000,  0.0000,  0.0000)
   7 Ag     5.618550    6.487743   10.000000    ( 0.0000,  0.0000,  0.0000)
   8 Pt     8.427826    6.487743   10.000000    ( 0.0000,  0.0000,  0.0000)
   9 Ag     0.000000    0.000000   12.293764    ( 0.0000,  0.0000,  0.0000)
  10 Ir     2.809275    0.000000   12.293764    ( 0.0000,  0.0000,  0.0000)
  11 Ir     5.618550    0.000000   12.293764    ( 0.0000,  0.0000,  0.0000)
  12 Ir     1.404638    2.432904   12.293764    ( 0.0000,  0.0000,  0.0000)
  13 Ag     4.213913    2.432904   12.293764    ( 0.0000,  0.0000,  0.0000)
  14 Ag     7.023188    2.432904   12.293764    ( 0.0000,  0.0000,  0.0000)
  15 Pt     2.809275    4.865807   12.293764    ( 0.0000,  0.0000,  0.0000)
  16 Ru     5.618550    4.865807   12.293764    ( 0.0000,  0.0000,  0.0000)
  17 Ir     8.427826    4.865807   12.293764    ( 0.0000,  0.0000,  0.0000)
  18 Ir     1.446734    0.798073   14.611708    ( 0.0000,  0.0000,  0.0000)
  19 Pt     4.195734    0.722541   14.619186    ( 0.0000,  0.0000,  0.0000)
  20 Pt     7.034805    0.808676   14.653237    ( 0.0000,  0.0000,  0.0000)
  21 Ag     2.793357    3.266023   14.619744    ( 0.0000,  0.0000,  0.0000)
  22 Ag     5.617400    3.222213   14.638794    ( 0.0000,  0.0000,  0.0000)
  23 Ag     8.465666    3.235678   14.612141    ( 0.0000,  0.0000,  0.0000)
  24 Pt     4.243200    5.675956   14.605534    ( 0.0000,  0.0000,  0.0000)
  25 Ag     7.020997    5.609847   14.606204    ( 0.0000,  0.0000,  0.0000)
  26 Ir     9.808250    5.745329   14.533373    ( 0.0000,  0.0000,  0.0000)
  27 Ru     0.025379    1.661320   16.972394    ( 0.0000,  0.0000,  0.0000)
  28 Ir     2.771430    1.619709   16.889948    ( 0.0000,  0.0000,  0.0000)
  29 Ir     5.651592    1.650715   16.979411    ( 0.0000,  0.0000,  0.0000)
  30 Ir     1.343134    3.980826   17.022880    ( 0.0000,  0.0000,  0.0000)
  31 Ir     4.208610    3.967171   16.962518    ( 0.0000,  0.0000,  0.0000)
  32 Pt     7.115731    3.981455   17.054644    ( 0.0000,  0.0000,  0.0000)
  33 Ag     2.757406    6.453874   16.794439    ( 0.0000,  0.0000,  0.0000)
  34 Ir     5.665191    6.572450   16.870160    ( 0.0000,  0.0000,  0.0000)
  35 Ru     8.399074    6.472599   16.871734    ( 0.0000,  0.0000,  0.0000)
  36 Ir     0.005927   -0.069822   18.994545    ( 0.0000,  0.0000,  0.0000)
  37 Ir     2.782594   -0.024672   18.983649    ( 0.0000,  0.0000,  0.0000)
  38 Pt     5.608028   -0.060292   19.081242    ( 0.0000,  0.0000,  0.0000)
  39 Ag     1.429106    2.414234   19.551127    ( 0.0000,  0.0000,  0.0000)
  40 Ir     4.200440    2.404480   19.030157    ( 0.0000,  0.0000,  0.0000)
  41 Pt     6.999537    2.366026   19.358540    ( 0.0000,  0.0000,  0.0000)
  42 Ir     2.911362    4.874649   19.038849    ( 0.0000,  0.0000,  0.0000)
  43 Ir     5.513494    4.961012   19.024618    ( 0.0000,  0.0000,  0.0000)
  44 Ag     8.410746    4.874879   19.525366    ( 0.0000,  0.0000,  0.0000)
  45 O      6.928635    2.233753   21.411230    ( 0.0000,  0.0000,  0.0000)
  46 H      7.554684    2.952325   21.748707    ( 0.0000,  0.0000,  0.0000)

Unit cell:
           periodic     x           y           z      points  spacing
  1. axis:    yes    8.445283    0.000000    0.000000    35     0.2090
  2. axis:    yes    4.222641    7.313829    0.000000    35     0.2090
  3. axis:    no     0.000000    0.000000   29.175054   135     0.2161

  Lengths:   8.445283   8.445283  29.175054
  Angles:   90.000000  90.000000  60.000000

Effective grid spacing dv^(1/3) = 0.2217

                     log10-error:    total        iterations:
           time      wfs    density  energy       fermi  poisson
iter:   1  22:20:53  -2.24   +inf  -269.248321    3             
iter:   2  22:21:57  -2.77  -2.30  -271.339590    3             
iter:   3  22:22:47  -2.90  -1.90  -270.528287    3             
iter:   4  22:23:36  -3.45  -1.99  -268.602543    3             
iter:   5  22:24:26  -3.87  -2.62  -268.538416    3             
iter:   6  22:25:27  -4.04  -2.80  -268.494592    3             
iter:   7  22:26:26  -4.90  -2.92  -268.484844    3             
iter:   8  22:27:28  -4.63  -3.05  -268.474099    3             
iter:   9  22:28:29  -4.58  -3.23  -268.538455    3             
iter:  10  22:29:31  -4.87  -2.70  -268.470650    2             
iter:  11  22:30:33  -5.23  -3.31  -268.471438    2             
iter:  12  22:31:34  -5.55  -3.33  -268.468567    2             
iter:  13  22:32:36  -5.61  -3.47  -268.468912    3             
iter:  14  22:33:37  -5.96  -3.48  -268.467397    2             
iter:  15  22:34:38  -6.18  -3.53  -268.469991    2             
iter:  16  22:35:39  -6.19  -3.42  -268.467239    2             
iter:  17  22:36:40  -6.15  -3.59  -268.467362    2             
iter:  18  22:37:41  -5.89  -3.68  -268.466962    2             
iter:  19  22:38:42  -6.40  -3.68  -268.467060    2             
iter:  20  22:39:42  -6.80  -3.88  -268.466861    2             
iter:  21  22:40:43  -6.23  -3.88  -268.468770    2             
iter:  22  22:41:45  -6.75  -3.64  -268.466937    2             
iter:  23  22:42:46  -7.62  -4.20  -268.467048    2             

Converged after 23 iterations.

Dipole moment: (22.287191, 19.899199, -0.137905) |e|*Ang

Energy contributions relative to reference atoms: (reference = -16429291.423757)

Kinetic:       -152.920163
Potential:      +94.906923
External:        +0.000000
XC:            -203.086028
Entropy (-ST):   -2.081368
Local:           -6.327097
--------------------------
Free energy:   -269.507732
Extrapolated:  -268.467048

Fermi level: 1.29487

Showing only first 2 kpts
 Kpt  Band  Eigenvalues  Occupancy
  0   357      1.25604    0.14897
  0   358      1.29074    0.12758
  0   359      1.35357    0.08933
  0   360      1.36150    0.08483

  1   357      1.14350    0.20490
  1   358      1.20491    0.17771
  1   359      1.22972    0.16434
  1   360      1.26444    0.14388



Forces in eV/Ang:
  0 Ag   -0.41921    0.15710   -1.04732
  1 Ag    0.24993    0.22278   -0.85989
  2 Ir    0.49748   -0.17779    0.04062
  3 Ir   -0.09747    1.23719    1.37773
  4 Ir    0.41780    0.40654    0.87706
  5 Ir   -0.32727   -0.02200    1.20908
  6 Ir   -1.72752   -0.50942    0.72284
  7 Ag   -0.11536   -0.34077   -0.93181
  8 Pt    1.04722   -0.38008    0.49722
  9 Ag    0.12825    0.03031    0.23754
 10 Ir   -0.00940   -0.41156    1.05499
 11 Ir   -0.63329   -0.76106   -0.46482
 12 Ir    0.37414    0.18040    0.20548
 13 Ag   -0.01679   -0.04064    0.19981
 14 Ag    0.05311    0.07224    0.17989
 15 Pt   -0.12822   -0.03948   -0.56138
 16 Ru    0.63784    0.46535   -1.34536
 17 Ir    0.10021    0.27252   -1.24246
 18 Ir    0.04111   -0.03713   -0.05205
 19 Pt    0.00499    0.00619    0.04613
 20 Pt    0.01337   -0.04135    0.01418
 21 Ag    0.00428    0.00937   -0.00935
 22 Ag   -0.01523   -0.00324    0.02565
 23 Ag    0.00054   -0.00189    0.02220
 24 Pt    0.01874   -0.01140   -0.00634
 25 Ag   -0.01265   -0.01311    0.00644
 26 Ir   -0.01356   -0.00113    0.00320
 27 Ru    0.14146   -0.12741   -0.02913
 28 Ir    0.04072    0.02916    0.02783
 29 Ir   -0.19289   -0.15840   -0.27025
 30 Ir    0.09093   -0.00304    0.01473
 31 Ir   -0.07015   -0.02185   -0.02575
 32 Pt    0.11164    0.40205   -0.14998
 33 Ag    0.00779   -0.04674   -0.05809
 34 Ir   -0.06470   -0.01342    0.05866
 35 Ru   -0.03341   -0.09687    0.00023
 36 Ir    0.04799   -0.05673    0.00585
 37 Ir   -0.02399   -0.04187    0.04673
 38 Pt    0.02799   -0.03742    0.12586
 39 Ag   -0.01607   -0.01641    0.02281
 40 Ir   -0.01489    0.02655    0.03037
 41 Pt   -0.18292   -0.29266    0.23127
 42 Ir   -0.01175   -0.00919    0.03379
 43 Ir   -0.01253    0.07451    0.05762
 44 Ag    0.05860    0.08150    0.01008
 45 O     0.64445    0.72858   -0.22243
 46 H    -0.67716   -0.65511   -0.26505

System changes: positions 

Initializing position-dependent things.

Density initialized from wave functions
                                             
                                             
                                             
                                             
                                             
                                             
                            H                
                          O                  
                  Ir    Ir     Ag            
            Ag            Pt                 
                  AIr     Ir    Ru           
       Ir    IIr    IPt    Pt                
                                             
        Ru     Ir    PIr    Ag     Ir        
                                             
                Ag     Ag     Ag             
           Ir    PPt    RPt    Ir            
                                             
            Ir    IAg    AAg    Pt           
       Ag     Ir     Ir                      
             Ir     Ir     Ir                
        Ag     Ag     Ir                     
                                             
                                             
                                             
                                             
                                             

Positions:
   0 Ag     0.000000    1.621936   10.000000    ( 0.0000,  0.0000,  0.0000)
   1 Ag     2.809275    1.621936   10.000000    ( 0.0000,  0.0000,  0.0000)
   2 Ir     5.618550    1.621936   10.000000    ( 0.0000,  0.0000,  0.0000)
   3 Ir     1.404638    4.054840   10.000000    ( 0.0000,  0.0000,  0.0000)
   4 Ir     4.213913    4.054840   10.000000    ( 0.0000,  0.0000,  0.0000)
   5 Ir     7.023188    4.054840   10.000000    ( 0.0000,  0.0000,  0.0000)
   6 Ir     2.809275    6.487743   10.000000    ( 0.0000,  0.0000,  0.0000)
   7 Ag     5.618550    6.487743   10.000000    ( 0.0000,  0.0000,  0.0000)
   8 Pt     8.427826    6.487743   10.000000    ( 0.0000,  0.0000,  0.0000)
   9 Ag     0.000000    0.000000   12.293764    ( 0.0000,  0.0000,  0.0000)
  10 Ir     2.809275    0.000000   12.293764    ( 0.0000,  0.0000,  0.0000)
  11 Ir     5.618550    0.000000   12.293764    ( 0.0000,  0.0000,  0.0000)
  12 Ir     1.404638    2.432904   12.293764    ( 0.0000,  0.0000,  0.0000)
  13 Ag     4.213913    2.432904   12.293764    ( 0.0000,  0.0000,  0.0000)
  14 Ag     7.023188    2.432904   12.293764    ( 0.0000,  0.0000,  0.0000)
  15 Pt     2.809275    4.865807   12.293764    ( 0.0000,  0.0000,  0.0000)
  16 Ru     5.618550    4.865807   12.293764    ( 0.0000,  0.0000,  0.0000)
  17 Ir     8.427826    4.865807   12.293764    ( 0.0000,  0.0000,  0.0000)
  18 Ir     1.446134    0.795978   14.607388    ( 0.0000,  0.0000,  0.0000)
  19 Pt     4.193781    0.722902   14.613924    ( 0.0000,  0.0000,  0.0000)
  20 Pt     7.035522    0.807670   14.650428    ( 0.0000,  0.0000,  0.0000)
  21 Ag     2.792653    3.266423   14.618508    ( 0.0000,  0.0000,  0.0000)
  22 Ag     5.616703    3.224905   14.636937    ( 0.0000,  0.0000,  0.0000)
  23 Ag     8.466047    3.236578   14.610114    ( 0.0000,  0.0000,  0.0000)
  24 Pt     4.242319    5.676331   14.604828    ( 0.0000,  0.0000,  0.0000)
  25 Ag     7.020032    5.614495   14.601905    ( 0.0000,  0.0000,  0.0000)
  26 Ir     9.809599    5.744971   14.533983    ( 0.0000,  0.0000,  0.0000)
  27 Ru     0.036773    1.660806   16.963060    ( 0.0000,  0.0000,  0.0000)
  28 Ir     2.767902    1.623037   16.888339    ( 0.0000,  0.0000,  0.0000)
  29 Ir     5.630490    1.640387   16.962810    ( 0.0000,  0.0000,  0.0000)
  30 Ir     1.344630    3.986440   17.021538    ( 0.0000,  0.0000,  0.0000)
  31 Ir     4.207645    3.968598   16.959126    ( 0.0000,  0.0000,  0.0000)
  32 Pt     7.116985    3.996642   17.041260    ( 0.0000,  0.0000,  0.0000)
  33 Ag     2.756395    6.460075   16.796021    ( 0.0000,  0.0000,  0.0000)
  34 Ir     5.663609    6.569237   16.866422    ( 0.0000,  0.0000,  0.0000)
  35 Ru     8.401591    6.475888   16.873491    ( 0.0000,  0.0000,  0.0000)
  36 Ir     0.008532   -0.066254   18.994168    ( 0.0000,  0.0000,  0.0000)
  37 Ir     2.783802   -0.023858   18.985903    ( 0.0000,  0.0000,  0.0000)
  38 Pt     5.605710   -0.063526   19.088048    ( 0.0000,  0.0000,  0.0000)
  39 Ag     1.425377    2.416480   19.550364    ( 0.0000,  0.0000,  0.0000)
  40 Ir     4.202614    2.402506   19.026180    ( 0.0000,  0.0000,  0.0000)
  41 Pt     6.997823    2.359295   19.368209    ( 0.0000,  0.0000,  0.0000)
  42 Ir     2.910192    4.876549   19.041334    ( 0.0000,  0.0000,  0.0000)
  43 Ir     5.519140    4.957149   19.023588    ( 0.0000,  0.0000,  0.0000)
  44 Ag     8.409104    4.874780   19.526237    ( 0.0000,  0.0000,  0.0000)
  45 O      6.950518    2.265591   21.399134    ( 0.0000,  0.0000,  0.0000)
  46 H      7.559562    2.945433   21.787898    ( 0.0000,  0.0000,  0.0000)

Unit cell:
           periodic     x           y           z      points  spacing
  1. axis:    yes    8.445283    0.000000    0.000000    35     0.2090
  2. axis:    yes    4.222641    7.313829    0.000000    35     0.2090
  3. axis:    no     0.000000    0.000000   29.175054   135     0.2161

  Lengths:   8.445283   8.445283  29.175054
  Angles:   90.000000  90.000000  60.000000

Effective grid spacing dv^(1/3) = 0.2217

                     log10-error:    total        iterations:
           time      wfs    density  energy       fermi  poisson
iter:   1  22:44:15  -2.87   +inf  -268.710617    3             
iter:   2  22:45:16  -3.09  -2.53  -271.430208    3             
iter:   3  22:46:15  -3.46  -1.90  -268.521039    2             
iter:   4  22:47:14  -4.43  -2.97  -268.523060    3             
iter:   5  22:48:13  -4.73  -2.92  -268.500270    3             
iter:   6  22:49:12  -5.01  -3.15  -268.497022    3             
iter:   7  22:50:12  -5.22  -3.24  -268.494338    2             
iter:   8  22:51:13  -5.25  -3.32  -268.495633    2             
iter:   9  22:52:13  -5.44  -3.35  -268.496812    2             
iter:  10  22:53:14  -5.15  -3.13  -268.492999    2             
iter:  11  22:54:14  -5.67  -3.58  -268.491124    2             
iter:  12  22:55:14  -6.33  -3.62  -268.491327    2             
iter:  13  22:56:14  -6.65  -3.79  -268.491318    2             
iter:  14  22:57:14  -6.20  -3.89  -268.491637    2             
iter:  15  22:58:13  -6.53  -3.84  -268.490917    2             
iter:  16  22:59:13  -6.29  -3.78  -268.491798    2             
iter:  17  23:00:13  -6.78  -3.83  -268.490875    2             
iter:  18  23:01:13  -6.79  -4.18  -268.491327    2             
iter:  19  23:02:12  -7.06  -4.10  -268.491222    2             
iter:  20  23:03:12  -7.45  -4.15  -268.491038    2             

Converged after 20 iterations.

Dipole moment: (22.594035, 19.836245, -0.106651) |e|*Ang

Energy contributions relative to reference atoms: (reference = -16429291.423757)

Kinetic:       -153.581972
Potential:      +95.639569
External:        +0.000000
XC:            -203.185136
Entropy (-ST):   -2.084977
Local:           -6.321010
--------------------------
Free energy:   -269.533526
Extrapolated:  -268.491038

Fermi level: 1.30763

Showing only first 2 kpts
 Kpt  Band  Eigenvalues  Occupancy
  0   357      1.27117    0.14754
  0   358      1.30442    0.12701
  0   359      1.36563    0.08973
  0   360      1.37411    0.08492

  1   357      1.15823    0.20417
  1   358      1.21622    0.17846
  1   359      1.24412    0.16342
  1   360      1.28140    0.14130



Forces in eV/Ang:
  0 Ag   -0.41890    0.15714   -1.04588
  1 Ag    0.25079    0.22369   -0.85905
  2 Ir    0.49688   -0.17804    0.04281
  3 Ir   -0.09743    1.23881    1.38076
  4 Ir    0.41703    0.40596    0.88110
  5 Ir   -0.32679   -0.02086    1.21405
  6 Ir   -1.72689   -0.50995    0.72720
  7 Ag   -0.11529   -0.34218   -0.93178
  8 Pt    1.04730   -0.38274    0.49312
  9 Ag    0.12739    0.02712    0.21995
 10 Ir   -0.01538   -0.41541    1.02485
 11 Ir   -0.63031   -0.76431   -0.47576
 12 Ir    0.37317    0.17801    0.19507
 13 Ag   -0.01493   -0.03501    0.19005
 14 Ag    0.05128    0.07142    0.17257
 15 Pt   -0.12742   -0.03726   -0.57125
 16 Ru    0.63442    0.46791   -1.35492
 17 Ir    0.10552    0.27514   -1.25106
 18 Ir    0.02262   -0.01132   -0.02289
 19 Pt    0.02926    0.01249    0.07834
 20 Pt   -0.00914   -0.03249    0.01385
 21 Ag    0.00667    0.00443   -0.00398
 22 Ag   -0.01153   -0.01768    0.02460
 23 Ag    0.00030    0.00604    0.02193
 24 Pt    0.01189   -0.01164    0.00368
 25 Ag    0.00426   -0.04077    0.02468
 26 Ir   -0.01847    0.00923    0.01285
 27 Ru    0.06885   -0.09574   -0.00312
 28 Ir    0.05993   -0.00731    0.02696
 29 Ir   -0.07982   -0.07612   -0.15103
 30 Ir    0.07085    0.00026   -0.00317
 31 Ir   -0.06528   -0.00525    0.02422
 32 Pt    0.06592    0.22276   -0.06701
 33 Ag    0.01798   -0.07350   -0.04627
 34 Ir   -0.03562    0.00141    0.11517
 35 Ru   -0.04127   -0.06705   -0.01520
 36 Ir    0.07347   -0.10133    0.00852
 37 Ir   -0.04259   -0.04161   -0.01596
 38 Pt    0.02245   -0.01476    0.08081
 39 Ag   -0.00117   -0.01657    0.04603
 40 Ir   -0.03795    0.03180    0.03946
 41 Pt   -0.10188   -0.12958   -0.08190
 42 Ir    0.03885   -0.00982   -0.01826
 43 Ir   -0.07378    0.11775    0.05323
 44 Ag    0.03933    0.04657    0.03315
 45 O    -0.00477    0.01063   -0.04427
 46 H    -0.17436   -0.08583   -0.16172

System changes: positions 

Initializing position-dependent things.

Density initialized from wave functions
                                             
                                             
                                             
                                             
                                             
                                             
                            H                
                          O                  
                  Ir    Ir     Ag            
            Ag            Pt                 
                  AIr     Ir    Ru           
       Ir    IIr    IPt    Pt                
                                             
        Ru     Ir    PIr    Ag     Ir        
                                             
                Ag     Ag     Ag             
           Ir    PPt    RPt    Ir            
                                             
            Ir    IAg    AAg    Pt           
       Ag     Ir     Ir                      
             Ir     Ir     Ir                
        Ag     Ag     Ir                     
                                             
                                             
                                             
                                             
                                             

Positions:
   0 Ag     0.000000    1.621936   10.000000    ( 0.0000,  0.0000,  0.0000)
   1 Ag     2.809275    1.621936   10.000000    ( 0.0000,  0.0000,  0.0000)
   2 Ir     5.618550    1.621936   10.000000    ( 0.0000,  0.0000,  0.0000)
   3 Ir     1.404638    4.054840   10.000000    ( 0.0000,  0.0000,  0.0000)
   4 Ir     4.213913    4.054840   10.000000    ( 0.0000,  0.0000,  0.0000)
   5 Ir     7.023188    4.054840   10.000000    ( 0.0000,  0.0000,  0.0000)
   6 Ir     2.809275    6.487743   10.000000    ( 0.0000,  0.0000,  0.0000)
   7 Ag     5.618550    6.487743   10.000000    ( 0.0000,  0.0000,  0.0000)
   8 Pt     8.427826    6.487743   10.000000    ( 0.0000,  0.0000,  0.0000)
   9 Ag     0.000000    0.000000   12.293764    ( 0.0000,  0.0000,  0.0000)
  10 Ir     2.809275    0.000000   12.293764    ( 0.0000,  0.0000,  0.0000)
  11 Ir     5.618550    0.000000   12.293764    ( 0.0000,  0.0000,  0.0000)
  12 Ir     1.404638    2.432904   12.293764    ( 0.0000,  0.0000,  0.0000)
  13 Ag     4.213913    2.432904   12.293764    ( 0.0000,  0.0000,  0.0000)
  14 Ag     7.023188    2.432904   12.293764    ( 0.0000,  0.0000,  0.0000)
  15 Pt     2.809275    4.865807   12.293764    ( 0.0000,  0.0000,  0.0000)
  16 Ru     5.618550    4.865807   12.293764    ( 0.0000,  0.0000,  0.0000)
  17 Ir     8.427826    4.865807   12.293764    ( 0.0000,  0.0000,  0.0000)
  18 Ir     1.448145    0.795591   14.607319    ( 0.0000,  0.0000,  0.0000)
  19 Pt     4.197012    0.724080   14.622984    ( 0.0000,  0.0000,  0.0000)
  20 Pt     7.034579    0.805049   14.652326    ( 0.0000,  0.0000,  0.0000)
  21 Ag     2.793615    3.266582   14.618757    ( 0.0000,  0.0000,  0.0000)
  22 Ag     5.615520    3.222513   14.639640    ( 0.0000,  0.0000,  0.0000)
  23 Ag     8.466200    3.236496   14.612725    ( 0.0000,  0.0000,  0.0000)
  24 Pt     4.243918    5.675192   14.605219    ( 0.0000,  0.0000,  0.0000)
  25 Ag     7.020315    5.609758   14.605680    ( 0.0000,  0.0000,  0.0000)
  26 Ir     9.807536    5.745972   14.534861    ( 0.0000,  0.0000,  0.0000)
[...]
  22 Ag     5.618774    3.150137   14.655942    ( 0.0000,  0.0000,  0.0000)
  23 Ag     8.473363    3.171404   14.628946    ( 0.0000,  0.0000,  0.0000)
  24 Pt     4.240332    5.608943   14.596045    ( 0.0000,  0.0000,  0.0000)
  25 Ag     7.014455    5.539618   14.598730    ( 0.0000,  0.0000,  0.0000)
  26 Ir     9.801826    5.699690   14.502478    ( 0.0000,  0.0000,  0.0000)
  27 Ru     0.027243    1.532583   16.985335    ( 0.0000,  0.0000,  0.0000)
  28 Ir     2.770133    1.498706   16.916722    ( 0.0000,  0.0000,  0.0000)
  29 Ir     5.625517    1.508294   16.967340    ( 0.0000,  0.0000,  0.0000)
  30 Ir     1.350258    3.830410   17.079868    ( 0.0000,  0.0000,  0.0000)
  31 Ir     4.200508    3.842304   16.988965    ( 0.0000,  0.0000,  0.0000)
  32 Pt     7.122583    3.906852   17.048270    ( 0.0000,  0.0000,  0.0000)
  33 Ag     2.732626    6.311290   16.797432    ( 0.0000,  0.0000,  0.0000)
  34 Ir     5.642665    6.449134   16.870971    ( 0.0000,  0.0000,  0.0000)
  35 Ru     8.378442    6.352591   16.870759    ( 0.0000,  0.0000,  0.0000)
  36 Ir    -0.012203   -0.218250   18.988445    ( 0.0000,  0.0000,  0.0000)
  37 Ir     2.768260   -0.188977   18.994377    ( 0.0000,  0.0000,  0.0000)
  38 Pt     5.566698   -0.238994   19.103762    ( 0.0000,  0.0000,  0.0000)
  39 Ag     1.408904    2.240173   19.601419    ( 0.0000,  0.0000,  0.0000)
  40 Ir     4.192772    2.279605   19.052578    ( 0.0000,  0.0000,  0.0000)
  41 Pt     6.945066    2.153488   19.315085    ( 0.0000,  0.0000,  0.0000)
  42 Ir     2.892596    4.727230   19.066319    ( 0.0000,  0.0000,  0.0000)
  43 Ir     5.501205    4.833927   19.048734    ( 0.0000,  0.0000,  0.0000)
  44 Ag     8.381445    4.698035   19.575427    ( 0.0000,  0.0000,  0.0000)
  45 O      7.026976    2.064987   21.352764    ( 0.0000,  0.0000,  0.0000)
  46 H      6.736666    2.942868   21.691326    ( 0.0000,  0.0000,  0.0000)

Unit cell:
           periodic     x           y           z      points  spacing
  1. axis:    yes    8.445283    0.000000    0.000000    35     0.2090
  2. axis:    yes    4.222641    7.313829    0.000000    35     0.2090
  3. axis:    no     0.000000    0.000000   29.175054   135     0.2161

  Lengths:   8.445283   8.445283  29.175054
  Angles:   90.000000  90.000000  60.000000

Effective grid spacing dv^(1/3) = 0.2217

                     log10-error:    total        iterations:
           time      wfs    density  energy       fermi  poisson
iter:   1  07:26:09  -3.34   +inf  -269.077609    3             
iter:   2  07:27:08  -2.43  -2.33  -282.748733    4             
iter:   3  07:28:07  -2.75  -1.57  -268.857021    3             
iter:   4  07:29:06  -3.68  -2.51  -268.655585    3             
iter:   5  07:30:04  -5.05  -3.17  -268.650842    3             
iter:   6  07:31:03  -5.57  -3.35  -268.647730    2             
iter:   7  07:32:00  -5.59  -3.54  -268.645984    2             
iter:   8  07:32:59  -5.93  -3.73  -268.647793    2             
iter:   9  07:33:57  -5.82  -3.51  -268.645323    2             
iter:  10  07:34:55  -6.23  -3.61  -268.645372    2             
iter:  11  07:35:53  -6.38  -4.00  -268.645493    2             
iter:  12  07:36:51  -6.71  -3.97  -268.645045    2             
iter:  13  07:37:49  -7.19  -4.03  -268.645209    2             
iter:  14  07:38:48  -7.30  -4.20  -268.645314    2             
iter:  15  07:39:45  -7.39  -4.19  -268.644973    2             
iter:  16  07:40:44  -7.13  -4.00  -268.645232    2             
iter:  17  07:41:44  -7.53  -4.33  -268.645215    2             

Converged after 17 iterations.

Dipole moment: (24.081685, 29.024498, -0.100765) |e|*Ang

Energy contributions relative to reference atoms: (reference = -16429291.423757)

Kinetic:       -152.806900
Potential:      +94.766250
External:        +0.000000
XC:            -203.234982
Entropy (-ST):   -2.073540
Local:           -6.332812
--------------------------
Free energy:   -269.681985
Extrapolated:  -268.645215

Fermi level: 1.31363

Showing only first 2 kpts
 Kpt  Band  Eigenvalues  Occupancy
  0   357      1.27245    0.15038
  0   358      1.31709    0.12284
  0   359      1.36745    0.09215
  0   360      1.37321    0.08883

  1   357      1.16529    0.20377
  1   358      1.23519    0.17165
  1   359      1.25162    0.16256
  1   360      1.28716    0.14145



Forces in eV/Ang:
  0 Ag   -0.42099    0.15628   -1.04836
  1 Ag    0.25040    0.22290   -0.85778
  2 Ir    0.49235   -0.19882    0.07780
  3 Ir   -0.10281    1.22927    1.40012
  4 Ir    0.40756    0.41545    0.85946
  5 Ir   -0.32584   -0.00782    1.16973
  6 Ir   -1.71816   -0.51391    0.71632
  7 Ag   -0.11705   -0.34623   -0.93464
  8 Pt    1.03491   -0.39027    0.48760
  9 Ag    0.12205    0.01095    0.26227
 10 Ir   -0.03363   -0.44681    1.07534
 11 Ir   -0.63754   -0.77943   -0.43218
 12 Ir    0.40151    0.10553    0.17592
 13 Ag   -0.02501   -0.06868    0.26056
 14 Ag    0.06220    0.03010    0.25733
 15 Pt   -0.10029   -0.16457   -0.57843
 16 Ru    0.62539    0.38066   -1.35683
 17 Ir    0.06671    0.15434   -1.25127
 18 Ir    0.00249    0.01659   -0.01724
 19 Pt    0.01552   -0.00672    0.02427
 20 Pt   -0.01006   -0.02815   -0.00002
 21 Ag   -0.00427    0.00015   -0.00935
 22 Ag   -0.03418    0.01337    0.00259
 23 Ag   -0.00119    0.01769    0.01968
 24 Pt   -0.00904    0.00431    0.00458
 25 Ag    0.02796    0.02079    0.00113
 26 Ir    0.02310    0.01227    0.03911
 27 Ru    0.00137    0.03164   -0.05577
 28 Ir    0.01794   -0.00176   -0.04991
 29 Ir   -0.04665    0.01472   -0.01162
 30 Ir   -0.06423    0.01478   -0.03126
 31 Ir    0.01846   -0.02398   -0.05220
 32 Pt    0.02863    0.02994   -0.00451
 33 Ag   -0.01496   -0.00360   -0.08334
 34 Ir    0.01679   -0.03016   -0.01821
 35 Ru    0.02059    0.01143    0.00052
 36 Ir    0.01856   -0.04282    0.07610
 37 Ir    0.01847   -0.02947    0.03333
 38 Pt   -0.01747   -0.01968   -0.02049
 39 Ag   -0.01240    0.02013    0.04311
 40 Ir   -0.01454    0.00244    0.01239
 41 Pt    0.00676   -0.01176   -0.01420
 42 Ir    0.00428    0.02459    0.03791
 43 Ir    0.00694    0.04565   -0.02850
 44 Ag    0.01642    0.06348   -0.02632
 45 O     0.00514   -0.15583   -0.00410
 46 H    -0.09655    0.14974    0.00189

System changes: positions 

Initializing position-dependent things.

Density initialized from wave functions
                                             
                                             
                                             
                                             
                                             
                                             
                          H                  
                          O    Ag            
                  Ir    Ir                   
            Ag            Pt                 
                  AIr     Ir    Ru           
       Ir    IIr    IPt    Pt                
                                             
        Ru     Ir     Ir    Ag     Ir        
                Ag     Ag     Ag             
                                             
           Ir     Pt    RPt    Ir            
                                             
            Ir     Ag    AAg    Pt           
       Ag     Ir    IIr    Ir                
                                             
        Ag     Ag     Ir                     
                                             
                                             
                                             
                                             
                                             

Positions:
   0 Ag     0.000000    1.621936   10.000000    ( 0.0000,  0.0000,  0.0000)
   1 Ag     2.809275    1.621936   10.000000    ( 0.0000,  0.0000,  0.0000)
   2 Ir     5.618550    1.621936   10.000000    ( 0.0000,  0.0000,  0.0000)
   3 Ir     1.404638    4.054840   10.000000    ( 0.0000,  0.0000,  0.0000)
   4 Ir     4.213913    4.054840   10.000000    ( 0.0000,  0.0000,  0.0000)
   5 Ir     7.023188    4.054840   10.000000    ( 0.0000,  0.0000,  0.0000)
   6 Ir     2.809275    6.487743   10.000000    ( 0.0000,  0.0000,  0.0000)
   7 Ag     5.618550    6.487743   10.000000    ( 0.0000,  0.0000,  0.0000)
   8 Pt     8.427826    6.487743   10.000000    ( 0.0000,  0.0000,  0.0000)
   9 Ag     0.000000    0.000000   12.293764    ( 0.0000,  0.0000,  0.0000)
  10 Ir     2.809275    0.000000   12.293764    ( 0.0000,  0.0000,  0.0000)
  11 Ir     5.618550    0.000000   12.293764    ( 0.0000,  0.0000,  0.0000)
  12 Ir     1.404638    2.432904   12.293764    ( 0.0000,  0.0000,  0.0000)
  13 Ag     4.213913    2.432904   12.293764    ( 0.0000,  0.0000,  0.0000)
  14 Ag     7.023188    2.432904   12.293764    ( 0.0000,  0.0000,  0.0000)
  15 Pt     2.809275    4.865807   12.293764    ( 0.0000,  0.0000,  0.0000)
  16 Ru     5.618550    4.865807   12.293764    ( 0.0000,  0.0000,  0.0000)
  17 Ir     8.427826    4.865807   12.293764    ( 0.0000,  0.0000,  0.0000)
  18 Ir     1.448964    0.717898   14.623155    ( 0.0000,  0.0000,  0.0000)
  19 Pt     4.185927    0.663849   14.632794    ( 0.0000,  0.0000,  0.0000)
  20 Pt     7.042142    0.737016   14.672930    ( 0.0000,  0.0000,  0.0000)
  21 Ag     2.786695    3.206738   14.635402    ( 0.0000,  0.0000,  0.0000)
  22 Ag     5.617777    3.150789   14.655018    ( 0.0000,  0.0000,  0.0000)
  23 Ag     8.473431    3.172345   14.628973    ( 0.0000,  0.0000,  0.0000)
  24 Pt     4.239473    5.608787   14.595919    ( 0.0000,  0.0000,  0.0000)
  25 Ag     7.015263    5.539912   14.597829    ( 0.0000,  0.0000,  0.0000)
  26 Ir     9.802736    5.700074   14.503487    ( 0.0000,  0.0000,  0.0000)
  27 Ru     0.027992    1.531958   16.983205    ( 0.0000,  0.0000,  0.0000)
  28 Ir     2.771238    1.498381   16.915367    ( 0.0000,  0.0000,  0.0000)
  29 Ir     5.623406    1.508332   16.967475    ( 0.0000,  0.0000,  0.0000)
  30 Ir     1.349512    3.831168   17.078988    ( 0.0000,  0.0000,  0.0000)
  31 Ir     4.201468    3.842462   16.987940    ( 0.0000,  0.0000,  0.0000)
  32 Pt     7.123567    3.906119   17.047888    ( 0.0000,  0.0000,  0.0000)
  33 Ag     2.732217    6.311508   16.796616    ( 0.0000,  0.0000,  0.0000)
  34 Ir     5.643380    6.447859   16.870178    ( 0.0000,  0.0000,  0.0000)
  35 Ru     8.378782    6.352572   16.869133    ( 0.0000,  0.0000,  0.0000)
  36 Ir    -0.011397   -0.218956   18.988523    ( 0.0000,  0.0000,  0.0000)
  37 Ir     2.769293   -0.190476   18.994167    ( 0.0000,  0.0000,  0.0000)
  38 Pt     5.564686   -0.241273   19.103214    ( 0.0000,  0.0000,  0.0000)
  39 Ag     1.409871    2.240078   19.602115    ( 0.0000,  0.0000,  0.0000)
  40 Ir     4.194085    2.281502   19.052614    ( 0.0000,  0.0000,  0.0000)
  41 Pt     6.945909    2.151069   19.317182    ( 0.0000,  0.0000,  0.0000)
  42 Ir     2.892795    4.727713   19.066443    ( 0.0000,  0.0000,  0.0000)
  43 Ir     5.501472    4.834547   19.047551    ( 0.0000,  0.0000,  0.0000)
  44 Ag     8.379084    4.697478   19.572953    ( 0.0000,  0.0000,  0.0000)
  45 O      7.029876    2.061574   21.354765    ( 0.0000,  0.0000,  0.0000)
  46 H      6.736965    2.940641   21.696614    ( 0.0000,  0.0000,  0.0000)

Unit cell:
           periodic     x           y           z      points  spacing
  1. axis:    yes    8.445283    0.000000    0.000000    35     0.2090
  2. axis:    yes    4.222641    7.313829    0.000000    35     0.2090
  3. axis:    no     0.000000    0.000000   29.175054   135     0.2161

  Lengths:   8.445283   8.445283  29.175054
  Angles:   90.000000  90.000000  60.000000

Effective grid spacing dv^(1/3) = 0.2217

                     log10-error:    total        iterations:
           time      wfs    density  energy       fermi  poisson
iter:   1  07:43:03  -4.18   +inf  -268.802470    3             
iter:   2  07:43:54  -2.78  -2.52  -276.454911    3             
iter:   3  07:44:47  -3.05  -1.72  -268.663783    3             
iter:   4  07:45:38  -4.42  -3.11  -268.647227    3             
iter:   5  07:46:29  -5.53  -3.73  -268.646007    2             
iter:   6  07:47:20  -6.12  -3.77  -268.645514    2             
iter:   7  07:48:11  -6.58  -4.11  -268.645395    2             
iter:   8  07:49:02  -6.89  -4.18  -268.645306    2             
iter:   9  07:49:54  -6.80  -4.23  -268.646033    2             
iter:  10  07:50:45  -6.98  -3.92  -268.645348    2             
iter:  11  07:51:37  -7.26  -4.36  -268.645249    2             
iter:  12  07:52:28  -7.20  -4.32  -268.645357    2             
iter:  13  07:53:19  -7.79  -4.37  -268.645219    2             

Converged after 13 iterations.

Dipole moment: (24.019896, 29.138869, -0.101104) |e|*Ang

Energy contributions relative to reference atoms: (reference = -16429291.423757)

Kinetic:       -152.874995
Potential:      +94.809616
External:        +0.000000
XC:            -203.195345
Entropy (-ST):   -2.073629
Local:           -6.347681
--------------------------
Free energy:   -269.682034
Extrapolated:  -268.645219

Fermi level: 1.31333

Showing only first 2 kpts
 Kpt  Band  Eigenvalues  Occupancy
  0   357      1.27230    0.15029
  0   358      1.31662    0.12295
  0   359      1.36717    0.09214
  0   360      1.37254    0.08904

  1   357      1.16534    0.20364
  1   358      1.23517    0.17150
  1   359      1.25151    0.16245
  1   360      1.28662    0.14160



Forces in eV/Ang:
  0 Ag   -0.42057    0.15653   -1.04882
  1 Ag    0.25019    0.22366   -0.85943
  2 Ir    0.49203   -0.19779    0.07918
  3 Ir   -0.10163    1.22691    1.39622
  4 Ir    0.40779    0.41404    0.85942
  5 Ir   -0.32569   -0.00871    1.17055
  6 Ir   -1.71622   -0.51296    0.71455
  7 Ag   -0.11720   -0.34590   -0.93548
  8 Pt    1.03390   -0.38940    0.48511
  9 Ag    0.12266    0.01308    0.25945
 10 Ir   -0.03443   -0.44568    1.06960
 11 Ir   -0.64040   -0.78376   -0.44027
 12 Ir    0.39854    0.10487    0.17120
 13 Ag   -0.02523   -0.06866    0.25449
 14 Ag    0.06366    0.03037    0.25516
 15 Pt   -0.10567   -0.16561   -0.58674
 16 Ru    0.62497    0.38041   -1.36110
 17 Ir    0.07554    0.15463   -1.25246
 18 Ir    0.00233    0.00877   -0.01936
 19 Pt    0.00890   -0.00004    0.00745
 20 Pt    0.00526   -0.00579    0.00939
 21 Ag    0.00358   -0.00359   -0.00692
 22 Ag   -0.01941    0.00936    0.00917
 23 Ag   -0.01441    0.00763    0.00742
 24 Pt    0.01446    0.01054    0.00120
 25 Ag    0.01090    0.01757   -0.00023
 26 Ir    0.00577    0.00196    0.00377
 27 Ru   -0.01254    0.02447   -0.00876
 28 Ir   -0.01538    0.01178    0.00377
 29 Ir    0.01970    0.01836    0.00371
 30 Ir   -0.02029   -0.01476    0.00562
 31 Ir   -0.01398   -0.01755   -0.03360
 32 Pt    0.00189    0.00043   -0.00000
 33 Ag    0.00697    0.00992   -0.04466
 34 Ir    0.00659    0.00119   -0.00772
 35 Ru    0.01035    0.01488    0.01318
 36 Ir    0.00377   -0.00669    0.03308
 37 Ir   -0.00228    0.02869    0.01705
 38 Pt    0.02039    0.01811   -0.02391
 39 Ag   -0.00198    0.01349    0.01638
 40 Ir   -0.03298   -0.01547    0.01946
 41 Pt   -0.01217    0.00459   -0.02616
 42 Ir   -0.00611    0.01166    0.00811
 43 Ir    0.00922    0.01045   -0.00185
 44 Ag    0.02213    0.03047   -0.00121
 45 O    -0.05610    0.00258    0.01480
 46 H    -0.05559    0.02121   -0.02560

Timing:                                      incl.     excl.
-------------------------------------------------------------------
Density initialized from wave functions:   106.072   106.070   0.2% |
 Symmetrize density:                         0.002     0.002   0.0% |
Forces:                                    496.961   496.961   1.1% |
Hamiltonian:                                86.295     0.335   0.0% |
 Atomic:                                    18.219    10.807   0.0% |
  XC Correction:                             7.413     7.413   0.0% |
 Calculate atomic Hamiltonians:             31.600    31.600   0.1% |
 Communicate:                                9.210     9.210   0.0% |
 Initialize Hamiltonian:                     0.001     0.001   0.0% |
 Poisson:                                    0.132     0.132   0.0% |
 XC 3D grid:                                26.799    26.799   0.1% |
LCAO initialization:                        55.680     2.591   0.0% |
 LCAO eigensolver:                           5.230     0.002   0.0% |
  Calculate projections:                     0.065     0.065   0.0% |
  DenseAtomicCorrection:                     0.076     0.076   0.0% |
  Distribute overlap matrix:                 0.317     0.317   0.0% |
  Orbital Layouts:                           0.490     0.490   0.0% |
  Potential matrix:                          4.231     4.231   0.0% |
  Sum over cells:                            0.049     0.049   0.0% |
 LCAO to grid:                              46.044    46.044   0.1% |
 Set positions (LCAO WFS):                   1.815     0.848   0.0% |
  Basic WFS set positions:                   0.002     0.002   0.0% |
  Basis functions set positions:             0.000     0.000   0.0% |
  P tci:                                     0.404     0.404   0.0% |
  ST tci:                                    0.418     0.418   0.0% |
  mktci:                                     0.143     0.143   0.0% |
PWDescriptor:                                0.051     0.051   0.0% |
Redistribute:                                3.119     3.119   0.0% |
SCF-cycle:                               42717.570  3559.723   8.1% |--|
 Davidson:                               35305.017  9053.201  20.7% |-------|
  Apply H:                                5903.280  5752.630  13.2% |----|
   HMM T:                                  150.650   150.650   0.3% |
  Subspace diag:                          4809.586     0.201   0.0% |
   calc_h_matrix:                         2721.280   793.089   1.8% ||
    Apply H:                              1928.190  1877.052   4.3% |-|
     HMM T:                                 51.138    51.138   0.1% |
   diagonalize:                            290.044   290.044   0.7% |
   rotate_psi:                            1798.061  1798.061   4.1% |-|
  calc. matrices:                        10388.686  6554.970  15.0% |-----|
   Apply H:                               3833.717  3733.275   8.5% |--|
    HMM T:                                 100.442   100.442   0.2% |
  diagonalize:                            1434.981  1434.981   3.3% ||
  rotate_psi:                             3715.283  3715.283   8.5% |--|
 Density:                                 1970.879     0.040   0.0% |
  Atomic density matrices:                  12.356    12.356   0.0% |
  Mix:                                     797.540   797.540   1.8% ||
  Multipole moments:                         0.726     0.726   0.0% |
  Pseudo density:                         1160.217  1160.175   2.7% ||
   Symmetrize density:                       0.042     0.042   0.0% |
 Hamiltonian:                             1720.945     6.892   0.0% |
  Atomic:                                  360.106   207.242   0.5% |
   XC Correction:                          152.864   152.864   0.3% |
  Calculate atomic Hamiltonians:           658.043   658.043   1.5% ||
  Communicate:                             140.863   140.863   0.3% |
  Poisson:                                   2.754     2.754   0.0% |
  XC 3D grid:                              552.287   552.287   1.3% ||
 Orthonormalize:                           161.006     0.014   0.0% |
  calc_s_matrix:                            18.105    18.105   0.0% |
  inverse-cholesky:                          7.395     7.395   0.0% |
  projections:                              94.111    94.111   0.2% |
  rotate_psi_s:                             41.381    41.381   0.1% |
Set symmetry:                                0.001     0.001   0.0% |
Other:                                     224.222   224.222   0.5% |
-------------------------------------------------------------------
Total:                                             43689.972 100.0%

Date: Fri Mar  4 07:53:32 2022
