
  ___ ___ ___ _ _ _  
 |   |   |_  | | | | 
 | | | | | . | | | | 
 |__ |  _|___|_____|  1.5.1
 |___|_|             

User:   clausen@node031.cluster
Date:   Thu Mar  3 20:06:22 2022
Arch:   x86_64
Pid:    54448
Python: 3.6.12
gpaw:   /software/kemi/gpaw/1.5.1/gpaw
_gpaw:  /software/kemi/gpaw/1.5.1/bin/gpaw-python
ase:    /software/kemi/ase/3.17.0/ase (version 3.17.0)
numpy:  /opt/rh/rh-python36/root/usr/lib64/python3.6/site-packages/numpy (version 1.13.1)
scipy:  /opt/rh/rh-python36/root/usr/lib64/python3.6/site-packages/scipy (version 0.19.1)
units:  Angstrom and eV
cores:  16

Input parameters:
  kpts: [4 4 1]
  mode: {ecut: 400.0,
         gammacentered: False,
         name: pw}
  xc: RPBE

System changes: positions, numbers, cell, pbc, initial_charges, initial_magmoms 

Initialize ...

Ag-setup:
  name: Silver
  id: c05e55bab2c3858b3f9398f6d75cb77c
  Z: 47
  valence: 17
  core: 30
  charge: 0.0
  file: /software/kemi/gpaw-setups/0.9.20000/Ag.RPBE.gz
  cutoffs: 1.25(comp), 2.35(filt), 2.19(core), lmax=2
  valence states:
                energy  radius
    5s(1.00)    -4.277   1.286
    4p(6.00)   -58.523   1.328
    5p(0.00)    -0.755   1.328
    4d(10.00)    -7.386   1.180
    *s          22.934   1.286
    *d          19.826   1.180

  Using partial waves for Ag as LCAO basis

Ir-setup:
  name: Iridium
  id: 73b603359d1d5397a85ae3c2440f9033
  Z: 77
  valence: 15
  core: 62
  charge: 0.0
  file: /software/kemi/gpaw-setups/0.9.20000/Ir.RPBE.gz
  cutoffs: 1.26(comp), 2.40(filt), 2.36(core), lmax=2
  valence states:
                energy  radius
    6s(2.00)    -6.219   1.296
    5p(6.00)   -54.684   1.328
    6p(0.00)    -1.215   1.328
    5d(7.00)    -7.118   1.286
    *s          20.992   1.296
    *d          20.093   1.286

  Using partial waves for Ir as LCAO basis

Pt-setup:
  name: Platinum
  id: f04f522592575c47ad794f6b4a415b4b
  Z: 78
  valence: 16
  core: 62
  charge: 0.0
  file: /software/kemi/gpaw-setups/0.9.20000/Pt.RPBE.gz
  cutoffs: 1.29(comp), 2.26(filt), 2.26(core), lmax=2
  valence states:
                energy  radius
    6s(1.00)    -5.516   1.307
    5p(6.00)   -55.971   1.371
    6p(0.00)    -0.856   1.371
    5d(9.00)    -6.087   1.307
    *s          21.695   1.307
    *d          21.125   1.307

  Using partial waves for Pt as LCAO basis

Ru-setup:
  name: Ruthenium
  id: 76477906e28f51dc1b29884d53556fe9
  Z: 44
  valence: 16
  core: 28
  charge: 0.0
  file: /software/kemi/gpaw-setups/0.9.20000/Ru.RPBE.gz
  cutoffs: 1.23(comp), 2.16(filt), 1.30(core), lmax=2
  valence states:
                energy  radius
    4s(2.00)   -76.255   1.281
    5s(1.00)    -4.126   1.281
    4p(6.00)   -46.371   1.286
    5p(0.00)    -0.913   1.286
    4d(7.00)    -5.146   1.254
    *d          22.066   1.254

  Using partial waves for Ru as LCAO basis

O-setup:
  name: Oxygen
  id: 08071ca1eed670e7821b24b7eb4d558c
  Z: 8
  valence: 6
  core: 2
  charge: 0.0
  file: /software/kemi/gpaw-setups/0.9.20000/O.RPBE.gz
  cutoffs: 0.67(comp), 1.17(filt), 0.83(core), lmax=2
  valence states:
                energy  radius
    2s(2.00)   -24.041   0.688
    2p(4.00)    -8.984   0.598
    *s           3.170   0.688
    *p          18.228   0.598
    *d           0.000   0.619

  Using partial waves for O as LCAO basis

Reference energy: -16429278.754816

Spin-paired calculation

Occupation numbers:
  Fermi-Dirac: width=0.1000 eV

Convergence criteria:
  Maximum total energy change: 0.0005 eV / electron
  Maximum integral of absolute density change: 0.0001 electrons
  Maximum integral of absolute eigenstate change: 4e-08 eV^2
  Maximum number of iterations: 333

Symmetries present (total): 1

  ( 1  0  0)
  ( 0  1  0)
  ( 0  0  1)

16 k-points: 4 x 4 x 1 Monkhorst-Pack grid
8 k-points in the irreducible part of the Brillouin zone
       k-points in crystal coordinates                weights
   0:     0.12500000   -0.37500000    0.00000000          2/16
   1:     0.12500000   -0.12500000    0.00000000          2/16
   2:     0.12500000    0.12500000    0.00000000          2/16
   3:     0.12500000    0.37500000    0.00000000          2/16
   4:     0.37500000   -0.37500000    0.00000000          2/16
   5:     0.37500000   -0.12500000    0.00000000          2/16
   6:     0.37500000    0.12500000    0.00000000          2/16
   7:     0.37500000    0.37500000    0.00000000          2/16

Wave functions: Plane wave expansion
  Cutoff energy: 400.000 eV
  Number of coefficients (min, max): 32722, 32776
  Pulay-stress correction: 0.000000 eV/Ang^3 (de/decut=0.000000)
  Using FFTW library
  ScaLapack parameters: grid=1x1, blocksize=None
  Wavefunction extrapolation:
    Improved wavefunction reuse through dual PAW basis 

Eigensolver
   Davidson(niter=2, smin=None, normalize=True) 

Densities:
  Coarse grid: 35*35*135 grid
  Fine grid: 70*70*270 grid
  Total Charge: 0.000000 

Density mixing:
  Method: separate
  Backend: pulay
  Linear mixing parameter: 0.05
  Mixing with 5 old densities
  Damping of long wave oscillations: 50 

Hamiltonian:
  XC and Coulomb potentials evaluated on a 70*70*270 grid
  Using the RPBE Exchange-Correlation functional
 

XC parameters: RPBE with 2 nearest neighbor stencil

Memory estimate:
  Process memory now: 149.09 MiB
  Calculator: 540.22 MiB
    Density: 48.12 MiB
      Arrays: 16.41 MiB
      Localized functions: 25.35 MiB
      Mixer: 6.36 MiB
    Hamiltonian: 11.50 MiB
      Arrays: 10.73 MiB
      XC: 0.00 MiB
      Poisson: 0.00 MiB
      vbar: 0.77 MiB
    Wavefunctions: 480.60 MiB
      Arrays psit_nG: 217.55 MiB
      Eigensolver: 248.94 MiB
      Projections: 2.73 MiB
      Projectors: 4.75 MiB
      PW-descriptor: 6.62 MiB

Total number of cores used: 16
Parallelization over k-points: 8
Domain decomposition: 1 x 1 x 2

Number of atoms: 46
Number of atomic orbitals: 547
Number of bands in calculation: 435
Bands to converge: occupied states only
Number of valence electrons: 718

... initialized

Initializing position-dependent things.

Density initialized from atomic densities
Creating initial wave functions:
  435 bands from LCAO basis set

                                             
                                             
                                             
                                             
                     O                       
                                             
                               Ag            
                  Ir    Ir                   
            Ag                               
                  AIr     Pt    Ru           
       Ir    IIr    IPt    Pt                
                                             
         Ru    Ir    PIr    Ag     Ir        
                Ag     Ag     Ag             
                                             
           Ir    PPt    RPt    Ir            
                                             
            Ir    IAg    AAg    Pt           
       Ag     Ir     Ir                      
             Ir     Ir     Ir                
        Ag     Ag     Ir                     
                                             
                                             
                                             
                                             
                                             

Positions:
   0 Ag     0.000000    1.621936   10.000000    ( 0.0000,  0.0000,  0.0000)
   1 Ag     2.809275    1.621936   10.000000    ( 0.0000,  0.0000,  0.0000)
   2 Ir     5.618550    1.621936   10.000000    ( 0.0000,  0.0000,  0.0000)
   3 Ir     1.404638    4.054840   10.000000    ( 0.0000,  0.0000,  0.0000)
   4 Ir     4.213913    4.054840   10.000000    ( 0.0000,  0.0000,  0.0000)
   5 Ir     7.023188    4.054840   10.000000    ( 0.0000,  0.0000,  0.0000)
   6 Ir     2.809275    6.487743   10.000000    ( 0.0000,  0.0000,  0.0000)
   7 Ag     5.618550    6.487743   10.000000    ( 0.0000,  0.0000,  0.0000)
   8 Pt     8.427826    6.487743   10.000000    ( 0.0000,  0.0000,  0.0000)
   9 Ag     0.000000    0.000000   12.293764    ( 0.0000,  0.0000,  0.0000)
  10 Ir     2.809275    0.000000   12.293764    ( 0.0000,  0.0000,  0.0000)
  11 Ir     5.618550    0.000000   12.293764    ( 0.0000,  0.0000,  0.0000)
  12 Ir     1.404638    2.432904   12.293764    ( 0.0000,  0.0000,  0.0000)
  13 Ag     4.213913    2.432904   12.293764    ( 0.0000,  0.0000,  0.0000)
  14 Ag     7.023188    2.432904   12.293764    ( 0.0000,  0.0000,  0.0000)
  15 Pt     2.809275    4.865807   12.293764    ( 0.0000,  0.0000,  0.0000)
  16 Ru     5.618550    4.865807   12.293764    ( 0.0000,  0.0000,  0.0000)
  17 Ir     8.427826    4.865807   12.293764    ( 0.0000,  0.0000,  0.0000)
  18 Ir     1.441638    0.791118   14.593247    ( 0.0000,  0.0000,  0.0000)
  19 Pt     4.193480    0.729862   14.611205    ( 0.0000,  0.0000,  0.0000)
  20 Pt     7.034823    0.803600   14.634811    ( 0.0000,  0.0000,  0.0000)
  21 Ag     2.789574    3.267050   14.608106    ( 0.0000,  0.0000,  0.0000)
  22 Ag     5.614143    3.230616   14.629701    ( 0.0000,  0.0000,  0.0000)
  23 Ag     8.464759    3.239382   14.607930    ( 0.0000,  0.0000,  0.0000)
  24 Pt     4.237230    5.675263   14.599690    ( 0.0000,  0.0000,  0.0000)
  25 Ag     7.020289    5.624637   14.588938    ( 0.0000,  0.0000,  0.0000)
  26 Ir     9.810296    5.749034   14.534386    ( 0.0000,  0.0000,  0.0000)
  27 Ru     0.088724    1.655821   16.925664    ( 0.0000,  0.0000,  0.0000)
  28 Ir     2.745717    1.627778   16.875164    ( 0.0000,  0.0000,  0.0000)
  29 Ir     5.551846    1.597836   16.889230    ( 0.0000,  0.0000,  0.0000)
  30 Ir     1.358794    4.007324   17.013226    ( 0.0000,  0.0000,  0.0000)
  31 Ir     4.198339    3.977911   16.957702    ( 0.0000,  0.0000,  0.0000)
  32 Pt     7.125382    4.056246   16.998429    ( 0.0000,  0.0000,  0.0000)
  33 Ag     2.759687    6.474835   16.802442    ( 0.0000,  0.0000,  0.0000)
  34 Ir     5.663661    6.563267   16.864024    ( 0.0000,  0.0000,  0.0000)
  35 Ru     8.399575    6.483077   16.866623    ( 0.0000,  0.0000,  0.0000)
  36 Ir     0.015859   -0.055829   18.998154    ( 0.0000,  0.0000,  0.0000)
  37 Ir     2.776668   -0.025110   18.984491    ( 0.0000,  0.0000,  0.0000)
  38 Pt     5.623976   -0.052286   19.132338    ( 0.0000,  0.0000,  0.0000)
  39 Ag     1.411190    2.424549   19.550242    ( 0.0000,  0.0000,  0.0000)
  40 Ir     4.228423    2.403175   19.018562    ( 0.0000,  0.0000,  0.0000)
  41 Pt     6.964575    2.313754   19.128521    ( 0.0000,  0.0000,  0.0000)
  42 Ir     2.920544    4.885225   19.043791    ( 0.0000,  0.0000,  0.0000)
  43 Ir     5.524960    4.949858   19.026821    ( 0.0000,  0.0000,  0.0000)
  44 Ag     8.407084    4.876484   19.535850    ( 0.0000,  0.0000,  0.0000)
  45 O      4.228002    5.697694   20.850242    ( 0.0000,  0.0000,  0.0000)

Unit cell:
           periodic     x           y           z      points  spacing
  1. axis:    yes    8.445283    0.000000    0.000000    35     0.2090
  2. axis:    yes    4.222641    7.313829    0.000000    35     0.2090
  3. axis:    no     0.000000    0.000000   29.175054   135     0.2161

  Lengths:   8.445283   8.445283  29.175054
  Angles:   90.000000  90.000000  60.000000

Effective grid spacing dv^(1/3) = 0.2217

                     log10-error:    total        iterations:
           time      wfs    density  energy       fermi  poisson
iter:   1  20:08:24  +0.17   +inf  -295.219653    2             
iter:   2  20:09:23  -1.11  -1.38  -294.750770    37            
iter:   3  20:10:27  -1.36  -1.32  -328.795220    36            
iter:   4  20:11:33  -1.77  -1.25  -275.061635    3             
iter:   5  20:12:38  -2.27  -1.49  -269.602992    36            
iter:   6  20:13:45  -2.53  -1.55  -267.915070    3             
iter:   7  20:14:50  -2.29  -1.60  -265.659560    3             
iter:   8  20:15:56  -2.22  -1.73  -264.623040    3             
iter:   9  20:17:02  -2.68  -1.94  -264.661207    3             
iter:  10  20:18:07  -2.96  -2.08  -265.129851    3             
iter:  11  20:19:13  -3.09  -2.07  -266.136513    3             
iter:  12  20:20:17  -3.39  -1.96  -264.780821    3             
iter:  13  20:21:22  -3.55  -2.22  -264.724300    3             
iter:  14  20:22:28  -3.58  -2.25  -264.672898    3             
iter:  15  20:23:32  -3.58  -2.35  -264.645321    3             
iter:  16  20:24:37  -3.81  -2.42  -264.619258    3             
iter:  17  20:25:42  -3.72  -2.48  -265.029104    3             
iter:  18  20:26:48  -3.82  -2.24  -264.591526    3             
iter:  19  20:27:54  -4.09  -2.53  -264.542959    3             
iter:  20  20:28:59  -3.99  -2.65  -264.517039    2             
iter:  21  20:30:05  -4.28  -2.73  -264.506940    3             
iter:  22  20:31:10  -4.54  -2.74  -264.499298    3             
iter:  23  20:32:17  -4.49  -2.82  -264.538756    2             
iter:  24  20:33:23  -4.64  -2.70  -264.499888    3             
iter:  25  20:34:28  -4.79  -2.85  -264.496155    3             
iter:  26  20:35:34  -4.98  -2.95  -264.496094    3             
iter:  27  20:36:39  -5.46  -3.02  -264.493958    2             
iter:  28  20:37:46  -5.47  -3.04  -264.494640    2             
iter:  29  20:38:52  -5.03  -3.10  -264.504474    3             
iter:  30  20:39:58  -5.45  -3.02  -264.490342    2             
iter:  31  20:41:04  -5.29  -3.15  -264.489992    2             
iter:  32  20:42:09  -5.56  -3.24  -264.491253    3             
iter:  33  20:43:15  -5.95  -3.27  -264.488379    2             
iter:  34  20:44:21  -5.94  -3.35  -264.489851    2             
iter:  35  20:45:26  -5.76  -3.37  -264.490911    2             
iter:  36  20:46:32  -5.99  -3.38  -264.488032    2             
iter:  37  20:47:38  -5.45  -3.44  -264.488781    2             
iter:  38  20:48:44  -5.94  -3.56  -264.491703    2             
iter:  39  20:49:51  -6.14  -3.41  -264.488407    2             
iter:  40  20:50:55  -6.53  -3.73  -264.489076    2             
iter:  41  20:51:58  -6.35  -3.67  -264.488550    2             
iter:  42  20:53:03  -6.23  -3.78  -264.487624    2             
iter:  43  20:54:11  -6.55  -3.97  -264.487774    2             
iter:  44  20:55:19  -6.82  -4.07  -264.488908    2             
iter:  45  20:56:26  -6.71  -3.77  -264.487497    2             
iter:  46  20:57:34  -7.49  -4.11  -264.487849    2             

Converged after 46 iterations.

Dipole moment: (21.967180, 18.571925, -0.287451) |e|*Ang

Energy contributions relative to reference atoms: (reference = -16429278.754816)

Kinetic:       -166.324910
Potential:     +107.751855
External:        +0.000000
XC:            -198.650218
Entropy (-ST):   -2.066339
Local:           -6.231406
--------------------------
Free energy:   -265.521018
Extrapolated:  -264.487849

Fermi level: 1.21250

Showing only first 2 kpts
 Kpt  Band  Eigenvalues  Occupancy
  0   357      1.20649    0.12875
  0   358      1.23084    0.11357
  0   359      1.27492    0.08721
  0   360      1.30195    0.07254

  1   357      1.10241    0.18761
  1   358      1.11739    0.18033
  1   359      1.16343    0.15507
  1   360      1.19631    0.13510



Forces in eV/Ang:
  0 Ag   -0.41729    0.16277   -1.04486
  1 Ag    0.25081    0.22431   -0.86473
  2 Ir    0.49652   -0.17636    0.02139
  3 Ir   -0.10707    1.23791    1.37765
  4 Ir    0.40951    0.40163    0.87494
  5 Ir   -0.32221   -0.03098    1.21500
  6 Ir   -1.71903   -0.50386    0.72814
  7 Ag   -0.11996   -0.34710   -0.95027
  8 Pt    1.06572   -0.38167    0.47493
  9 Ag    0.14094    0.01612    0.16338
 10 Ir   -0.03205   -0.41860    0.98832
 11 Ir   -0.65140   -0.78179   -0.53587
 12 Ir    0.37861    0.16150    0.17417
 13 Ag   -0.01665   -0.03578    0.15000
 14 Ag    0.05928    0.08505    0.12987
 15 Pt   -0.14481   -0.04119   -0.61422
 16 Ru    0.62853    0.47824   -1.37514
 17 Ir    0.12994    0.28135   -1.27303
 18 Ir    0.06308    0.03139   -0.02868
 19 Pt    0.00708    0.04548    0.00682
 20 Pt    0.00765   -0.00580    0.06298
 21 Ag    0.00525    0.00890    0.04563
 22 Ag    0.02118   -0.01045    0.03414
 23 Ag    0.00948    0.04020   -0.05679
 24 Pt    0.02141    0.00811    0.05222
 25 Ag   -0.00819   -0.04101    0.00020
 26 Ir    0.03023   -0.07396    0.01487
 27 Ru   -0.06559   -0.34414    0.27744
 28 Ir    0.01426   -0.01216    0.12124
 29 Ir    0.02308   -0.00704    0.04576
 30 Ir    0.24040    0.21142    0.25922
 31 Ir   -0.04986    0.03924   -0.19227
 32 Pt   -0.27404    0.12386    0.26266
 33 Ag    0.00652   -0.05083    0.00440
 34 Ir   -0.12068    0.02461   -0.09635
 35 Ru    0.01912   -0.03668    0.09909
 36 Ir    0.13816   -0.11572    0.95552
 37 Ir    0.27010    0.16280   -0.04073
 38 Pt   -0.23945    0.10078   -0.07804
 39 Ag   -0.01401   -0.03139   -0.02976
 40 Ir   -0.04507   -0.35378   -0.04579
 41 Pt   -0.02253   -0.00182   -0.02800
 42 Ir    0.03968    0.00823    1.09224
 43 Ir   -0.15396    0.15581    1.21326
 44 Ag   -0.00783   -0.03234   -0.01652
 45 O    -0.05032   -0.27054   -3.53337

System changes: positions 

Initializing position-dependent things.

Density initialized from wave functions
                                             
                                             
                                             
                                             
                     O                       
                                             
                               Ag            
                  Ir    Ir                   
            Ag            Pt    Ru           
                  AIr                        
       Ir    IIr    IPt    Pt                
                                             
         Ru    Ir    PIr    Ag     Ir        
                Ag     Ag     Ag             
                                             
           Ir    PPt    RPt    Ir            
                                             
            Ir    IAg    AAg    Pt           
       Ag     Ir     Ir                      
             Ir     Ir     Ir                
        Ag     Ag     Ir                     
                                             
                                             
                                             
                                             
                                             

Positions:
   0 Ag     0.000000    1.621936   10.000000    ( 0.0000,  0.0000,  0.0000)
   1 Ag     2.809275    1.621936   10.000000    ( 0.0000,  0.0000,  0.0000)
   2 Ir     5.618550    1.621936   10.000000    ( 0.0000,  0.0000,  0.0000)
   3 Ir     1.404638    4.054840   10.000000    ( 0.0000,  0.0000,  0.0000)
   4 Ir     4.213913    4.054840   10.000000    ( 0.0000,  0.0000,  0.0000)
   5 Ir     7.023188    4.054840   10.000000    ( 0.0000,  0.0000,  0.0000)
   6 Ir     2.809275    6.487743   10.000000    ( 0.0000,  0.0000,  0.0000)
   7 Ag     5.618550    6.487743   10.000000    ( 0.0000,  0.0000,  0.0000)
   8 Pt     8.427826    6.487743   10.000000    ( 0.0000,  0.0000,  0.0000)
   9 Ag     0.000000    0.000000   12.293764    ( 0.0000,  0.0000,  0.0000)
  10 Ir     2.809275    0.000000   12.293764    ( 0.0000,  0.0000,  0.0000)
  11 Ir     5.618550    0.000000   12.293764    ( 0.0000,  0.0000,  0.0000)
  12 Ir     1.404638    2.432904   12.293764    ( 0.0000,  0.0000,  0.0000)
  13 Ag     4.213913    2.432904   12.293764    ( 0.0000,  0.0000,  0.0000)
  14 Ag     7.023188    2.432904   12.293764    ( 0.0000,  0.0000,  0.0000)
  15 Pt     2.809275    4.865807   12.293764    ( 0.0000,  0.0000,  0.0000)
  16 Ru     5.618550    4.865807   12.293764    ( 0.0000,  0.0000,  0.0000)
  17 Ir     8.427826    4.865807   12.293764    ( 0.0000,  0.0000,  0.0000)
  18 Ir     1.445198    0.792890   14.591629    ( 0.0000,  0.0000,  0.0000)
  19 Pt     4.193880    0.732429   14.611590    ( 0.0000,  0.0000,  0.0000)
  20 Pt     7.035255    0.803272   14.638365    ( 0.0000,  0.0000,  0.0000)
  21 Ag     2.789870    3.267552   14.610680    ( 0.0000,  0.0000,  0.0000)
  22 Ag     5.615338    3.230027   14.631627    ( 0.0000,  0.0000,  0.0000)
  23 Ag     8.465295    3.241651   14.604725    ( 0.0000,  0.0000,  0.0000)
  24 Pt     4.238438    5.675720   14.602637    ( 0.0000,  0.0000,  0.0000)
  25 Ag     7.019827    5.622322   14.588949    ( 0.0000,  0.0000,  0.0000)
  26 Ir     9.812002    5.744860   14.535225    ( 0.0000,  0.0000,  0.0000)
  27 Ru     0.085023    1.636400   16.941320    ( 0.0000,  0.0000,  0.0000)
  28 Ir     2.746522    1.627092   16.882005    ( 0.0000,  0.0000,  0.0000)
  29 Ir     5.553149    1.597438   16.891812    ( 0.0000,  0.0000,  0.0000)
  30 Ir     1.372360    4.019255   17.027855    ( 0.0000,  0.0000,  0.0000)
  31 Ir     4.195526    3.980125   16.946852    ( 0.0000,  0.0000,  0.0000)
  32 Pt     7.109917    4.063235   17.013252    ( 0.0000,  0.0000,  0.0000)
  33 Ag     2.760056    6.471967   16.802691    ( 0.0000,  0.0000,  0.0000)
  34 Ir     5.656851    6.564655   16.858587    ( 0.0000,  0.0000,  0.0000)
  35 Ru     8.400654    6.481007   16.872215    ( 0.0000,  0.0000,  0.0000)
  36 Ir     0.023655   -0.062359   19.052077    ( 0.0000,  0.0000,  0.0000)
  37 Ir     2.791911   -0.015923   18.982193    ( 0.0000,  0.0000,  0.0000)
  38 Pt     5.610463   -0.046598   19.127934    ( 0.0000,  0.0000,  0.0000)
  39 Ag     1.410399    2.422777   19.548563    ( 0.0000,  0.0000,  0.0000)
  40 Ir     4.225880    2.383210   19.015979    ( 0.0000,  0.0000,  0.0000)
  41 Pt     6.963304    2.313651   19.126941    ( 0.0000,  0.0000,  0.0000)
  42 Ir     2.922783    4.885689   19.105428    ( 0.0000,  0.0000,  0.0000)
  43 Ir     5.516272    4.958651   19.095288    ( 0.0000,  0.0000,  0.0000)
  44 Ag     8.406642    4.874659   19.534918    ( 0.0000,  0.0000,  0.0000)
  45 O      4.225162    5.682427   20.650846    ( 0.0000,  0.0000,  0.0000)

Unit cell:
           periodic     x           y           z      points  spacing
  1. axis:    yes    8.445283    0.000000    0.000000    35     0.2090
  2. axis:    yes    4.222641    7.313829    0.000000    35     0.2090
  3. axis:    no     0.000000    0.000000   29.175054   135     0.2161

  Lengths:   8.445283   8.445283  29.175054
  Angles:   90.000000  90.000000  60.000000

Effective grid spacing dv^(1/3) = 0.2217

                     log10-error:    total        iterations:
           time      wfs    density  energy       fermi  poisson
iter:   1  20:59:14  -1.98   +inf  -274.408377    37            
iter:   2  21:00:22  -1.16  -1.73  -358.164810    36            
iter:   3  21:01:26  -1.32  -1.25  -299.494780    37            
iter:   4  21:02:28  -2.31  -1.47  -266.744375    36            
iter:   5  21:03:36  -2.90  -2.11  -266.065989    3             
iter:   6  21:04:37  -3.63  -2.22  -265.417945    3             
iter:   7  21:05:37  -3.84  -2.57  -265.318711    3             
iter:   8  21:06:38  -4.00  -2.65  -265.291463    3             
iter:   9  21:07:38  -4.22  -2.62  -265.264734    2             
iter:  10  21:08:39  -4.14  -2.77  -265.283509    3             
iter:  11  21:09:40  -3.91  -2.61  -265.202328    3             
iter:  12  21:10:39  -4.85  -3.12  -265.191807    3             
iter:  13  21:11:40  -5.32  -3.25  -265.191035    2             
iter:  14  21:12:41  -5.44  -3.35  -265.189373    3             
iter:  15  21:13:42  -5.73  -3.35  -265.194389    2             
iter:  16  21:14:44  -5.60  -3.28  -265.189384    2             
iter:  17  21:15:44  -5.64  -3.28  -265.189553    2             
iter:  18  21:16:45  -5.94  -3.60  -265.189018    2             
iter:  19  21:17:46  -6.10  -3.74  -265.188757    2             
iter:  20  21:18:47  -6.30  -3.83  -265.188728    2             
iter:  21  21:19:48  -6.26  -3.89  -265.190828    2             
iter:  22  21:20:48  -6.30  -3.60  -265.188020    2             
iter:  23  21:21:48  -6.70  -3.65  -265.188558    2             
iter:  24  21:22:49  -6.82  -4.07  -265.188562    2             
iter:  25  21:23:49  -6.94  -4.16  -265.188311    2             
iter:  26  21:24:50  -7.02  -4.26  -265.188489    2             
iter:  27  21:25:50  -7.30  -4.25  -265.188680    2             
iter:  28  21:26:51  -7.02  -4.16  -265.187821    2             
iter:  29  21:27:52  -7.08  -3.85  -265.188588    2             
iter:  30  21:28:52  -7.39  -4.23  -265.188629    2             
iter:  31  21:29:53  -7.76  -4.31  -265.188414    2             

Converged after 31 iterations.

Dipole moment: (21.403951, 18.304480, -0.153377) |e|*Ang

Energy contributions relative to reference atoms: (reference = -16429278.754816)

Kinetic:       -160.621381
Potential:     +102.366390
External:        +0.000000
XC:            -199.553076
Entropy (-ST):   -2.072499
Local:           -6.344098
--------------------------
Free energy:   -266.224664
Extrapolated:  -265.188414

Fermi level: 1.27709

Showing only first 2 kpts
 Kpt  Band  Eigenvalues  Occupancy
  0   357      1.27400    0.12693
  0   358      1.29196    0.11572
  0   359      1.34172    0.08596
  0   360      1.37354    0.06899

  1   357      1.16339    0.18928
  1   358      1.18150    0.18057
  1   359      1.22958    0.15415
  1   360      1.26061    0.13527



Forces in eV/Ang:
  0 Ag   -0.41241    0.15987   -1.04823
  1 Ag    0.25133    0.22380   -0.86992
  2 Ir    0.49282   -0.17571    0.03008
  3 Ir   -0.10659    1.24710    1.36462
  4 Ir    0.40365    0.40111    0.88444
  5 Ir   -0.31891   -0.02792    1.21670
  6 Ir   -1.71829   -0.50817    0.73094
  7 Ag   -0.12100   -0.34019   -0.95347
  8 Pt    1.06043   -0.38337    0.48530
  9 Ag    0.13183    0.01339    0.17240
 10 Ir   -0.02573   -0.41649    0.99039
 11 Ir   -0.64439   -0.78743   -0.52642
 12 Ir    0.39759    0.16817    0.18627
 13 Ag   -0.01364   -0.02620    0.15915
 14 Ag    0.04982    0.07431    0.14416
 15 Pt   -0.13146   -0.03656   -0.61090
 16 Ru    0.62318    0.47744   -1.37575
 17 Ir    0.12987    0.29373   -1.26944
 18 Ir    0.03813   -0.01421    0.04198
 19 Pt    0.01503   -0.01210    0.00466
 20 Pt    0.02119   -0.00347    0.04953
 21 Ag   -0.01310   -0.00917    0.03982
 22 Ag    0.03866   -0.00883    0.01851
 23 Ag   -0.00234    0.00188    0.07926
 24 Pt    0.01820    0.01604    0.01197
 25 Ag    0.02027   -0.02672    0.03505
 26 Ir    0.01354   -0.02138    0.02601
 27 Ru   -0.03421   -0.11036    0.23973
 28 Ir   -0.10091    0.04767    0.05978
 29 Ir    0.06444    0.02861   -0.01483
 30 Ir    0.03982    0.06744    0.23741
 31 Ir   -0.00729    0.13980    0.34253
 32 Pt   -0.20815    0.13682    0.27625
 33 Ag    0.08437   -0.08150    0.26486
 34 Ir   -0.08002   -0.04388    0.10012
 35 Ru   -0.00331   -0.11234    0.04398
 36 Ir    0.00143    0.12052    0.10863
 37 Ir    0.15573    0.09114    0.01836
 38 Pt   -0.13136    0.04670   -0.01406
 39 Ag   -0.04851    0.00202   -0.02715
 40 Ir   -0.05611   -0.21868   -0.00905
 41 Pt   -0.00331    0.02390   -0.00239
 42 Ir   -0.16060   -0.15878   -0.04545
 43 Ir    0.22735   -0.17889    0.11959
 44 Ag   -0.00856   -0.05557   -0.01029
 45 O    -0.02558   -0.06223   -1.50126

System changes: positions 

Initializing position-dependent things.

Density initialized from wave functions
                                             
                                             
                                             
                                             
                     O                       
                                             
                               Ag            
                  Ir    Ir                   
            Ag    AIr    IPt    Ru           
                                             
       Ir    IIr    IPt    Pt                
         Ru    Ir                            
                     PIr    Ag     Ir        
                Ag     Ag     Ag             
                                             
           Ir    PPt    RPt    Ir            
                                             
            Ir    IAg    AAg    Pt           
       Ag    IIr    IIr    Ir                
                                             
        Ag     Ag     Ir                     
                                             
                                             
                                             
                                             
                                             

Positions:
   0 Ag     0.000000    1.621936   10.000000    ( 0.0000,  0.0000,  0.0000)
   1 Ag     2.809275    1.621936   10.000000    ( 0.0000,  0.0000,  0.0000)
   2 Ir     5.618550    1.621936   10.000000    ( 0.0000,  0.0000,  0.0000)
   3 Ir     1.404638    4.054840   10.000000    ( 0.0000,  0.0000,  0.0000)
   4 Ir     4.213913    4.054840   10.000000    ( 0.0000,  0.0000,  0.0000)
   5 Ir     7.023188    4.054840   10.000000    ( 0.0000,  0.0000,  0.0000)
   6 Ir     2.809275    6.487743   10.000000    ( 0.0000,  0.0000,  0.0000)
   7 Ag     5.618550    6.487743   10.000000    ( 0.0000,  0.0000,  0.0000)
   8 Pt     8.427826    6.487743   10.000000    ( 0.0000,  0.0000,  0.0000)
   9 Ag     0.000000    0.000000   12.293764    ( 0.0000,  0.0000,  0.0000)
  10 Ir     2.809275    0.000000   12.293764    ( 0.0000,  0.0000,  0.0000)
  11 Ir     5.618550    0.000000   12.293764    ( 0.0000,  0.0000,  0.0000)
  12 Ir     1.404638    2.432904   12.293764    ( 0.0000,  0.0000,  0.0000)
  13 Ag     4.213913    2.432904   12.293764    ( 0.0000,  0.0000,  0.0000)
  14 Ag     7.023188    2.432904   12.293764    ( 0.0000,  0.0000,  0.0000)
  15 Pt     2.809275    4.865807   12.293764    ( 0.0000,  0.0000,  0.0000)
  16 Ru     5.618550    4.865807   12.293764    ( 0.0000,  0.0000,  0.0000)
  17 Ir     8.427826    4.865807   12.293764    ( 0.0000,  0.0000,  0.0000)
  18 Ir     1.450488    0.790460   14.598271    ( 0.0000,  0.0000,  0.0000)
  19 Pt     4.196114    0.730205   14.612244    ( 0.0000,  0.0000,  0.0000)
  20 Pt     7.038424    0.802791   14.645395    ( 0.0000,  0.0000,  0.0000)
  21 Ag     2.787828    3.266079   14.616374    ( 0.0000,  0.0000,  0.0000)
  22 Ag     5.621059    3.228767   14.634166    ( 0.0000,  0.0000,  0.0000)
  23 Ag     8.464858    3.241603   14.617286    ( 0.0000,  0.0000,  0.0000)
  24 Pt     4.241036    5.678099   14.604028    ( 0.0000,  0.0000,  0.0000)
  25 Ag     7.022987    5.618588   14.594293    ( 0.0000,  0.0000,  0.0000)
  26 Ir     9.813816    5.742215   14.539069    ( 0.0000,  0.0000,  0.0000)
  27 Ru     0.080352    1.622433   16.975575    ( 0.0000,  0.0000,  0.0000)
  28 Ir     2.731011    1.634464   16.890113    ( 0.0000,  0.0000,  0.0000)
  29 Ir     5.562786    1.601861   16.889168    ( 0.0000,  0.0000,  0.0000)
  30 Ir     1.376432    4.027781   17.061909    ( 0.0000,  0.0000,  0.0000)
  31 Ir     4.194829    4.001122   17.000699    ( 0.0000,  0.0000,  0.0000)
  32 Pt     7.080450    4.083072   17.053201    ( 0.0000,  0.0000,  0.0000)
  33 Ag     2.772870    6.459958   16.843053    ( 0.0000,  0.0000,  0.0000)
  34 Ir     5.645651    6.557757   16.874661    ( 0.0000,  0.0000,  0.0000)
  35 Ru     8.399989    6.464177   16.878098    ( 0.0000,  0.0000,  0.0000)
  36 Ir     0.022722   -0.043012   19.060688    ( 0.0000,  0.0000,  0.0000)
  37 Ir     2.813415   -0.003377   18.985332    ( 0.0000,  0.0000,  0.0000)
  38 Pt     5.592421   -0.040314   19.126440    ( 0.0000,  0.0000,  0.0000)
  39 Ag     1.403116    2.423347   19.544670    ( 0.0000,  0.0000,  0.0000)
  40 Ir     4.217697    2.352800   19.014980    ( 0.0000,  0.0000,  0.0000)
  41 Pt     6.962986    2.317312   19.126810    ( 0.0000,  0.0000,  0.0000)
  42 Ir     2.897956    4.861402   19.089398    ( 0.0000,  0.0000,  0.0000)
  43 Ir     5.552233    4.930067   19.103423    ( 0.0000,  0.0000,  0.0000)
  44 Ag     8.405401    4.866452   19.533487    ( 0.0000,  0.0000,  0.0000)
  45 O      4.221679    5.675189   20.451287    ( 0.0000,  0.0000,  0.0000)

Unit cell:
           periodic     x           y           z      points  spacing
  1. axis:    yes    8.445283    0.000000    0.000000    35     0.2090
  2. axis:    yes    4.222641    7.313829    0.000000    35     0.2090
  3. axis:    no     0.000000    0.000000   29.175054   135     0.2161

  Lengths:   8.445283   8.445283  29.175054
  Angles:   90.000000  90.000000  60.000000

Effective grid spacing dv^(1/3) = 0.2217

                     log10-error:    total        iterations:
           time      wfs    density  energy       fermi  poisson
iter:   1  21:31:21  -1.72   +inf  -307.220841    3             
iter:   2  21:32:23  +0.39  -1.39  -810.444735    37            
iter:   3  21:33:23  -0.54  -0.82  -282.102656    39            
iter:   4  21:34:24  -1.78  -1.63  -266.216941    35            
iter:   5  21:35:25  -2.81  -2.27  -266.287871    3             
iter:   6  21:36:25  -3.29  -2.16  -265.937241    3             
iter:   7  21:37:26  -3.76  -2.26  -265.536175    3             
iter:   8  21:38:27  -3.56  -2.55  -265.458051    3             
iter:   9  21:39:27  -4.11  -2.55  -265.383412    3             
iter:  10  21:40:27  -4.20  -2.73  -265.350890    3             
iter:  11  21:41:28  -4.38  -2.89  -265.342704    3             
iter:  12  21:42:28  -4.49  -2.90  -265.332466    3             
iter:  13  21:43:29  -4.87  -3.04  -265.322152    3             
iter:  14  21:44:30  -4.98  -3.16  -265.323406    3             
iter:  15  21:45:31  -4.78  -3.21  -265.325718    3             
iter:  16  21:46:32  -5.51  -3.00  -265.318315    3             
iter:  17  21:47:32  -5.65  -3.43  -265.319545    3             
iter:  18  21:48:33  -5.62  -3.27  -265.319005    2             
iter:  19  21:49:34  -6.24  -3.59  -265.318194    2             
iter:  20  21:50:35  -6.29  -3.65  -265.319245    2             
iter:  21  21:51:35  -6.67  -3.76  -265.318182    2             
iter:  22  21:52:36  -6.17  -3.77  -265.320496    2             
iter:  23  21:53:37  -6.44  -3.66  -265.319016    2             
iter:  24  21:54:37  -6.41  -3.92  -265.319918    2             
iter:  25  21:55:38  -7.07  -3.75  -265.319557    2             
iter:  26  21:56:38  -7.08  -3.86  -265.319611    2             
iter:  27  21:57:38  -6.55  -3.84  -265.318071    2             
iter:  28  21:58:40  -6.85  -3.89  -265.319192    2             
iter:  29  21:59:40  -6.71  -3.99  -265.318305    2             
iter:  30  22:00:41  -7.26  -4.14  -265.318797    2             
iter:  31  22:01:42  -8.01  -4.28  -265.318691    2             

Converged after 31 iterations.

Dipole moment: (21.743331, 16.008269, -0.070033) |e|*Ang

Energy contributions relative to reference atoms: (reference = -16429278.754816)

Kinetic:       -148.286690
Potential:      +91.936022
External:        +0.000000
XC:            -201.569173
Entropy (-ST):   -2.074696
Local:           -6.361502
--------------------------
Free energy:   -266.356039
Extrapolated:  -265.318691

Fermi level: 1.32133

Showing only first 2 kpts
 Kpt  Band  Eigenvalues  Occupancy
  0   357      1.32911    0.12015
  0   358      1.33729    0.11505
  0   359      1.38434    0.08687
  0   360      1.41618    0.06980

  1   357      1.20605    0.19001
  1   358      1.22471    0.18109
  1   359      1.27257    0.15489
  1   360      1.30470    0.13537



Forces in eV/Ang:
  0 Ag   -0.41317    0.15928   -1.04380
  1 Ag    0.25126    0.22302   -0.86567
  2 Ir    0.49402   -0.17603    0.03362
  3 Ir   -0.10300    1.24295    1.37503
  4 Ir    0.40630    0.39850    0.88284
  5 Ir   -0.32008   -0.02838    1.21663
  6 Ir   -1.71537   -0.50860    0.73138
  7 Ag   -0.12164   -0.33989   -0.95521
  8 Pt    1.05391   -0.38167    0.49936
  9 Ag    0.13285    0.01982    0.19321
 10 Ir   -0.03675   -0.40565    1.02038
 11 Ir   -0.62876   -0.79813   -0.49445
 12 Ir    0.39929    0.15816    0.20104
 13 Ag   -0.01723   -0.01962    0.18220
 14 Ag    0.06502    0.07326    0.17232
 15 Pt   -0.12119   -0.04816   -0.57833
 16 Ru    0.62747    0.47920   -1.34431
 17 Ir    0.13072    0.28087   -1.23707
 18 Ir   -0.00165   -0.01484    0.08148
 19 Pt    0.00984    0.00917    0.08175
 20 Pt    0.02230   -0.08737    0.15360
 21 Ag    0.05757    0.05034    0.14077
 22 Ag   -0.05528    0.04438    0.11345
 23 Ag   -0.00137   -0.02496    0.12686
 24 Pt   -0.05550    0.00744    0.05356
 25 Ag   -0.00576   -0.01377    0.05873
 26 Ir    0.07296    0.03435    0.10402
 27 Ru   -0.00424    0.12755   -0.07971
 28 Ir   -0.07292    0.00876   -0.05397
 29 Ir   -0.01619   -0.02978   -0.09191
 30 Ir   -0.23447   -0.11944   -0.08713
 31 Ir    0.09106   -0.31821   -0.49223
 32 Pt    0.16011   -0.04081   -0.19818
 33 Ag   -0.08727    0.12982   -0.24734
 34 Ir    0.15403    0.04160   -0.07371
 35 Ru    0.05284   -0.00726   -0.02308
 36 Ir    0.05053    0.03610   -0.28118
 37 Ir    0.03359    0.01045    0.01587
 38 Pt   -0.05943   -0.01935    0.10870
 39 Ag   -0.04016   -0.03233    0.07795
 40 Ir   -0.05727   -0.23536    0.07484
 41 Pt   -0.04872   -0.00353    0.12354
 42 Ir   -0.15609   -0.11525   -0.18126
 43 Ir    0.06851    0.01146   -0.29331
 44 Ag    0.01943    0.00528    0.08827
 45 O    -0.04418    0.13607    1.06968

System changes: positions 

Initializing position-dependent things.

Density initialized from wave functions
                                             
                                             
                                             
                                             
                     O                       
                                             
                               Ag            
                  Ir    Ir                   
            Ag    AIr     Pt    Ru           
                                             
       Ir    IIr    IPt    Pt                
         Ru                                  
               Ir    PIr    Ag     Ir        
                Ag     Ag     Ag             
                                             
           Ir    PPt    RPt    Ir            
                                             
            Ir    IAg    AAg    Pt           
       Ag    IIr    IIr    Ir                
                                             
        Ag     Ag     Ir                     
                                             
                                             
                                             
                                             
                                             

Positions:
   0 Ag     0.000000    1.621936   10.000000    ( 0.0000,  0.0000,  0.0000)
   1 Ag     2.809275    1.621936   10.000000    ( 0.0000,  0.0000,  0.0000)
   2 Ir     5.618550    1.621936   10.000000    ( 0.0000,  0.0000,  0.0000)
   3 Ir     1.404638    4.054840   10.000000    ( 0.0000,  0.0000,  0.0000)
   4 Ir     4.213913    4.054840   10.000000    ( 0.0000,  0.0000,  0.0000)
   5 Ir     7.023188    4.054840   10.000000    ( 0.0000,  0.0000,  0.0000)
   6 Ir     2.809275    6.487743   10.000000    ( 0.0000,  0.0000,  0.0000)
   7 Ag     5.618550    6.487743   10.000000    ( 0.0000,  0.0000,  0.0000)
   8 Pt     8.427826    6.487743   10.000000    ( 0.0000,  0.0000,  0.0000)
   9 Ag     0.000000    0.000000   12.293764    ( 0.0000,  0.0000,  0.0000)
  10 Ir     2.809275    0.000000   12.293764    ( 0.0000,  0.0000,  0.0000)
  11 Ir     5.618550    0.000000   12.293764    ( 0.0000,  0.0000,  0.0000)
  12 Ir     1.404638    2.432904   12.293764    ( 0.0000,  0.0000,  0.0000)
  13 Ag     4.213913    2.432904   12.293764    ( 0.0000,  0.0000,  0.0000)
  14 Ag     7.023188    2.432904   12.293764    ( 0.0000,  0.0000,  0.0000)
  15 Pt     2.809275    4.865807   12.293764    ( 0.0000,  0.0000,  0.0000)
  16 Ru     5.618550    4.865807   12.293764    ( 0.0000,  0.0000,  0.0000)
  17 Ir     8.427826    4.865807   12.293764    ( 0.0000,  0.0000,  0.0000)
  18 Ir     1.448462    0.791391   14.595726    ( 0.0000,  0.0000,  0.0000)
  19 Pt     4.195258    0.731057   14.611993    ( 0.0000,  0.0000,  0.0000)
  20 Pt     7.037210    0.802976   14.642702    ( 0.0000,  0.0000,  0.0000)
  21 Ag     2.788610    3.266643   14.614192    ( 0.0000,  0.0000,  0.0000)
  22 Ag     5.618868    3.229250   14.633193    ( 0.0000,  0.0000,  0.0000)
  23 Ag     8.465025    3.241621   14.612474    ( 0.0000,  0.0000,  0.0000)
  24 Pt     4.240041    5.677188   14.603495    ( 0.0000,  0.0000,  0.0000)
  25 Ag     7.021777    5.620019   14.592246    ( 0.0000,  0.0000,  0.0000)
  26 Ir     9.813121    5.743228   14.537596    ( 0.0000,  0.0000,  0.0000)
  27 Ru     0.082142    1.627784   16.962452    ( 0.0000,  0.0000,  0.0000)
  28 Ir     2.736953    1.631640   16.887007    ( 0.0000,  0.0000,  0.0000)
  29 Ir     5.559094    1.600166   16.890181    ( 0.0000,  0.0000,  0.0000)
  30 Ir     1.374872    4.024514   17.048862    ( 0.0000,  0.0000,  0.0000)
  31 Ir     4.195096    3.993078   16.980069    ( 0.0000,  0.0000,  0.0000)
  32 Pt     7.091739    4.075473   17.037896    ( 0.0000,  0.0000,  0.0000)
  33 Ag     2.767961    6.464559   16.827590    ( 0.0000,  0.0000,  0.0000)
  34 Ir     5.649942    6.560400   16.868503    ( 0.0000,  0.0000,  0.0000)
  35 Ru     8.400244    6.470625   16.875844    ( 0.0000,  0.0000,  0.0000)
  36 Ir     0.023080   -0.050425   19.057389    ( 0.0000,  0.0000,  0.0000)
  37 Ir     2.805176   -0.008184   18.984130    ( 0.0000,  0.0000,  0.0000)
  38 Pt     5.599334   -0.042722   19.127012    ( 0.0000,  0.0000,  0.0000)
  39 Ag     1.405907    2.423129   19.546161    ( 0.0000,  0.0000,  0.0000)
  40 Ir     4.220832    2.364451   19.015362    ( 0.0000,  0.0000,  0.0000)
  41 Pt     6.963108    2.315910   19.126861    ( 0.0000,  0.0000,  0.0000)
  42 Ir     2.907468    4.870707   19.095540    ( 0.0000,  0.0000,  0.0000)
  43 Ir     5.538456    4.941018   19.100307    ( 0.0000,  0.0000,  0.0000)
  44 Ag     8.405877    4.869596   19.534035    ( 0.0000,  0.0000,  0.0000)
  45 O      4.223013    5.677962   20.527742    ( 0.0000,  0.0000,  0.0000)

Unit cell:
           periodic     x           y           z      points  spacing
  1. axis:    yes    8.445283    0.000000    0.000000    35     0.2090
  2. axis:    yes    4.222641    7.313829    0.000000    35     0.2090
  3. axis:    no     0.000000    0.000000   29.175054   135     0.2161

  Lengths:   8.445283   8.445283  29.175054
  Angles:   90.000000  90.000000  60.000000

Effective grid spacing dv^(1/3) = 0.2217

                     log10-error:    total        iterations:
           time      wfs    density  energy       fermi  poisson
iter:   1  22:03:10  -2.27   +inf  -274.763568    3             
iter:   2  22:04:11  -0.96  -1.66  -462.741204    36            
iter:   3  22:05:12  -1.46  -1.10  -269.752984    38            
iter:   4  22:06:12  -2.47  -1.86  -265.559429    3             
iter:   5  22:07:13  -3.46  -2.54  -265.573390    3             
iter:   6  22:08:13  -3.98  -2.53  -265.399683    3             
iter:   7  22:09:14  -4.44  -2.88  -265.381849    2             
iter:   8  22:10:15  -4.54  -2.99  -265.370636    2             
iter:   9  22:11:14  -4.89  -3.16  -265.366728    3             
iter:  10  22:12:20  -4.94  -3.19  -265.397086    2             
iter:  11  22:13:26  -5.12  -2.92  -265.367122    3             
iter:  12  22:14:33  -5.22  -3.36  -265.364087    2             
iter:  13  22:15:39  -5.66  -3.47  -265.364647    2             
iter:  14  22:16:45  -6.14  -3.54  -265.363401    2             
iter:  15  22:17:50  -6.34  -3.64  -265.362509    2             
iter:  16  22:18:56  -6.22  -3.77  -265.365658    2             
iter:  17  22:20:03  -6.32  -3.47  -265.362244    2             
iter:  18  22:21:09  -6.62  -3.86  -265.362080    2             
iter:  19  22:22:16  -6.79  -3.92  -265.362465    2             
iter:  20  22:23:23  -6.84  -3.99  -265.362075    2             
iter:  21  22:24:28  -6.79  -4.14  -265.362097    2             
iter:  22  22:25:30  -6.96  -4.23  -265.363309    2             
iter:  23  22:26:34  -7.06  -3.87  -265.362147    2             
iter:  24  22:27:43  -7.39  -4.33  -265.362126    2             
iter:  25  22:28:51  -7.61  -4.30  -265.362280    2             

Converged after 25 iterations.

Dipole moment: (21.611514, 16.889658, -0.105142) |e|*Ang

Energy contributions relative to reference atoms: (reference = -16429278.754816)

Kinetic:       -154.450780
Potential:      +97.113181
External:        +0.000000
XC:            -200.645014
Entropy (-ST):   -2.073191
Local:           -6.343072
--------------------------
Free energy:   -266.398876
Extrapolated:  -265.362280

Fermi level: 1.30285

Showing only first 2 kpts
 Kpt  Band  Eigenvalues  Occupancy
  0   357      1.30734    0.12220
  0   358      1.31721    0.11604
  0   359      1.36810    0.08561
  0   360      1.39819    0.06955

  1   357      1.18814    0.18975
  1   358      1.20657    0.18092
  1   359      1.25472    0.15452
  1   360      1.28628    0.13534



Forces in eV/Ang:
  0 Ag   -0.41176    0.15827   -1.04874
  1 Ag    0.25069    0.22292   -0.87069
  2 Ir    0.49289   -0.17537    0.02500
  3 Ir   -0.10460    1.24594    1.36043
  4 Ir    0.40594    0.39808    0.87330
  5 Ir   -0.32089   -0.02798    1.20949
  6 Ir   -1.71834   -0.50775    0.72578
  7 Ag   -0.12142   -0.33837   -0.95775
  8 Pt    1.05873   -0.38184    0.48680
  9 Ag    0.13258    0.01727    0.19025
 10 Ir   -0.03559   -0.40910    1.01205
 11 Ir   -0.63192   -0.79415   -0.50322
 12 Ir    0.39641    0.15919    0.20011
 13 Ag   -0.01569   -0.02128    0.17628
 14 Ag    0.05947    0.07358    0.16466
 15 Pt   -0.12419   -0.04251   -0.58846
 16 Ru    0.62405    0.47779   -1.35135
 17 Ir    0.12990    0.28606   -1.24731
 18 Ir    0.01330   -0.01596    0.06997
 19 Pt    0.01207    0.00518    0.06063
 20 Pt    0.02206   -0.05445    0.11355
 21 Ag    0.03601    0.02827    0.11006
 22 Ag   -0.02718    0.02324    0.08227
 23 Ag   -0.00034   -0.01626    0.11614
 24 Pt   -0.02792    0.00692    0.03003
 25 Ag    0.00329   -0.01579    0.04794
 26 Ir    0.05228    0.01276    0.08102
 27 Ru   -0.01699    0.03378    0.02833
 28 Ir   -0.07645    0.01992   -0.04204
 29 Ir    0.00576   -0.00540   -0.08755
 30 Ir   -0.12514   -0.04247    0.01635
 31 Ir    0.04973   -0.13961   -0.16674
 32 Pt    0.02070    0.02334   -0.03020
 33 Ag   -0.02248    0.04747   -0.05941
 34 Ir    0.06463    0.01277   -0.00394
 35 Ru    0.02762   -0.04098   -0.02165
 36 Ir    0.04234    0.00555   -0.10202
 37 Ir    0.07940    0.03970    0.01766
 38 Pt   -0.08644    0.01612    0.06889
 39 Ag   -0.04511   -0.02095    0.03460
 40 Ir   -0.04717   -0.23721    0.04837
 41 Pt   -0.04027   -0.00225    0.08694
 42 Ir   -0.08428   -0.10142   -0.10293
 43 Ir    0.05157   -0.01653   -0.10808
 44 Ag    0.00653   -0.01463    0.04670
 45 O    -0.02330    0.05494   -0.32268

System changes: positions 

Initializing position-dependent things.

Density initialized from wave functions
                                             
                                             
                                             
                                             
                     O                       
                                             
                               Ag            
                  Ir    Ir                   
            Ag    AIr     Pt    Ru           
                                             
       Ir    IIr    IPt    Pt                
         Ru                                  
               Ir    PIr    Ag     Ir        
                Ag     Ag     Ag             
                                             
           Ir    PPt    RPt    Ir            
                                             
            Ir    IAg    AAg    Pt           
       Ag    IIr    IIr    Ir                
                                             
        Ag     Ag     Ir                     
                                             
                                             
                                             
                                             
                                             

Positions:
   0 Ag     0.000000    1.621936   10.000000    ( 0.0000,  0.0000,  0.0000)
   1 Ag     2.809275    1.621936   10.000000    ( 0.0000,  0.0000,  0.0000)
   2 Ir     5.618550    1.621936   10.000000    ( 0.0000,  0.0000,  0.0000)
   3 Ir     1.404638    4.054840   10.000000    ( 0.0000,  0.0000,  0.0000)
   4 Ir     4.213913    4.054840   10.000000    ( 0.0000,  0.0000,  0.0000)
   5 Ir     7.023188    4.054840   10.000000    ( 0.0000,  0.0000,  0.0000)
   6 Ir     2.809275    6.487743   10.000000    ( 0.0000,  0.0000,  0.0000)
   7 Ag     5.618550    6.487743   10.000000    ( 0.0000,  0.0000,  0.0000)
   8 Pt     8.427826    6.487743   10.000000    ( 0.0000,  0.0000,  0.0000)
   9 Ag     0.000000    0.000000   12.293764    ( 0.0000,  0.0000,  0.0000)
  10 Ir     2.809275    0.000000   12.293764    ( 0.0000,  0.0000,  0.0000)
  11 Ir     5.618550    0.000000   12.293764    ( 0.0000,  0.0000,  0.0000)
  12 Ir     1.404638    2.432904   12.293764    ( 0.0000,  0.0000,  0.0000)
  13 Ag     4.213913    2.432904   12.293764    ( 0.0000,  0.0000,  0.0000)
  14 Ag     7.023188    2.432904   12.293764    ( 0.0000,  0.0000,  0.0000)
  15 Pt     2.809275    4.865807   12.293764    ( 0.0000,  0.0000,  0.0000)
  16 Ru     5.618550    4.865807   12.293764    ( 0.0000,  0.0000,  0.0000)
  17 Ir     8.427826    4.865807   12.293764    ( 0.0000,  0.0000,  0.0000)
  18 Ir     1.450578    0.789215   14.604819    ( 0.0000,  0.0000,  0.0000)
  19 Pt     4.196934    0.731437   14.619341    ( 0.0000,  0.0000,  0.0000)
  20 Pt     7.040182    0.796387   14.657039    ( 0.0000,  0.0000,  0.0000)
  21 Ag     2.792726    3.269887   14.627980    ( 0.0000,  0.0000,  0.0000)
  22 Ag     5.616179    3.231916   14.643324    ( 0.0000,  0.0000,  0.0000)
  23 Ag     8.464937    3.239649   14.627728    ( 0.0000,  0.0000,  0.0000)
  24 Pt     4.236944    5.678259   14.607227    ( 0.0000,  0.0000,  0.0000)
  25 Ag     7.022497    5.617754   14.598550    ( 0.0000,  0.0000,  0.0000)
  26 Ir     9.819577    5.744517   14.547717    ( 0.0000,  0.0000,  0.0000)
  27 Ru     0.079646    1.630535   16.969257    ( 0.0000,  0.0000,  0.0000)
  28 Ir     2.726181    1.634789   16.882742    ( 0.0000,  0.0000,  0.0000)
  29 Ir     5.560761    1.599971   16.879378    ( 0.0000,  0.0000,  0.0000)
  30 Ir     1.360172    4.020210   17.054213    ( 0.0000,  0.0000,  0.0000)
  31 Ir     4.201016    3.978435   16.965598    ( 0.0000,  0.0000,  0.0000)
  32 Pt     7.091313    4.080259   17.038255    ( 0.0000,  0.0000,  0.0000)
  33 Ag     2.766565    6.469053   16.824570    ( 0.0000,  0.0000,  0.0000)
  34 Ir     5.656604    6.561222   16.869702    ( 0.0000,  0.0000,  0.0000)
  35 Ru     8.403488    6.463998   16.873809    ( 0.0000,  0.0000,  0.0000)
  36 Ir     0.028024   -0.047744   19.045686    ( 0.0000,  0.0000,  0.0000)
  37 Ir     2.816818   -0.002189   18.986585    ( 0.0000,  0.0000,  0.0000)
  38 Pt     5.587189   -0.040178   19.135162    ( 0.0000,  0.0000,  0.0000)
  39 Ag     1.399749    2.420680   19.549931    ( 0.0000,  0.0000,  0.0000)
  40 Ir     4.214346    2.332971   19.021087    ( 0.0000,  0.0000,  0.0000)
  41 Pt     6.958245    2.316014   19.137302    ( 0.0000,  0.0000,  0.0000)
  42 Ir     2.894796    4.856041   19.081167    ( 0.0000,  0.0000,  0.0000)
  43 Ir     5.548373    4.936062   19.087740    ( 0.0000,  0.0000,  0.0000)
  44 Ag     8.406538    4.867012   19.539505    ( 0.0000,  0.0000,  0.0000)
  45 O      4.219875    5.683915   20.469814    ( 0.0000,  0.0000,  0.0000)

Unit cell:
           periodic     x           y           z      points  spacing
  1. axis:    yes    8.445283    0.000000    0.000000    35     0.2090
  2. axis:    yes    4.222641    7.313829    0.000000    35     0.2090
  3. axis:    no     0.000000    0.000000   29.175054   135     0.2161

  Lengths:   8.445283   8.445283  29.175054
  Angles:   90.000000  90.000000  60.000000

Effective grid spacing dv^(1/3) = 0.2217

                     log10-error:    total        iterations:
           time      wfs    density  energy       fermi  poisson
iter:   1  22:30:30  -2.51   +inf  -269.585447    3             
iter:   2  22:31:33  -1.35  -1.83  -386.983453    37            
iter:   3  22:32:28  -1.80  -1.18  -267.921366    35            
iter:   4  22:33:23  -2.74  -1.99  -265.450091    3             
iter:   5  22:34:18  -3.88  -2.77  -265.447252    3             
iter:   6  22:35:13  -4.29  -2.73  -265.395167    2             
iter:   7  22:36:10  -4.57  -2.99  -265.388711    3             
iter:   8  22:37:05  -4.88  -3.01  -265.378434    2             
iter:   9  22:38:00  -5.40  -3.23  -265.377199    2             
iter:  10  22:38:55  -5.06  -3.27  -265.374982    2             
iter:  11  22:39:50  -5.33  -3.39  -265.382140    2             
iter:  12  22:40:46  -5.63  -3.27  -265.374088    2             
iter:  13  22:41:41  -6.20  -3.69  -265.373551    2             
iter:  14  22:42:35  -6.34  -3.64  -265.374219    2             
iter:  15  22:43:31  -6.55  -3.78  -265.373386    2             
iter:  16  22:44:31  -6.62  -3.73  -265.373169    2             
iter:  17  22:45:32  -6.56  -3.75  -265.374474    2             
iter:  18  22:46:32  -6.73  -3.83  -265.373389    2             
iter:  19  22:47:33  -7.10  -3.97  -265.373227    2             
iter:  20  22:48:34  -6.87  -3.98  -265.373958    2             
iter:  21  22:49:35  -7.21  -4.08  -265.373414    2             
iter:  22  22:50:43  -7.26  -4.19  -265.373475    2             
iter:  23  22:51:51  -7.01  -4.31  -265.374012    2             
iter:  24  22:53:00  -7.59  -4.17  -265.373749    2             

Converged after 24 iterations.

Dipole moment: (21.143189, 16.216156, -0.086934) |e|*Ang

Energy contributions relative to reference atoms: (reference = -16429278.754816)

Kinetic:       -151.316708
Potential:      +94.428330
External:        +0.000000
XC:            -201.103862
Entropy (-ST):   -2.072298
Local:           -6.345359
--------------------------
Free energy:   -266.409897
Extrapolated:  -265.373749

Fermi level: 1.31169

Showing only first 2 kpts
 Kpt  Band  Eigenvalues  Occupancy
  0   357      1.31292    0.12423
  0   358      1.32549    0.11639
  0   359      1.37679    0.08569
  0   360      1.40707    0.06953

  1   357      1.19623    0.19009
  1   358      1.21422    0.18151
  1   359      1.26404    0.15423
  1   360      1.29465    0.13563



Forces in eV/Ang:
  0 Ag   -0.41454    0.16086   -1.04585
  1 Ag    0.25172    0.22450   -0.86571
  2 Ir    0.49652   -0.17387    0.03505
  3 Ir   -0.10113    1.25091    1.38795
  4 Ir    0.40996    0.39856    0.88283
  5 Ir   -0.32179   -0.02917    1.22319
  6 Ir   -1.72211   -0.51327    0.73457
  7 Ag   -0.12224   -0.34229   -0.95566
  8 Pt    1.05689   -0.38261    0.50473
  9 Ag    0.13281    0.02445    0.22060
 10 Ir   -0.03676   -0.40436    1.05520
 11 Ir   -0.63403   -0.81309   -0.47360
 12 Ir    0.40461    0.17514    0.24574
 13 Ag   -0.02129   -0.02017    0.21339
 14 Ag    0.06465    0.06949    0.22974
 15 Pt   -0.13446   -0.05549   -0.55957
 16 Ru    0.63643    0.47883   -1.33038
 17 Ir    0.13832    0.27420   -1.20453
 18 Ir    0.00173    0.00626   -0.02740
 19 Pt   -0.00654   -0.01380   -0.03179
 20 Pt    0.02091    0.07419   -0.04071
 21 Ag   -0.04458   -0.00365   -0.06011
 22 Ag    0.04684   -0.00391   -0.07750
 23 Ag    0.00494   -0.01494   -0.04476
 24 Pt    0.02596    0.00043    0.00104
 25 Ag    0.01897   -0.00447   -0.03925
 26 Ir   -0.03476   -0.01465   -0.02020
 27 Ru   -0.02015    0.02549    0.00522
 28 Ir    0.00319    0.01041    0.06158
 29 Ir   -0.00712   -0.02173    0.09743
 30 Ir   -0.01595   -0.00322    0.01410
 31 Ir   -0.01477   -0.11827    0.15177
 32 Pt    0.00633   -0.06462    0.00635
 33 Ag    0.00785   -0.06854    0.11636
 34 Ir    0.03865    0.00952    0.00681
 35 Ru    0.03330   -0.01286    0.02763
 36 Ir   -0.02221    0.00303   -0.17197
 37 Ir   -0.04586   -0.02117   -0.03705
 38 Pt    0.05221   -0.05904    0.01915
 39 Ag   -0.03804   -0.03082    0.04553
 40 Ir   -0.04744    0.01264   -0.12510
 41 Pt   -0.06376    0.01207   -0.01224
 42 Ir    0.02435   -0.07504   -0.24726
 43 Ir   -0.03952   -0.04068   -0.20508
 44 Ag   -0.00946   -0.01010    0.05381
 45 O    -0.03830   -0.01281    0.57242

System changes: positions 

Initializing position-dependent things.

Density initialized from wave functions
                                             
                                             
                                             
                                             
                     O                       
                                             
                               Ag            
                  Ir    Ir                   
            Ag    AIr     Pt    Ru           
                                             
       Ir    IIr    IPt    Pt                
         Ru                                  
               Ir    PIr    Ag     Ir        
                Ag     Ag     Ag             
                                             
           Ir    PPt    RPt    Ir            
                                             
            Ir    IAg    AAg    Pt           
       Ag    IIr    IIr    Ir                
                                             
        Ag     Ag     Ir                     
                                             
                                             
                                             
                                             
                                             

Positions:
   0 Ag     0.000000    1.621936   10.000000    ( 0.0000,  0.0000,  0.0000)
   1 Ag     2.809275    1.621936   10.000000    ( 0.0000,  0.0000,  0.0000)
   2 Ir     5.618550    1.621936   10.000000    ( 0.0000,  0.0000,  0.0000)
   3 Ir     1.404638    4.054840   10.000000    ( 0.0000,  0.0000,  0.0000)
   4 Ir     4.213913    4.054840   10.000000    ( 0.0000,  0.0000,  0.0000)
   5 Ir     7.023188    4.054840   10.000000    ( 0.0000,  0.0000,  0.0000)
   6 Ir     2.809275    6.487743   10.000000    ( 0.0000,  0.0000,  0.0000)
   7 Ag     5.618550    6.487743   10.000000    ( 0.0000,  0.0000,  0.0000)
   8 Pt     8.427826    6.487743   10.000000    ( 0.0000,  0.0000,  0.0000)
   9 Ag     0.000000    0.000000   12.293764    ( 0.0000,  0.0000,  0.0000)
  10 Ir     2.809275    0.000000   12.293764    ( 0.0000,  0.0000,  0.0000)
  11 Ir     5.618550    0.000000   12.293764    ( 0.0000,  0.0000,  0.0000)
  12 Ir     1.404638    2.432904   12.293764    ( 0.0000,  0.0000,  0.0000)
  13 Ag     4.213913    2.432904   12.293764    ( 0.0000,  0.0000,  0.0000)
  14 Ag     7.023188    2.432904   12.293764    ( 0.0000,  0.0000,  0.0000)
  15 Pt     2.809275    4.865807   12.293764    ( 0.0000,  0.0000,  0.0000)
  16 Ru     5.618550    4.865807   12.293764    ( 0.0000,  0.0000,  0.0000)
  17 Ir     8.427826    4.865807   12.293764    ( 0.0000,  0.0000,  0.0000)
  18 Ir     1.449750    0.790066   14.601263    ( 0.0000,  0.0000,  0.0000)
  19 Pt     4.196279    0.731288   14.616468    ( 0.0000,  0.0000,  0.0000)
  20 Pt     7.039020    0.798964   14.651432    ( 0.0000,  0.0000,  0.0000)
  21 Ag     2.791117    3.268618   14.622588    ( 0.0000,  0.0000,  0.0000)
  22 Ag     5.617231    3.230873   14.639362    ( 0.0000,  0.0000,  0.0000)
  23 Ag     8.464972    3.240420   14.621763    ( 0.0000,  0.0000,  0.0000)
  24 Pt     4.238155    5.677840   14.605768    ( 0.0000,  0.0000,  0.0000)
  25 Ag     7.022215    5.618640   14.596085    ( 0.0000,  0.0000,  0.0000)
  26 Ir     9.817053    5.744013   14.543759    ( 0.0000,  0.0000,  0.0000)
  27 Ru     0.080622    1.629459   16.966596    ( 0.0000,  0.0000,  0.0000)
  28 Ir     2.730394    1.633557   16.884410    ( 0.0000,  0.0000,  0.0000)
  29 Ir     5.560109    1.600048   16.883602    ( 0.0000,  0.0000,  0.0000)
  30 Ir     1.365920    4.021893   17.052120    ( 0.0000,  0.0000,  0.0000)
  31 Ir     4.198701    3.984161   16.971257    ( 0.0000,  0.0000,  0.0000)
  32 Pt     7.091479    4.078387   17.038114    ( 0.0000,  0.0000,  0.0000)
  33 Ag     2.767111    6.467296   16.825751    ( 0.0000,  0.0000,  0.0000)
  34 Ir     5.653999    6.560901   16.869233    ( 0.0000,  0.0000,  0.0000)
  35 Ru     8.402219    6.466589   16.874605    ( 0.0000,  0.0000,  0.0000)
  36 Ir     0.026090   -0.048792   19.050263    ( 0.0000,  0.0000,  0.0000)
  37 Ir     2.812265   -0.004533   18.985625    ( 0.0000,  0.0000,  0.0000)
  38 Pt     5.591938   -0.041173   19.131975    ( 0.0000,  0.0000,  0.0000)
  39 Ag     1.402157    2.421638   19.548457    ( 0.0000,  0.0000,  0.0000)
  40 Ir     4.216882    2.345281   19.018848    ( 0.0000,  0.0000,  0.0000)
  41 Pt     6.960147    2.315973   19.133219    ( 0.0000,  0.0000,  0.0000)
  42 Ir     2.899751    4.861776   19.086788    ( 0.0000,  0.0000,  0.0000)
  43 Ir     5.544495    4.938000   19.092654    ( 0.0000,  0.0000,  0.0000)
  44 Ag     8.406279    4.868023   19.537366    ( 0.0000,  0.0000,  0.0000)
  45 O      4.221103    5.681587   20.492467    ( 0.0000,  0.0000,  0.0000)

Unit cell:
           periodic     x           y           z      points  spacing
  1. axis:    yes    8.445283    0.000000    0.000000    35     0.2090
  2. axis:    yes    4.222641    7.313829    0.000000    35     0.2090
  3. axis:    no     0.000000    0.000000   29.175054   135     0.2161

  Lengths:   8.445283   8.445283  29.175054
  Angles:   90.000000  90.000000  60.000000

Effective grid spacing dv^(1/3) = 0.2217

                     log10-error:    total        iterations:
           time      wfs    density  energy       fermi  poisson
iter:   1  22:54:39  -3.14   +inf  -267.104947    3             
iter:   2  22:55:46  -1.71  -1.99  -325.705284    33            
iter:   3  22:56:53  -2.09  -1.34  -266.345667    35            
iter:   4  22:58:00  -3.18  -2.18  -265.449127    3             
iter:   5  22:59:07  -4.19  -2.80  -265.392100    3             
iter:   6  23:00:14  -4.85  -3.18  -265.382241    3             
iter:   7  23:01:21  -5.35  -3.37  -265.385115    2             
iter:   8  23:02:28  -5.36  -3.36  -265.379853    2             
iter:   9  23:03:34  -5.90  -3.65  -265.380218    2             
iter:  10  23:04:41  -5.89  -3.73  -265.380393    2             
iter:  11  23:05:47  -6.19  -3.81  -265.379276    2             
iter:  12  23:06:53  -6.30  -3.83  -265.379823    2             
iter:  13  23:08:00  -6.82  -3.98  -265.379904    2             
iter:  14  23:09:07  -7.06  -3.95  -265.379229    2             
iter:  15  23:10:13  -7.27  -4.13  -265.379498    2             
iter:  16  23:11:20  -7.44  -4.11  -265.379567    2             

Converged after 16 iterations.

Dipole moment: (21.324659, 16.478645, -0.095434) |e|*Ang

Energy contributions relative to reference atoms: (reference = -16429278.754816)

Kinetic:       -151.889650
Potential:      +94.832187
External:        +0.000000
XC:            -200.939352
Entropy (-ST):   -2.072062
Local:           -6.346722
--------------------------
Free energy:   -266.415598
Extrapolated:  -265.379567

Fermi level: 1.30858

Showing only first 2 kpts
 Kpt  Band  Eigenvalues  Occupancy
  0   357      1.31131    0.12329
  0   358      1.32264    0.11623
  0   359      1.37378    0.08564
  0   360      1.40390    0.06956

  1   357      1.19332    0.19000
  1   358      1.21153    0.18130
  1   359      1.26072    0.15436
  1   360      1.29181    0.13545



Forces in eV/Ang:
  0 Ag   -0.41438    0.16221   -1.04028
  1 Ag    0.25186    0.22450   -0.86082
  2 Ir    0.49464   -0.17604    0.03765
  3 Ir   -0.10229    1.24615    1.38301
  4 Ir    0.40736    0.39861    0.88928
  5 Ir   -0.32019   -0.02782    1.22526
  6 Ir   -1.71828   -0.50994    0.73737
  7 Ag   -0.12132   -0.34436   -0.94859
  8 Pt    1.05610   -0.38221    0.50255
  9 Ag    0.13103    0.01636    0.20294
 10 Ir   -0.03236   -0.41047    1.02963
 11 Ir   -0.63213   -0.80683   -0.49628
 12 Ir    0.40380    0.17317    0.21523
 13 Ag   -0.01980   -0.01971    0.19191
 14 Ag    0.06235    0.07397    0.19421
 15 Pt   -0.12831   -0.04785   -0.57540
 16 Ru    0.63124    0.47995   -1.34708
 17 Ir    0.13127    0.27835   -1.23427
 18 Ir    0.01121   -0.00621    0.03754
 19 Pt    0.00204   -0.00647    0.02657
 20 Pt    0.01529    0.01008    0.05131
 21 Ag   -0.00695    0.00913    0.02214
 22 Ag    0.01063    0.00880    0.00851
 23 Ag    0.00433   -0.01224    0.03747
 24 Pt   -0.00331    0.00301    0.02232
 25 Ag    0.01225   -0.00647    0.01110
 26 Ir    0.00811    0.00446    0.04697
 27 Ru   -0.00983    0.02995    0.02099
 28 Ir   -0.03847    0.01649    0.02716
 29 Ir   -0.00175   -0.01751    0.01117
 30 Ir   -0.07887   -0.02595    0.02693
 31 Ir    0.02480   -0.13677   -0.00593
 32 Pt    0.01589   -0.01753   -0.00514
 33 Ag   -0.00721   -0.01419    0.03996
 34 Ir    0.05379    0.01160    0.00505
 35 Ru    0.03264   -0.03472    0.01565
 36 Ir    0.01315   -0.00634   -0.14104
 37 Ir    0.03484    0.02736   -0.01524
 38 Pt   -0.04043   -0.01301    0.03592
 39 Ag   -0.03608   -0.02668    0.02921
 40 Ir   -0.06044   -0.14342   -0.04914
 41 Pt   -0.04986    0.01574    0.02827
 42 Ir   -0.03524   -0.07891   -0.19652
 43 Ir    0.00879   -0.01679   -0.17489
 44 Ag   -0.00270   -0.01447    0.03703
 45 O    -0.02902    0.03561    0.24813

System changes: positions 

Initializing position-dependent things.

Density initialized from wave functions
                                             
                                             
                                             
                                             
                     O                       
                                             
                               Ag            
                  Ir    Ir                   
            Ag    AIr     Pt    Ru           
                                             
       Ir    IIr    IPt    Pt                
         Ru                                  
               Ir    PIr    Ag     Ir        
                Ag     Ag     Ag             
                                             
           Ir    PPt    RPt    Ir            
                                             
            Ir    IAg    AAg    Pt           
       Ag    IIr    IIr    Ir                
                                             
        Ag     Ag     Ir                     
                                             
                                             
                                             
                                             
                                             

Positions:
   0 Ag     0.000000    1.621936   10.000000    ( 0.0000,  0.0000,  0.0000)
   1 Ag     2.809275    1.621936   10.000000    ( 0.0000,  0.0000,  0.0000)
   2 Ir     5.618550    1.621936   10.000000    ( 0.0000,  0.0000,  0.0000)
   3 Ir     1.404638    4.054840   10.000000    ( 0.0000,  0.0000,  0.0000)
   4 Ir     4.213913    4.054840   10.000000    ( 0.0000,  0.0000,  0.0000)
   5 Ir     7.023188    4.054840   10.000000    ( 0.0000,  0.0000,  0.0000)
   6 Ir     2.809275    6.487743   10.000000    ( 0.0000,  0.0000,  0.0000)
   7 Ag     5.618550    6.487743   10.000000    ( 0.0000,  0.0000,  0.0000)
   8 Pt     8.427826    6.487743   10.000000    ( 0.0000,  0.0000,  0.0000)
   9 Ag     0.000000    0.000000   12.293764    ( 0.0000,  0.0000,  0.0000)
  10 Ir     2.809275    0.000000   12.293764    ( 0.0000,  0.0000,  0.0000)
  11 Ir     5.618550    0.000000   12.293764    ( 0.0000,  0.0000,  0.0000)
  12 Ir     1.404638    2.432904   12.293764    ( 0.0000,  0.0000,  0.0000)
  13 Ag     4.213913    2.432904   12.293764    ( 0.0000,  0.0000,  0.0000)
  14 Ag     7.023188    2.432904   12.293764    ( 0.0000,  0.0000,  0.0000)
  15 Pt     2.809275    4.865807   12.293764    ( 0.0000,  0.0000,  0.0000)
  16 Ru     5.618550    4.865807   12.293764    ( 0.0000,  0.0000,  0.0000)
  17 Ir     8.427826    4.865807   12.293764    ( 0.0000,  0.0000,  0.0000)
  18 Ir     1.451843    0.789089   14.607332    ( 0.0000,  0.0000,  0.0000)
  19 Pt     4.196888    0.730880   14.621128    ( 0.0000,  0.0000,  0.0000)
  20 Pt     7.041454    0.798787   14.660722    ( 0.0000,  0.0000,  0.0000)
  21 Ag     2.791171    3.270413   14.628231    ( 0.0000,  0.0000,  0.0000)
  22 Ag     5.618034    3.232397   14.642604    ( 0.0000,  0.0000,  0.0000)
  23 Ag     8.465522    3.238812   14.628876    ( 0.0000,  0.0000,  0.0000)
  24 Pt     4.237249    5.678448   14.609455    ( 0.0000,  0.0000,  0.0000)
  25 Ag     7.023742    5.617198   14.598644    ( 0.0000,  0.0000,  0.0000)
  26 Ir     9.819484    5.744381   14.551418    ( 0.0000,  0.0000,  0.0000)
  27 Ru     0.078598    1.631612   16.971892    ( 0.0000,  0.0000,  0.0000)
  28 Ir     2.723838    1.636030   16.887417    ( 0.0000,  0.0000,  0.0000)
  29 Ir     5.560324    1.597877   16.883014    ( 0.0000,  0.0000,  0.0000)
  30 Ir     1.355021    4.019150   17.057718    ( 0.0000,  0.0000,  0.0000)
  31 Ir     4.202539    3.965176   16.966218    ( 0.0000,  0.0000,  0.0000)
  32 Pt     7.091821    4.077907   17.038905    ( 0.0000,  0.0000,  0.0000)
  33 Ag     2.765948    6.466297   16.829667    ( 0.0000,  0.0000,  0.0000)
  34 Ir     5.661049    6.562616   16.869424    ( 0.0000,  0.0000,  0.0000)
  35 Ru     8.406843    6.461025   16.876587    ( 0.0000,  0.0000,  0.0000)
  36 Ir     0.029456   -0.049775   19.036791    ( 0.0000,  0.0000,  0.0000)
  37 Ir     2.820200    0.000794   18.984069    ( 0.0000,  0.0000,  0.0000)
  38 Pt     5.583403   -0.041637   19.137416    ( 0.0000,  0.0000,  0.0000)
  39 Ag     1.396609    2.417808   19.552514    ( 0.0000,  0.0000,  0.0000)
  40 Ir     4.208216    2.320074   19.013947    ( 0.0000,  0.0000,  0.0000)
  41 Pt     6.953148    2.317822   19.138506    ( 0.0000,  0.0000,  0.0000)
  42 Ir     2.893389    4.849671   19.067158    ( 0.0000,  0.0000,  0.0000)
  43 Ir     5.546452    4.936077   19.076523    ( 0.0000,  0.0000,  0.0000)
  44 Ag     8.406055    4.865646   19.542754    ( 0.0000,  0.0000,  0.0000)
  45 O      4.216767    5.685451   20.490407    ( 0.0000,  0.0000,  0.0000)

Unit cell:
           periodic     x           y           z      points  spacing
  1. axis:    yes    8.445283    0.000000    0.000000    35     0.2090
  2. axis:    yes    4.222641    7.313829    0.000000    35     0.2090
  3. axis:    no     0.000000    0.000000   29.175054   135     0.2161

  Lengths:   8.445283   8.445283  29.175054
  Angles:   90.000000  90.000000  60.000000

Effective grid spacing dv^(1/3) = 0.2217

                     log10-error:    total        iterations:
           time      wfs    density  energy       fermi  poisson
iter:   1  23:12:59  -2.82   +inf  -265.748022    3             
iter:   2  23:14:06  -2.81  -2.40  -270.481859    3             
iter:   3  23:15:14  -3.04  -1.77  -265.661878    3             
iter:   4  23:16:21  -4.44  -2.43  -265.402197    3             
iter:   5  23:17:23  -5.04  -3.06  -265.397193    3             
iter:   6  23:18:24  -5.33  -3.20  -265.394744    3             
iter:   7  23:19:28  -5.20  -3.28  -265.392486    3             
iter:   8  23:20:41  -5.08  -3.41  -265.390499    2             
iter:   9  23:21:54  -5.48  -3.61  -265.393221    2             
iter:  10  23:23:06  -5.77  -3.42  -265.389819    2             
iter:  11  23:24:18  -5.85  -3.36  -265.390352    2             
iter:  12  23:25:29  -6.18  -3.71  -265.389199    2             
iter:  13  23:26:41  -6.66  -3.83  -265.389262    2             
iter:  14  23:27:51  -6.87  -3.95  -265.388960    2             
iter:  15  23:29:01  -7.05  -4.00  -265.389053    2             
iter:  16  23:30:12  -6.86  -4.09  -265.388497    2             
iter:  17  23:31:22  -7.04  -3.84  -265.389425    2             
iter:  18  23:32:31  -7.28  -4.09  -265.388859    2             
iter:  19  23:33:41  -7.04  -4.24  -265.389050    2             
iter:  20  23:34:42  -7.46  -4.28  -265.388914    2             

Converged after 20 iterations.

Dipole moment: (20.875410, 16.182435, -0.098690) |e|*Ang

Energy contributions relative to reference atoms: (reference = -16429278.754816)

Kinetic:       -150.695949
Potential:      +93.811956
External:        +0.000000
XC:            -201.124617
Entropy (-ST):   -2.065691
Local:           -6.347459
--------------------------
Free energy:   -266.421760
Extrapolated:  -265.388914

Fermi level: 1.30563

Showing only first 2 kpts
 Kpt  Band  Eigenvalues  Occupancy
  0   357      1.30473    0.12556
  0   358      1.32066    0.11563
  0   359      1.37186    0.08506
  0   360      1.40236    0.06886

  1   357      1.18919    0.19054
  1   358      1.20912    0.18103
  1   359      1.25829    0.15405
  1   360      1.28670    0.13680



Forces in eV/Ang:
  0 Ag   -0.41431    0.16027   -1.04273
  1 Ag    0.25123    0.22243   -0.86210
  2 Ir    0.49448   -0.17378    0.03885
  3 Ir   -0.10186    1.24942    1.38370
  4 Ir    0.41219    0.39710    0.88118
  5 Ir   -0.32313   -0.02634    1.22447
  6 Ir   -1.71966   -0.51084    0.73470
  7 Ag   -0.12097   -0.34246   -0.95241
  8 Pt    1.05585   -0.38194    0.50370
  9 Ag    0.13237    0.02463    0.23782
 10 Ir   -0.03505   -0.40165    1.06600
 11 Ir   -0.63345   -0.81734   -0.45128
 12 Ir    0.40225    0.17781    0.24769
 13 Ag   -0.02227   -0.02268    0.22237
 14 Ag    0.06701    0.06692    0.23302
 15 Pt   -0.13765   -0.05211   -0.54987
 16 Ru    0.63367    0.48163   -1.32778
 17 Ir    0.14368    0.27293   -1.19603
 18 Ir   -0.00666    0.00126   -0.06619
 19 Pt   -0.00089   -0.00708   -0.04226
 20 Pt    0.01469    0.03472   -0.05861
 21 Ag   -0.03177   -0.01066   -0.06759
 22 Ag    0.03194   -0.01605   -0.08236
 23 Ag    0.00833   -0.00762   -0.06521
 24 Pt    0.02266    0.00496   -0.00218
 25 Ag    0.01684    0.00107   -0.04368
 26 Ir   -0.01805   -0.00605   -0.05547
 27 Ru   -0.02612   -0.00768   -0.00446
 28 Ir   -0.02243   -0.00171   -0.03441
 29 Ir    0.03664   -0.05588    0.01949
 30 Ir    0.01969   -0.00041   -0.01773
 31 Ir   -0.02682   -0.01049    0.09434
 32 Pt   -0.00850   -0.05514   -0.00709
 33 Ag    0.03004   -0.05618    0.02853
 34 Ir   -0.00605   -0.00173   -0.00295
 35 Ru    0.00965   -0.01695   -0.00062
 36 Ir   -0.03042   -0.12197    0.01044
 37 Ir   -0.12000   -0.09618   -0.00834
 38 Pt    0.13148   -0.09384    0.00845
 39 Ag   -0.05596   -0.02452    0.05839
 40 Ir   -0.02444    0.11644    0.00831
 41 Pt   -0.05148   -0.00475   -0.01587
 42 Ir    0.17880    0.03599    0.04339
 43 Ir   -0.19550    0.04452    0.02910
 44 Ag   -0.02537   -0.01050    0.05733
 45 O    -0.01535   -0.07502   -0.07317

System changes: positions 

Initializing position-dependent things.

Density initialized from wave functions
                                             
                                             
                                             
                                             
                     O                       
                                             
                               Ag            
                  Ir    Ir                   
            Ag    AIr     Pt    Ru           
                                             
       Ir    IIr    IPt    Pt                
         Ru                                  
               Ir    PIr    Ag     Ir        
                Ag     Ag     Ag             
                                             
           Ir    PPt    RPt    Ir            
                                             
            Ir    IAg    AAg    Pt           
       Ag    IIr    IIr    Ir                
                                             
        Ag     Ag     Ir                     
                                             
                                             
                                             
                                             
                                             

Positions:
   0 Ag     0.000000    1.621936   10.000000    ( 0.0000,  0.0000,  0.0000)
   1 Ag     2.809275    1.621936   10.000000    ( 0.0000,  0.0000,  0.0000)
   2 Ir     5.618550    1.621936   10.000000    ( 0.0000,  0.0000,  0.0000)
   3 Ir     1.404638    4.054840   10.000000    ( 0.0000,  0.0000,  0.0000)
   4 Ir     4.213913    4.054840   10.000000    ( 0.0000,  0.0000,  0.0000)
   5 Ir     7.023188    4.054840   10.000000    ( 0.0000,  0.0000,  0.0000)
   6 Ir     2.809275    6.487743   10.000000    ( 0.0000,  0.0000,  0.0000)
   7 Ag     5.618550    6.487743   10.000000    ( 0.0000,  0.0000,  0.0000)
   8 Pt     8.427826    6.487743   10.000000    ( 0.0000,  0.0000,  0.0000)
   9 Ag     0.000000    0.000000   12.293764    ( 0.0000,  0.0000,  0.0000)
  10 Ir     2.809275    0.000000   12.293764    ( 0.0000,  0.0000,  0.0000)
  11 Ir     5.618550    0.000000   12.293764    ( 0.0000,  0.0000,  0.0000)
  12 Ir     1.404638    2.432904   12.293764    ( 0.0000,  0.0000,  0.0000)
  13 Ag     4.213913    2.432904   12.293764    ( 0.0000,  0.0000,  0.0000)
  14 Ag     7.023188    2.432904   12.293764    ( 0.0000,  0.0000,  0.0000)
  15 Pt     2.809275    4.865807   12.293764    ( 0.0000,  0.0000,  0.0000)
  16 Ru     5.618550    4.865807   12.293764    ( 0.0000,  0.0000,  0.0000)
  17 Ir     8.427826    4.865807   12.293764    ( 0.0000,  0.0000,  0.0000)
  18 Ir     1.451820    0.788851   14.604497    ( 0.0000,  0.0000,  0.0000)
  19 Pt     4.197001    0.730275   14.619556    ( 0.0000,  0.0000,  0.0000)
  20 Pt     7.043098    0.800900   14.659227    ( 0.0000,  0.0000,  0.0000)
  21 Ag     2.789164    3.270216   14.625290    ( 0.0000,  0.0000,  0.0000)
  22 Ag     5.620238    3.231769   14.638001    ( 0.0000,  0.0000,  0.0000)
  23 Ag     8.466211    3.237794   14.626560    ( 0.0000,  0.0000,  0.0000)
  24 Pt     4.238433    5.678937   14.610216    ( 0.0000,  0.0000,  0.0000)
  25 Ag     7.025260    5.616939   14.596418    ( 0.0000,  0.0000,  0.0000)
  26 Ir     9.818989    5.744215   14.549694    ( 0.0000,  0.0000,  0.0000)
  27 Ru     0.076367    1.632241   16.972406    ( 0.0000,  0.0000,  0.0000)
  28 Ir     2.720504    1.636550   16.885363    ( 0.0000,  0.0000,  0.0000)
  29 Ir     5.562840    1.593499   16.883782    ( 0.0000,  0.0000,  0.0000)
  30 Ir     1.352976    4.017988   17.057360    ( 0.0000,  0.0000,  0.0000)
  31 Ir     4.201869    3.959298   16.970771    ( 0.0000,  0.0000,  0.0000)
  32 Pt     7.091906    4.073852   17.037929    ( 0.0000,  0.0000,  0.0000)
  33 Ag     2.767572    6.462543   16.832057    ( 0.0000,  0.0000,  0.0000)
  34 Ir     5.662757    6.562954   16.869290    ( 0.0000,  0.0000,  0.0000)
  35 Ru     8.408675    6.458526   16.876750    ( 0.0000,  0.0000,  0.0000)
  36 Ir     0.028159   -0.058310   19.032686    ( 0.0000,  0.0000,  0.0000)
  37 Ir     2.813683   -0.004681   18.983252    ( 0.0000,  0.0000,  0.0000)
  38 Pt     5.590483   -0.048281   19.139665    ( 0.0000,  0.0000,  0.0000)
  39 Ag     1.391337    2.415183   19.557675    ( 0.0000,  0.0000,  0.0000)
  40 Ir     4.204426    2.321812   19.013666    ( 0.0000,  0.0000,  0.0000)
  41 Pt     6.947846    2.317896   19.139059    ( 0.0000,  0.0000,  0.0000)
  42 Ir     2.903910    4.849013   19.063842    ( 0.0000,  0.0000,  0.0000)
  43 Ir     5.533711    4.938565   19.072733    ( 0.0000,  0.0000,  0.0000)
  44 Ag     8.404305    4.864394   19.548173    ( 0.0000,  0.0000,  0.0000)
  45 O      4.214690    5.681812   20.488981    ( 0.0000,  0.0000,  0.0000)

Unit cell:
           periodic     x           y           z      points  spacing
  1. axis:    yes    8.445283    0.000000    0.000000    35     0.2090
  2. axis:    yes    4.222641    7.313829    0.000000    35     0.2090
  3. axis:    no     0.000000    0.000000   29.175054   135     0.2161

  Lengths:   8.445283   8.445283  29.175054
  Angles:   90.000000  90.000000  60.000000

Effective grid spacing dv^(1/3) = 0.2217

                     log10-error:    total        iterations:
           time      wfs    density  energy       fermi  poisson
iter:   1  23:36:10  -3.33   +inf  -265.481840    2             
[...]
  14 Ag     7.023188    2.432904   12.293764    ( 0.0000,  0.0000,  0.0000)
  15 Pt     2.809275    4.865807   12.293764    ( 0.0000,  0.0000,  0.0000)
  16 Ru     5.618550    4.865807   12.293764    ( 0.0000,  0.0000,  0.0000)
  17 Ir     8.427826    4.865807   12.293764    ( 0.0000,  0.0000,  0.0000)
  18 Ir     1.451501    0.787793   14.599419    ( 0.0000,  0.0000,  0.0000)
  19 Pt     4.197270    0.730527   14.617669    ( 0.0000,  0.0000,  0.0000)
  20 Pt     7.043390    0.800232   14.655682    ( 0.0000,  0.0000,  0.0000)
  21 Ag     2.789103    3.270065   14.620861    ( 0.0000,  0.0000,  0.0000)
  22 Ag     5.620462    3.230542   14.634211    ( 0.0000,  0.0000,  0.0000)
  23 Ag     8.466963    3.238047   14.621702    ( 0.0000,  0.0000,  0.0000)
  24 Pt     4.239910    5.678084   14.610144    ( 0.0000,  0.0000,  0.0000)
  25 Ag     7.025750    5.617010   14.594325    ( 0.0000,  0.0000,  0.0000)
  26 Ir     9.819415    5.744524   14.546123    ( 0.0000,  0.0000,  0.0000)
  27 Ru     0.074041    1.629974   16.972231    ( 0.0000,  0.0000,  0.0000)
  28 Ir     2.720508    1.634594   16.884585    ( 0.0000,  0.0000,  0.0000)
  29 Ir     5.563295    1.588633   16.885835    ( 0.0000,  0.0000,  0.0000)
  30 Ir     1.355589    4.018554   17.057231    ( 0.0000,  0.0000,  0.0000)
  31 Ir     4.200548    3.956275   16.966064    ( 0.0000,  0.0000,  0.0000)
  32 Pt     7.088502    4.071394   17.038936    ( 0.0000,  0.0000,  0.0000)
  33 Ag     2.768572    6.458167   16.827287    ( 0.0000,  0.0000,  0.0000)
  34 Ir     5.662842    6.562584   16.863367    ( 0.0000,  0.0000,  0.0000)
  35 Ru     8.408665    6.457321   16.878175    ( 0.0000,  0.0000,  0.0000)
  36 Ir     0.023852   -0.055193   19.034755    ( 0.0000,  0.0000,  0.0000)
  37 Ir     2.810400   -0.008430   18.982141    ( 0.0000,  0.0000,  0.0000)
  38 Pt     5.595559   -0.053053   19.138963    ( 0.0000,  0.0000,  0.0000)
  39 Ag     1.386512    2.412658   19.562129    ( 0.0000,  0.0000,  0.0000)
  40 Ir     4.202362    2.321070   19.015511    ( 0.0000,  0.0000,  0.0000)
  41 Pt     6.943546    2.316806   19.138308    ( 0.0000,  0.0000,  0.0000)
  42 Ir     2.898664    4.845684   19.069143    ( 0.0000,  0.0000,  0.0000)
  43 Ir     5.538530    4.933449   19.073261    ( 0.0000,  0.0000,  0.0000)
  44 Ag     8.400776    4.863376   19.552424    ( 0.0000,  0.0000,  0.0000)
  45 O      4.213797    5.678078   20.493607    ( 0.0000,  0.0000,  0.0000)

Unit cell:
           periodic     x           y           z      points  spacing
  1. axis:    yes    8.445283    0.000000    0.000000    35     0.2090
  2. axis:    yes    4.222641    7.313829    0.000000    35     0.2090
  3. axis:    no     0.000000    0.000000   29.175054   135     0.2161

  Lengths:   8.445283   8.445283  29.175054
  Angles:   90.000000  90.000000  60.000000

Effective grid spacing dv^(1/3) = 0.2217

                     log10-error:    total        iterations:
           time      wfs    density  energy       fermi  poisson
iter:   1  23:52:45  -3.44   +inf  -265.654255    3             
iter:   2  23:53:42  -2.64  -2.41  -275.197964    3             
iter:   3  23:54:39  -2.90  -1.67  -265.418796    3             
iter:   4  23:55:37  -4.20  -2.96  -265.409292    3             
iter:   5  23:56:36  -5.18  -3.20  -265.400328    3             
iter:   6  23:57:35  -5.76  -3.36  -265.400086    2             
iter:   7  23:58:34  -5.69  -3.59  -265.399809    2             
iter:   8  23:59:33  -5.96  -3.77  -265.399326    2             
iter:   9  00:00:31  -6.13  -3.78  -265.400993    2             
iter:  10  00:01:30  -6.54  -3.76  -265.399441    2             
iter:  11  00:02:28  -6.55  -3.98  -265.399039    2             
iter:  12  00:03:27  -6.82  -3.96  -265.399607    2             
iter:  13  00:04:24  -7.10  -4.16  -265.399329    2             
iter:  14  00:05:30  -7.59  -4.28  -265.399293    2             

Converged after 14 iterations.

Dipole moment: (21.608714, 17.191253, -0.097732) |e|*Ang

Energy contributions relative to reference atoms: (reference = -16429278.754816)

Kinetic:       -150.862249
Potential:      +93.910473
External:        +0.000000
XC:            -201.059153
Entropy (-ST):   -2.062534
Local:           -6.357097
--------------------------
Free energy:   -266.430560
Extrapolated:  -265.399293

Fermi level: 1.30631

Showing only first 2 kpts
 Kpt  Band  Eigenvalues  Occupancy
  0   357      1.30514    0.12573
  0   358      1.32186    0.11530
  0   359      1.37368    0.08442
  0   360      1.40323    0.06876

  1   357      1.18945    0.19072
  1   358      1.20883    0.18152
  1   359      1.25854    0.15430
  1   360      1.28644    0.13738



Forces in eV/Ang:
  0 Ag   -0.41345    0.16125   -1.04529
  1 Ag    0.25166    0.22258   -0.86473
  2 Ir    0.49388   -0.17516    0.03444
  3 Ir   -0.10326    1.24730    1.37487
  4 Ir    0.40942    0.39742    0.88217
  5 Ir   -0.32137   -0.02725    1.22052
  6 Ir   -1.71712   -0.50967    0.73147
  7 Ag   -0.12072   -0.34236   -0.95305
  8 Pt    1.05500   -0.38083    0.49818
  9 Ag    0.12501    0.01161    0.20474
 10 Ir   -0.02865   -0.40648    1.03052
 11 Ir   -0.62865   -0.81015   -0.48370
 12 Ir    0.39887    0.17997    0.20332
 13 Ag   -0.02155   -0.02491    0.18980
 14 Ag    0.06763    0.06731    0.19072
 15 Pt   -0.12816   -0.04511   -0.57916
 16 Ru    0.62913    0.48316   -1.35707
 17 Ir    0.14330    0.27303   -1.23848
 18 Ir    0.00448    0.01513    0.01078
 19 Pt    0.00240   -0.00658    0.02580
 20 Pt   -0.00775   -0.00479    0.02014
 21 Ag    0.00043   -0.01349    0.01058
 22 Ag    0.00500   -0.02101    0.02923
 23 Ag    0.00011    0.00040    0.03385
 24 Pt    0.00239   -0.01394   -0.02564
 25 Ag    0.02007   -0.01212    0.01553
 26 Ir   -0.00370   -0.00114    0.00301
 27 Ru    0.00927    0.01405   -0.02180
 28 Ir   -0.01842   -0.00352    0.01323
 29 Ir   -0.02510   -0.00468   -0.01484
 30 Ir   -0.03985   -0.04520   -0.00435
 31 Ir   -0.01316   -0.00241    0.06308
 32 Pt    0.03929   -0.00947   -0.04604
 33 Ag    0.01875   -0.02718   -0.00070
 34 Ir   -0.03083   -0.01378    0.05366
 35 Ru   -0.00473   -0.02672    0.00006
 36 Ir    0.02839   -0.10999   -0.02432
 37 Ir   -0.00997    0.00721   -0.01935
 38 Pt   -0.03561   -0.01234   -0.00727
 39 Ag   -0.01366   -0.02031    0.00465
 40 Ir   -0.03596   -0.03362   -0.03306
 41 Pt   -0.00916    0.00118    0.00711
 42 Ir    0.05811   -0.02293   -0.03829
 43 Ir   -0.10232    0.04288   -0.01404
 44 Ag   -0.00841   -0.01106    0.00752
 45 O     0.01353   -0.00835   -0.00047

System changes: positions 

Initializing position-dependent things.

Density initialized from wave functions
                                             
                                             
                                             
                                             
                     O                       
                                             
                               Ag            
                  Ir    Ir                   
            Ag    AIr     Pt    Ru           
                                             
       Ir    IIr    IPt    Pt                
         Ru                                  
               Ir    PIr    Ag     Ir        
                Ag     Ag     Ag             
                                             
           Ir    PPt    RPt    Ir            
                                             
            Ir    IAg    AAg    Pt           
       Ag    IIr    IIr    Ir                
                                             
        Ag     Ag     Ir                     
                                             
                                             
                                             
                                             
                                             

Positions:
   0 Ag     0.000000    1.621936   10.000000    ( 0.0000,  0.0000,  0.0000)
   1 Ag     2.809275    1.621936   10.000000    ( 0.0000,  0.0000,  0.0000)
   2 Ir     5.618550    1.621936   10.000000    ( 0.0000,  0.0000,  0.0000)
   3 Ir     1.404638    4.054840   10.000000    ( 0.0000,  0.0000,  0.0000)
   4 Ir     4.213913    4.054840   10.000000    ( 0.0000,  0.0000,  0.0000)
   5 Ir     7.023188    4.054840   10.000000    ( 0.0000,  0.0000,  0.0000)
   6 Ir     2.809275    6.487743   10.000000    ( 0.0000,  0.0000,  0.0000)
   7 Ag     5.618550    6.487743   10.000000    ( 0.0000,  0.0000,  0.0000)
   8 Pt     8.427826    6.487743   10.000000    ( 0.0000,  0.0000,  0.0000)
   9 Ag     0.000000    0.000000   12.293764    ( 0.0000,  0.0000,  0.0000)
  10 Ir     2.809275    0.000000   12.293764    ( 0.0000,  0.0000,  0.0000)
  11 Ir     5.618550    0.000000   12.293764    ( 0.0000,  0.0000,  0.0000)
  12 Ir     1.404638    2.432904   12.293764    ( 0.0000,  0.0000,  0.0000)
  13 Ag     4.213913    2.432904   12.293764    ( 0.0000,  0.0000,  0.0000)
  14 Ag     7.023188    2.432904   12.293764    ( 0.0000,  0.0000,  0.0000)
  15 Pt     2.809275    4.865807   12.293764    ( 0.0000,  0.0000,  0.0000)
  16 Ru     5.618550    4.865807   12.293764    ( 0.0000,  0.0000,  0.0000)
  17 Ir     8.427826    4.865807   12.293764    ( 0.0000,  0.0000,  0.0000)
  18 Ir     1.451990    0.788166   14.598586    ( 0.0000,  0.0000,  0.0000)
  19 Pt     4.197705    0.730184   14.619372    ( 0.0000,  0.0000,  0.0000)
  20 Pt     7.043232    0.799194   14.656800    ( 0.0000,  0.0000,  0.0000)
  21 Ag     2.789336    3.269292   14.620425    ( 0.0000,  0.0000,  0.0000)
  22 Ag     5.620855    3.228608   14.635237    ( 0.0000,  0.0000,  0.0000)
  23 Ag     8.467400    3.238060   14.622912    ( 0.0000,  0.0000,  0.0000)
  24 Pt     4.240648    5.676661   14.608714    ( 0.0000,  0.0000,  0.0000)
  25 Ag     7.027592    5.615934   14.594946    ( 0.0000,  0.0000,  0.0000)
  26 Ir     9.819860    5.744675   14.545681    ( 0.0000,  0.0000,  0.0000)
  27 Ru     0.073277    1.629923   16.971469    ( 0.0000,  0.0000,  0.0000)
  28 Ir     2.718327    1.633614   16.885630    ( 0.0000,  0.0000,  0.0000)
  29 Ir     5.561610    1.585681   16.885533    ( 0.0000,  0.0000,  0.0000)
  30 Ir     1.352665    4.015277   17.057849    ( 0.0000,  0.0000,  0.0000)
  31 Ir     4.199492    3.952304   16.967005    ( 0.0000,  0.0000,  0.0000)
  32 Pt     7.089374    4.069785   17.036494    ( 0.0000,  0.0000,  0.0000)
  33 Ag     2.770253    6.453955   16.825006    ( 0.0000,  0.0000,  0.0000)
  34 Ir     5.661449    6.561551   16.864137    ( 0.0000,  0.0000,  0.0000)
  35 Ru     8.408814    6.453990   16.879201    ( 0.0000,  0.0000,  0.0000)
  36 Ir     0.024189   -0.060884   19.032685    ( 0.0000,  0.0000,  0.0000)
  37 Ir     2.809710   -0.008688   18.980031    ( 0.0000,  0.0000,  0.0000)
  38 Pt     5.593786   -0.056047   19.138692    ( 0.0000,  0.0000,  0.0000)
  39 Ag     1.382406    2.409446   19.565094    ( 0.0000,  0.0000,  0.0000)
  40 Ir     4.197625    2.314108   19.013613    ( 0.0000,  0.0000,  0.0000)
  41 Pt     6.939932    2.316533   19.139235    ( 0.0000,  0.0000,  0.0000)
  42 Ir     2.898069    4.840312   19.066870    ( 0.0000,  0.0000,  0.0000)
  43 Ir     5.535240    4.933143   19.070753    ( 0.0000,  0.0000,  0.0000)
  44 Ag     8.398323    4.861713   19.555678    ( 0.0000,  0.0000,  0.0000)
  45 O      4.213832    5.676219   20.493559    ( 0.0000,  0.0000,  0.0000)

Unit cell:
           periodic     x           y           z      points  spacing
  1. axis:    yes    8.445283    0.000000    0.000000    35     0.2090
  2. axis:    yes    4.222641    7.313829    0.000000    35     0.2090
  3. axis:    no     0.000000    0.000000   29.175054   135     0.2161

  Lengths:   8.445283   8.445283  29.175054
  Angles:   90.000000  90.000000  60.000000

Effective grid spacing dv^(1/3) = 0.2217

                     log10-error:    total        iterations:
           time      wfs    density  energy       fermi  poisson
iter:   1  00:07:09  -3.86   +inf  -265.456056    3             
iter:   2  00:08:17  -3.44  -2.83  -267.057014    2             
iter:   3  00:09:25  -3.67  -2.01  -265.410393    3             
iter:   4  00:10:32  -5.28  -3.31  -265.403574    2             
iter:   5  00:11:39  -5.96  -3.72  -265.403310    2             
iter:   6  00:12:45  -6.34  -3.80  -265.402669    2             
iter:   7  00:13:51  -6.35  -3.91  -265.402110    2             
iter:   8  00:14:57  -6.34  -4.00  -265.402447    2             
iter:   9  00:16:03  -6.71  -4.22  -265.401995    2             
iter:  10  00:17:10  -7.11  -4.17  -265.402387    2             
iter:  11  00:18:16  -7.59  -4.38  -265.402332    2             

Converged after 11 iterations.

Dipole moment: (21.634288, 17.449130, -0.097816) |e|*Ang

Energy contributions relative to reference atoms: (reference = -16429278.754816)

Kinetic:       -150.640616
Potential:      +93.740527
External:        +0.000000
XC:            -201.127213
Entropy (-ST):   -2.060225
Local:           -6.344919
--------------------------
Free energy:   -266.432444
Extrapolated:  -265.402332

Fermi level: 1.30627

Showing only first 2 kpts
 Kpt  Band  Eigenvalues  Occupancy
  0   357      1.30443    0.12615
  0   358      1.32197    0.11521
  0   359      1.37420    0.08411
  0   360      1.40341    0.06865

  1   357      1.18933    0.19076
  1   358      1.20852    0.18166
  1   359      1.25890    0.15406
  1   360      1.28573    0.13779



Forces in eV/Ang:
  0 Ag   -0.41470    0.16023   -1.04314
  1 Ag    0.25249    0.22267   -0.86453
  2 Ir    0.49401   -0.17479    0.03913
  3 Ir   -0.10296    1.24774    1.37547
  4 Ir    0.40936    0.39712    0.88232
  5 Ir   -0.32224   -0.02746    1.22205
  6 Ir   -1.71745   -0.50911    0.73401
  7 Ag   -0.12090   -0.34129   -0.95376
  8 Pt    1.05482   -0.37974    0.49914
  9 Ag    0.12481    0.01743    0.21208
 10 Ir   -0.02855   -0.40631    1.04643
 11 Ir   -0.62966   -0.80591   -0.47100
 12 Ir    0.39322    0.17767    0.21416
 13 Ag   -0.01861   -0.02704    0.19785
 14 Ag    0.06860    0.06472    0.20034
 15 Pt   -0.13112   -0.04936   -0.57418
 16 Ru    0.63501    0.47911   -1.34504
 17 Ir    0.14332    0.26965   -1.23148
 18 Ir    0.00535   -0.01953    0.00081
 19 Pt   -0.01402   -0.01181   -0.00978
 20 Pt    0.00741   -0.00351   -0.01193
 21 Ag    0.00521   -0.00494    0.00642
 22 Ag    0.00098   -0.00350    0.00671
 23 Ag   -0.00219   -0.00680   -0.01188
 24 Pt    0.02077   -0.00768   -0.01079
 25 Ag   -0.01439    0.00423   -0.00051
 26 Ir    0.00563   -0.00785   -0.01844
 27 Ru   -0.02888   -0.02709    0.00587
 28 Ir   -0.02067   -0.01391   -0.03431
 29 Ir    0.02301   -0.01001    0.00912
 30 Ir   -0.00165   -0.00881    0.00633
 31 Ir    0.00015   -0.00761    0.00447
 32 Pt   -0.02926   -0.01324    0.02175
 33 Ag   -0.01299   -0.00623    0.01562
 34 Ir   -0.00745   -0.01423   -0.02359
 35 Ru   -0.00034   -0.01933    0.00026
 36 Ir   -0.04439   -0.00772    0.01081
 37 Ir   -0.01615   -0.03269    0.01087
 38 Pt    0.04515   -0.02716   -0.00897
 39 Ag   -0.02758   -0.01275    0.02143
 40 Ir    0.01139    0.01397    0.01320
 41 Pt   -0.01342   -0.01354   -0.00627
 42 Ir   -0.01006   -0.00357    0.03100
 43 Ir    0.00538   -0.04186    0.02416
 44 Ag   -0.01985   -0.01300    0.01483
 45 O     0.02686   -0.00092   -0.02281

Timing:                                      incl.     excl.
-------------------------------------------------------------------
Density initialized from wave functions:    26.999    26.998   0.2% |
 Symmetrize density:                         0.001     0.001   0.0% |
Forces:                                    167.411   167.411   1.1% |
Hamiltonian:                                22.718     0.129   0.0% |
 Atomic:                                     5.020     2.364   0.0% |
  XC Correction:                             2.656     2.656   0.0% |
 Calculate atomic Hamiltonians:              8.184     8.184   0.1% |
 Communicate:                                1.341     1.341   0.0% |
 Initialize Hamiltonian:                     0.000     0.000   0.0% |
 Poisson:                                    0.060     0.060   0.0% |
 XC 3D grid:                                 7.983     7.983   0.1% |
LCAO initialization:                        52.531     2.305   0.0% |
 LCAO eigensolver:                           4.911     0.002   0.0% |
  Calculate projections:                     0.038     0.038   0.0% |
  DenseAtomicCorrection:                     0.056     0.056   0.0% |
  Distribute overlap matrix:                 0.195     0.195   0.0% |
  Orbital Layouts:                           0.414     0.414   0.0% |
  Potential matrix:                          4.160     4.160   0.0% |
  Sum over cells:                            0.047     0.047   0.0% |
 LCAO to grid:                              43.686    43.686   0.3% |
 Set positions (LCAO WFS):                   1.628     0.671   0.0% |
  Basic WFS set positions:                   0.002     0.002   0.0% |
  Basis functions set positions:             0.000     0.000   0.0% |
  P tci:                                     0.399     0.399   0.0% |
  ST tci:                                    0.412     0.412   0.0% |
  mktci:                                     0.145     0.145   0.0% |
PWDescriptor:                                0.036     0.036   0.0% |
Redistribute:                                0.065     0.065   0.0% |
SCF-cycle:                               14794.913  1172.189   7.7% |--|
 Davidson:                               12435.854  3078.182  20.3% |-------|
  Apply H:                                1997.539  1932.244  12.8% |----|
   HMM T:                                   65.295    65.295   0.4% |
  Subspace diag:                          1815.827     0.078   0.0% |
   calc_h_matrix:                          974.560   300.618   2.0% ||
    Apply H:                               673.942   651.034   4.3% |-|
     HMM T:                                 22.908    22.908   0.2% |
   diagonalize:                             64.419    64.419   0.4% |
   rotate_psi:                             776.770   776.770   5.1% |-|
  calc. matrices:                         3510.348  2197.268  14.5% |-----|
   Apply H:                               1313.080  1269.927   8.4% |--|
    HMM T:                                  43.153    43.153   0.3% |
  diagonalize:                             580.540   580.540   3.8% |-|
  rotate_psi:                             1453.418  1453.418   9.6% |---|
 Density:                                  624.595     0.016   0.0% |
  Atomic density matrices:                   4.279     4.279   0.0% |
  Mix:                                     226.977   226.977   1.5% ||
  Multipole moments:                         0.235     0.235   0.0% |
  Pseudo density:                          393.089   393.072   2.6% ||
   Symmetrize density:                       0.017     0.017   0.0% |
 Hamiltonian:                              506.744     2.576   0.0% |
  Atomic:                                  110.684    54.736   0.4% |
   XC Correction:                           55.948    55.948   0.4% |
  Calculate atomic Hamiltonians:           179.112   179.112   1.2% |
  Communicate:                              35.937    35.937   0.2% |
  Poisson:                                   1.175     1.175   0.0% |
  XC 3D grid:                              177.260   177.260   1.2% |
 Orthonormalize:                            55.530     0.006   0.0% |
  calc_s_matrix:                             6.634     6.634   0.0% |
  inverse-cholesky:                          1.717     1.717   0.0% |
  projections:                              30.423    30.423   0.2% |
  rotate_psi_s:                             16.751    16.751   0.1% |
Set symmetry:                                0.001     0.001   0.0% |
Other:                                      70.638    70.638   0.5% |
-------------------------------------------------------------------
Total:                                             15135.313 100.0%

Date: Fri Mar  4 00:18:37 2022
