
  ___ ___ ___ _ _ _  
 |   |   |_  | | | | 
 | | | | | . | | | | 
 |__ |  _|___|_____|  1.5.1
 |___|_|             

User:   clausen@node488.cluster
Date:   Thu Mar  3 19:44:22 2022
Arch:   x86_64
Pid:    43901
Python: 3.6.12
gpaw:   /software/kemi/gpaw/1.5.1/gpaw
_gpaw:  /software/kemi/gpaw/1.5.1/bin/gpaw-python
ase:    /software/kemi/ase/3.17.0/ase (version 3.17.0)
numpy:  /opt/rh/rh-python36/root/usr/lib64/python3.6/site-packages/numpy (version 1.13.1)
scipy:  /opt/rh/rh-python36/root/usr/lib64/python3.6/site-packages/scipy (version 0.19.1)
units:  Angstrom and eV
cores:  16

Input parameters:
  kpts: [4 4 1]
  mode: {ecut: 400.0,
         gammacentered: False,
         name: pw}
  xc: RPBE

System changes: positions, numbers, cell, pbc, initial_charges, initial_magmoms 

Initialize ...

Ag-setup:
  name: Silver
  id: c05e55bab2c3858b3f9398f6d75cb77c
  Z: 47
  valence: 17
  core: 30
  charge: 0.0
  file: /software/kemi/gpaw-setups/0.9.20000/Ag.RPBE.gz
  cutoffs: 1.25(comp), 2.35(filt), 2.19(core), lmax=2
  valence states:
                energy  radius
    5s(1.00)    -4.277   1.286
    4p(6.00)   -58.523   1.328
    5p(0.00)    -0.755   1.328
    4d(10.00)    -7.386   1.180
    *s          22.934   1.286
    *d          19.826   1.180

  Using partial waves for Ag as LCAO basis

Ir-setup:
  name: Iridium
  id: 73b603359d1d5397a85ae3c2440f9033
  Z: 77
  valence: 15
  core: 62
  charge: 0.0
  file: /software/kemi/gpaw-setups/0.9.20000/Ir.RPBE.gz
  cutoffs: 1.26(comp), 2.40(filt), 2.36(core), lmax=2
  valence states:
                energy  radius
    6s(2.00)    -6.219   1.296
    5p(6.00)   -54.684   1.328
    6p(0.00)    -1.215   1.328
    5d(7.00)    -7.118   1.286
    *s          20.992   1.296
    *d          20.093   1.286

  Using partial waves for Ir as LCAO basis

Pt-setup:
  name: Platinum
  id: f04f522592575c47ad794f6b4a415b4b
  Z: 78
  valence: 16
  core: 62
  charge: 0.0
  file: /software/kemi/gpaw-setups/0.9.20000/Pt.RPBE.gz
  cutoffs: 1.29(comp), 2.26(filt), 2.26(core), lmax=2
  valence states:
                energy  radius
    6s(1.00)    -5.516   1.307
    5p(6.00)   -55.971   1.371
    6p(0.00)    -0.856   1.371
    5d(9.00)    -6.087   1.307
    *s          21.695   1.307
    *d          21.125   1.307

  Using partial waves for Pt as LCAO basis

Ru-setup:
  name: Ruthenium
  id: 76477906e28f51dc1b29884d53556fe9
  Z: 44
  valence: 16
  core: 28
  charge: 0.0
  file: /software/kemi/gpaw-setups/0.9.20000/Ru.RPBE.gz
  cutoffs: 1.23(comp), 2.16(filt), 1.30(core), lmax=2
  valence states:
                energy  radius
    4s(2.00)   -76.255   1.281
    5s(1.00)    -4.126   1.281
    4p(6.00)   -46.371   1.286
    5p(0.00)    -0.913   1.286
    4d(7.00)    -5.146   1.254
    *d          22.066   1.254

  Using partial waves for Ru as LCAO basis

O-setup:
  name: Oxygen
  id: 08071ca1eed670e7821b24b7eb4d558c
  Z: 8
  valence: 6
  core: 2
  charge: 0.0
  file: /software/kemi/gpaw-setups/0.9.20000/O.RPBE.gz
  cutoffs: 0.67(comp), 1.17(filt), 0.83(core), lmax=2
  valence states:
                energy  radius
    2s(2.00)   -24.041   0.688
    2p(4.00)    -8.984   0.598
    *s           3.170   0.688
    *p          18.228   0.598
    *d           0.000   0.619

  Using partial waves for O as LCAO basis

H-setup:
  name: Hydrogen
  id: ea3f9156a1dc40d47a60fdce8f8bd75d
  Z: 1
  valence: 1
  core: 0
  charge: 0.0
  file: /software/kemi/gpaw-setups/0.9.20000/H.RPBE.gz
  cutoffs: 0.48(comp), 0.85(filt), 0.53(core), lmax=2
  valence states:
                energy  radius
    1s(1.00)    -6.572   0.476
    *s          20.639   0.476
    *p           0.000   0.476

  Using partial waves for H as LCAO basis

Reference energy: -16429291.423757

Spin-paired calculation

Occupation numbers:
  Fermi-Dirac: width=0.1000 eV

Convergence criteria:
  Maximum total energy change: 0.0005 eV / electron
  Maximum integral of absolute density change: 0.0001 electrons
  Maximum integral of absolute eigenstate change: 4e-08 eV^2
  Maximum number of iterations: 333

Symmetries present (total): 1

  ( 1  0  0)
  ( 0  1  0)
  ( 0  0  1)

16 k-points: 4 x 4 x 1 Monkhorst-Pack grid
8 k-points in the irreducible part of the Brillouin zone
       k-points in crystal coordinates                weights
   0:     0.12500000   -0.37500000    0.00000000          2/16
   1:     0.12500000   -0.12500000    0.00000000          2/16
   2:     0.12500000    0.12500000    0.00000000          2/16
   3:     0.12500000    0.37500000    0.00000000          2/16
   4:     0.37500000   -0.37500000    0.00000000          2/16
   5:     0.37500000   -0.12500000    0.00000000          2/16
   6:     0.37500000    0.12500000    0.00000000          2/16
   7:     0.37500000    0.37500000    0.00000000          2/16

Wave functions: Plane wave expansion
  Cutoff energy: 400.000 eV
  Number of coefficients (min, max): 32722, 32776
  Pulay-stress correction: 0.000000 eV/Ang^3 (de/decut=0.000000)
  Using FFTW library
  ScaLapack parameters: grid=1x1, blocksize=None
  Wavefunction extrapolation:
    Improved wavefunction reuse through dual PAW basis 

Eigensolver
   Davidson(niter=2, smin=None, normalize=True) 

Densities:
  Coarse grid: 35*35*135 grid
  Fine grid: 70*70*270 grid
  Total Charge: 0.000000 

Density mixing:
  Method: separate
  Backend: pulay
  Linear mixing parameter: 0.05
  Mixing with 5 old densities
  Damping of long wave oscillations: 50 

Hamiltonian:
  XC and Coulomb potentials evaluated on a 70*70*270 grid
  Using the RPBE Exchange-Correlation functional
 

XC parameters: RPBE with 2 nearest neighbor stencil

Memory estimate:
  Process memory now: 150.82 MiB
  Calculator: 545.08 MiB
    Density: 51.32 MiB
      Arrays: 16.41 MiB
      Localized functions: 28.56 MiB
      Mixer: 6.36 MiB
    Hamiltonian: 11.63 MiB
      Arrays: 10.73 MiB
      XC: 0.00 MiB
      Poisson: 0.00 MiB
      vbar: 0.90 MiB
    Wavefunctions: 482.13 MiB
      Arrays psit_nG: 218.05 MiB
      Eigensolver: 249.57 MiB
      Projections: 2.75 MiB
      Projectors: 5.13 MiB
      PW-descriptor: 6.62 MiB

Total number of cores used: 16
Parallelization over k-points: 8
Domain decomposition: 1 x 1 x 2

Number of atoms: 47
Number of atomic orbitals: 548
Number of bands in calculation: 436
Bands to converge: occupied states only
Number of valence electrons: 719

... initialized

Initializing position-dependent things.

Density initialized from atomic densities
Creating initial wave functions:
  436 bands from LCAO basis set

                                             
                                             
                                             
                                             
                                             
                                             
                     H                       
                   O                         
                               Ag            
                  Ir    Ir                   
            Ag    AIr     Pt    Ru           
                                             
       Ir    IIr    IPt    Pt                
         Ru    Ir     Ir                     
                     Pt     Ag     Ir        
                Ag     Ag     Ag             
                                             
           Ir    PPt    RPt    Ir            
                                             
            Ir    IAg    AAg    Pt           
       Ag    IIr    IIr    Ir                
                                             
        Ag     Ag     Ir                     
                                             
                                             
                                             
                                             
                                             

Positions:
   0 Ag     0.000000    1.621936   10.000000    ( 0.0000,  0.0000,  0.0000)
   1 Ag     2.809275    1.621936   10.000000    ( 0.0000,  0.0000,  0.0000)
   2 Ir     5.618550    1.621936   10.000000    ( 0.0000,  0.0000,  0.0000)
   3 Ir     1.404638    4.054840   10.000000    ( 0.0000,  0.0000,  0.0000)
   4 Ir     4.213913    4.054840   10.000000    ( 0.0000,  0.0000,  0.0000)
   5 Ir     7.023188    4.054840   10.000000    ( 0.0000,  0.0000,  0.0000)
   6 Ir     2.809275    6.487743   10.000000    ( 0.0000,  0.0000,  0.0000)
   7 Ag     5.618550    6.487743   10.000000    ( 0.0000,  0.0000,  0.0000)
   8 Pt     8.427826    6.487743   10.000000    ( 0.0000,  0.0000,  0.0000)
   9 Ag     0.000000    0.000000   12.293764    ( 0.0000,  0.0000,  0.0000)
  10 Ir     2.809275    0.000000   12.293764    ( 0.0000,  0.0000,  0.0000)
  11 Ir     5.618550    0.000000   12.293764    ( 0.0000,  0.0000,  0.0000)
  12 Ir     1.404638    2.432904   12.293764    ( 0.0000,  0.0000,  0.0000)
  13 Ag     4.213913    2.432904   12.293764    ( 0.0000,  0.0000,  0.0000)
  14 Ag     7.023188    2.432904   12.293764    ( 0.0000,  0.0000,  0.0000)
  15 Pt     2.809275    4.865807   12.293764    ( 0.0000,  0.0000,  0.0000)
  16 Ru     5.618550    4.865807   12.293764    ( 0.0000,  0.0000,  0.0000)
  17 Ir     8.427826    4.865807   12.293764    ( 0.0000,  0.0000,  0.0000)
  18 Ir     1.441638    0.791118   14.593247    ( 0.0000,  0.0000,  0.0000)
  19 Pt     4.193480    0.729862   14.611205    ( 0.0000,  0.0000,  0.0000)
  20 Pt     7.034823    0.803600   14.634811    ( 0.0000,  0.0000,  0.0000)
  21 Ag     2.789574    3.267050   14.608106    ( 0.0000,  0.0000,  0.0000)
  22 Ag     5.614143    3.230616   14.629701    ( 0.0000,  0.0000,  0.0000)
  23 Ag     8.464759    3.239382   14.607930    ( 0.0000,  0.0000,  0.0000)
  24 Pt     4.237230    5.675263   14.599690    ( 0.0000,  0.0000,  0.0000)
  25 Ag     7.020289    5.624637   14.588938    ( 0.0000,  0.0000,  0.0000)
  26 Ir     9.810296    5.749034   14.534386    ( 0.0000,  0.0000,  0.0000)
  27 Ru     0.088724    1.655821   16.925664    ( 0.0000,  0.0000,  0.0000)
  28 Ir     2.745717    1.627778   16.875164    ( 0.0000,  0.0000,  0.0000)
  29 Ir     5.551846    1.597836   16.889230    ( 0.0000,  0.0000,  0.0000)
  30 Ir     1.358794    4.007324   17.013226    ( 0.0000,  0.0000,  0.0000)
  31 Ir     4.198339    3.977911   16.957702    ( 0.0000,  0.0000,  0.0000)
  32 Pt     7.125382    4.056246   16.998429    ( 0.0000,  0.0000,  0.0000)
  33 Ag     2.759687    6.474835   16.802442    ( 0.0000,  0.0000,  0.0000)
  34 Ir     5.663661    6.563267   16.864024    ( 0.0000,  0.0000,  0.0000)
  35 Ru     8.399575    6.483077   16.866623    ( 0.0000,  0.0000,  0.0000)
  36 Ir     0.015859   -0.055829   18.998154    ( 0.0000,  0.0000,  0.0000)
  37 Ir     2.776668   -0.025110   18.984491    ( 0.0000,  0.0000,  0.0000)
  38 Pt     5.623976   -0.052286   19.132338    ( 0.0000,  0.0000,  0.0000)
  39 Ag     1.411190    2.424549   19.550242    ( 0.0000,  0.0000,  0.0000)
  40 Ir     4.228423    2.403175   19.018562    ( 0.0000,  0.0000,  0.0000)
  41 Pt     6.964575    2.313754   19.128521    ( 0.0000,  0.0000,  0.0000)
  42 Ir     2.920544    4.885225   19.043791    ( 0.0000,  0.0000,  0.0000)
  43 Ir     5.524960    4.949858   19.026821    ( 0.0000,  0.0000,  0.0000)
  44 Ag     8.407084    4.876484   19.535850    ( 0.0000,  0.0000,  0.0000)
  45 O      4.228423    2.403175   21.550242    ( 0.0000,  0.0000,  0.0000)
  46 H      4.878423    3.053175   21.950242    ( 0.0000,  0.0000,  0.0000)

Unit cell:
           periodic     x           y           z      points  spacing
  1. axis:    yes    8.445283    0.000000    0.000000    35     0.2090
  2. axis:    yes    4.222641    7.313829    0.000000    35     0.2090
  3. axis:    no     0.000000    0.000000   29.175054   135     0.2161

  Lengths:   8.445283   8.445283  29.175054
  Angles:   90.000000  90.000000  60.000000

Effective grid spacing dv^(1/3) = 0.2217

                     log10-error:    total        iterations:
           time      wfs    density  energy       fermi  poisson
iter:   1  19:46:47  +0.19   +inf  -300.112595    3             
iter:   2  19:47:58  -1.11  -1.37  -295.904432    36            
iter:   3  19:49:11  -1.37  -1.33  -333.702790    34            
iter:   4  19:50:24  -1.82  -1.24  -279.132016    3             
iter:   5  19:51:36  -2.24  -1.48  -274.005411    36            
iter:   6  19:52:46  -2.35  -1.53  -272.261635    3             
iter:   7  19:53:50  -2.29  -1.58  -269.053535    3             
iter:   8  19:54:59  -2.68  -1.73  -268.415554    3             
iter:   9  19:56:11  -3.23  -1.83  -268.417005    3             
iter:  10  19:57:23  -2.25  -1.84  -269.355879    3             
iter:  11  19:58:35  -2.97  -1.96  -268.219153    3             
iter:  12  19:59:47  -3.36  -2.21  -268.708328    3             
iter:  13  20:01:01  -3.57  -2.11  -268.418513    3             
iter:  14  20:02:13  -3.15  -2.20  -268.169798    3             
iter:  15  20:03:24  -3.53  -2.37  -268.160822    3             
iter:  16  20:04:34  -3.58  -2.49  -268.107813    3             
iter:  17  20:05:37  -3.94  -2.60  -268.076843    2             
iter:  18  20:06:49  -4.06  -2.72  -268.098896    3             
iter:  19  20:08:01  -4.18  -2.69  -268.092610    2             
iter:  20  20:09:13  -4.41  -2.67  -268.052179    3             
iter:  21  20:10:26  -4.64  -2.89  -268.048793    2             
iter:  22  20:11:38  -4.97  -2.93  -268.048907    3             
iter:  23  20:12:50  -4.76  -2.93  -268.045922    2             
iter:  24  20:14:03  -4.84  -3.03  -268.056374    3             
iter:  25  20:15:08  -5.12  -3.01  -268.047752    2             
iter:  26  20:16:14  -5.28  -3.04  -268.046666    3             
iter:  27  20:17:26  -5.54  -3.20  -268.047506    3             
iter:  28  20:18:38  -5.70  -3.20  -268.045196    2             
iter:  29  20:19:50  -5.81  -3.27  -268.044625    3             
iter:  30  20:21:02  -5.68  -3.30  -268.047537    2             
iter:  31  20:22:15  -5.80  -3.27  -268.043246    2             
iter:  32  20:23:27  -5.87  -3.24  -268.042526    2             
iter:  33  20:24:37  -6.04  -3.42  -268.043313    2             
iter:  34  20:25:40  -6.01  -3.42  -268.042430    2             
iter:  35  20:26:53  -6.39  -3.48  -268.042448    2             
iter:  36  20:28:05  -6.23  -3.51  -268.043689    2             
iter:  37  20:29:17  -6.19  -3.50  -268.041856    2             
iter:  38  20:30:29  -5.92  -3.41  -268.042296    2             
iter:  39  20:31:41  -6.26  -3.65  -268.043592    2             
iter:  40  20:32:54  -6.54  -3.55  -268.042900    2             
iter:  41  20:34:06  -6.68  -3.68  -268.042727    2             
iter:  42  20:35:18  -6.60  -3.72  -268.043153    2             
iter:  43  20:36:23  -6.25  -3.70  -268.041604    2             
iter:  44  20:37:36  -6.53  -3.64  -268.041967    2             
iter:  45  20:38:49  -7.08  -4.00  -268.042417    2             
iter:  46  20:40:01  -7.20  -3.91  -268.042062    2             
iter:  47  20:41:12  -7.27  -4.05  -268.041862    2             
iter:  48  20:42:25  -7.36  -4.12  -268.041951    2             
iter:  49  20:43:37  -7.13  -4.14  -268.041612    2             
iter:  50  20:44:49  -7.62  -4.09  -268.041843    2             

Converged after 50 iterations.

Dipole moment: (23.519653, 19.119696, -0.306022) |e|*Ang

Energy contributions relative to reference atoms: (reference = -16429291.423757)

Kinetic:       -159.258097
Potential:     +100.915543
External:        +0.000000
XC:            -202.441999
Entropy (-ST):   -2.110437
Local:           -6.202070
--------------------------
Free energy:   -269.097061
Extrapolated:  -268.041843

Fermi level: 1.21398

Showing only first 2 kpts
 Kpt  Band  Eigenvalues  Occupancy
  0   357      1.19830    0.13478
  0   358      1.23160    0.11402
  0   359      1.24570    0.10534
  0   360      1.29882    0.07494

  1   357      1.07287    0.20098
  1   358      1.12172    0.17890
  1   359      1.14739    0.16515
  1   360      1.17350    0.14996



Forces in eV/Ang:
  0 Ag   -0.41772    0.15670   -1.04997
  1 Ag    0.24771    0.22489   -0.85725
  2 Ir    0.50114   -0.17165    0.02522
  3 Ir   -0.11331    1.23562    1.38492
  4 Ir    0.41683    0.40356    0.88200
  5 Ir   -0.32973   -0.03010    1.20114
  6 Ir   -1.71752   -0.49783    0.73589
  7 Ag   -0.12054   -0.34624   -0.95187
  8 Pt    1.06452   -0.39485    0.47963
  9 Ag    0.13784    0.01095    0.14834
 10 Ir   -0.00890   -0.40742    0.97817
 11 Ir   -0.64560   -0.77169   -0.53178
 12 Ir    0.38719    0.17313    0.15251
 13 Ag   -0.01486   -0.03703    0.14576
 14 Ag    0.05291    0.08384    0.13509
 15 Pt   -0.14378   -0.04343   -0.60240
 16 Ru    0.63214    0.45780   -1.37752
 17 Ir    0.12933    0.27827   -1.27011
 18 Ir   -0.02780    0.01324    0.00636
 19 Pt    0.00719    0.04176    0.03123
 20 Pt    0.04845   -0.00463    0.01027
 21 Ag    0.00912    0.01458    0.03743
 22 Ag    0.01505    0.00655    0.02529
 23 Ag   -0.00427    0.00908   -0.01887
 24 Pt    0.00784    0.03204    0.02932
 25 Ag   -0.00439   -0.04606    0.00393
 26 Ir    0.01566   -0.06039    0.02155
 27 Ru   -0.06748   -0.02198    0.09513
 28 Ir    0.11930    0.01660    0.13450
 29 Ir   -0.15260    0.07566    0.09991
 30 Ir   -0.02540   -0.02725    0.04325
 31 Ir   -0.00723   -0.13636    0.03748
 32 Pt    0.00034   -0.00202   -0.03573
 33 Ag   -0.01565   -0.04438   -0.04882
 34 Ir    0.04891   -0.06686    0.17254
 35 Ru    0.03035   -0.01376    0.03364
 36 Ir    0.01950    0.01139    0.00714
 37 Ir   -0.06157   -0.17101   -0.15141
 38 Pt   -0.03632   -0.12770   -0.04910
 39 Ag   -0.02848   -0.01894    0.03426
 40 Ir    0.13336    0.15928    2.16567
 41 Pt    0.20252   -0.05352   -0.03046
 42 Ir   -0.07736    0.13014   -0.06426
 43 Ir    0.02376    0.16529   -0.10675
 44 Ag   -0.02187   -0.02551   -0.02889
 45 O     0.01563    0.00140   -1.34897
 46 H    -0.29421   -0.26164   -0.57024

System changes: positions 

Initializing position-dependent things.

Density initialized from wave functions
                                             
                                             
                                             
                                             
                                             
                                             
                     H                       
                   O                         
                               Ag            
                  Ir    Ir                   
            Ag    AIr     Pt    Ru           
                                             
       Ir    IIr    IPt    Pt                
         Ru    Ir     Ir                     
                     Pt     Ag     Ir        
                Ag     Ag     Ag             
                                             
           Ir    PPt    RPt    Ir            
                                             
            Ir    IAg    AAg    Pt           
       Ag    IIr    IIr    Ir                
                                             
        Ag     Ag     Ir                     
                                             
                                             
                                             
                                             
                                             

Positions:
   0 Ag     0.000000    1.621936   10.000000    ( 0.0000,  0.0000,  0.0000)
   1 Ag     2.809275    1.621936   10.000000    ( 0.0000,  0.0000,  0.0000)
   2 Ir     5.618550    1.621936   10.000000    ( 0.0000,  0.0000,  0.0000)
   3 Ir     1.404638    4.054840   10.000000    ( 0.0000,  0.0000,  0.0000)
   4 Ir     4.213913    4.054840   10.000000    ( 0.0000,  0.0000,  0.0000)
   5 Ir     7.023188    4.054840   10.000000    ( 0.0000,  0.0000,  0.0000)
   6 Ir     2.809275    6.487743   10.000000    ( 0.0000,  0.0000,  0.0000)
   7 Ag     5.618550    6.487743   10.000000    ( 0.0000,  0.0000,  0.0000)
   8 Pt     8.427826    6.487743   10.000000    ( 0.0000,  0.0000,  0.0000)
   9 Ag     0.000000    0.000000   12.293764    ( 0.0000,  0.0000,  0.0000)
  10 Ir     2.809275    0.000000   12.293764    ( 0.0000,  0.0000,  0.0000)
  11 Ir     5.618550    0.000000   12.293764    ( 0.0000,  0.0000,  0.0000)
  12 Ir     1.404638    2.432904   12.293764    ( 0.0000,  0.0000,  0.0000)
  13 Ag     4.213913    2.432904   12.293764    ( 0.0000,  0.0000,  0.0000)
  14 Ag     7.023188    2.432904   12.293764    ( 0.0000,  0.0000,  0.0000)
  15 Pt     2.809275    4.865807   12.293764    ( 0.0000,  0.0000,  0.0000)
  16 Ru     5.618550    4.865807   12.293764    ( 0.0000,  0.0000,  0.0000)
  17 Ir     8.427826    4.865807   12.293764    ( 0.0000,  0.0000,  0.0000)
  18 Ir     1.439083    0.792335   14.593832    ( 0.0000,  0.0000,  0.0000)
  19 Pt     4.194141    0.733701   14.614075    ( 0.0000,  0.0000,  0.0000)
  20 Pt     7.039278    0.803174   14.635755    ( 0.0000,  0.0000,  0.0000)
  21 Ag     2.790412    3.268390   14.611546    ( 0.0000,  0.0000,  0.0000)
  22 Ag     5.615527    3.231218   14.632026    ( 0.0000,  0.0000,  0.0000)
  23 Ag     8.464367    3.240217   14.606195    ( 0.0000,  0.0000,  0.0000)
  24 Pt     4.237950    5.678208   14.602386    ( 0.0000,  0.0000,  0.0000)
  25 Ag     7.019885    5.620403   14.589299    ( 0.0000,  0.0000,  0.0000)
  26 Ir     9.811736    5.743483   14.536367    ( 0.0000,  0.0000,  0.0000)
  27 Ru     0.082521    1.653800   16.934409    ( 0.0000,  0.0000,  0.0000)
  28 Ir     2.756684    1.629303   16.887528    ( 0.0000,  0.0000,  0.0000)
  29 Ir     5.537819    1.604791   16.898414    ( 0.0000,  0.0000,  0.0000)
  30 Ir     1.356459    4.004819   17.017202    ( 0.0000,  0.0000,  0.0000)
  31 Ir     4.197675    3.965376   16.961148    ( 0.0000,  0.0000,  0.0000)
  32 Pt     7.125413    4.056060   16.995144    ( 0.0000,  0.0000,  0.0000)
  33 Ag     2.758249    6.470755   16.797955    ( 0.0000,  0.0000,  0.0000)
  34 Ir     5.668157    6.557121   16.879885    ( 0.0000,  0.0000,  0.0000)
  35 Ru     8.402365    6.481812   16.869715    ( 0.0000,  0.0000,  0.0000)
  36 Ir     0.017652   -0.054781   18.998811    ( 0.0000,  0.0000,  0.0000)
  37 Ir     2.771008   -0.040831   18.970572    ( 0.0000,  0.0000,  0.0000)
  38 Pt     5.620636   -0.064025   19.127825    ( 0.0000,  0.0000,  0.0000)
  39 Ag     1.408572    2.422808   19.553392    ( 0.0000,  0.0000,  0.0000)
  40 Ir     4.240683    2.417817   19.217648    ( 0.0000,  0.0000,  0.0000)
  41 Pt     6.983193    2.308834   19.125721    ( 0.0000,  0.0000,  0.0000)
  42 Ir     2.913433    4.897188   19.037884    ( 0.0000,  0.0000,  0.0000)
  43 Ir     5.527145    4.965053   19.017007    ( 0.0000,  0.0000,  0.0000)
  44 Ag     8.405074    4.874139   19.533194    ( 0.0000,  0.0000,  0.0000)
  45 O      4.229860    2.403304   21.426234    ( 0.0000,  0.0000,  0.0000)
  46 H      4.851377    3.029123   21.897822    ( 0.0000,  0.0000,  0.0000)

Unit cell:
           periodic     x           y           z      points  spacing
  1. axis:    yes    8.445283    0.000000    0.000000    35     0.2090
  2. axis:    yes    4.222641    7.313829    0.000000    35     0.2090
  3. axis:    no     0.000000    0.000000   29.175054   135     0.2161

  Lengths:   8.445283   8.445283  29.175054
  Angles:   90.000000  90.000000  60.000000

Effective grid spacing dv^(1/3) = 0.2217

                     log10-error:    total        iterations:
           time      wfs    density  energy       fermi  poisson
iter:   1  20:46:28  -1.86   +inf  -272.543399    4             
iter:   2  20:47:35  -1.76  -1.94  -290.621041    36            
iter:   3  20:48:48  -1.63  -1.51  -310.663143    3             
iter:   4  20:50:01  -2.25  -1.41  -269.133472    36            
iter:   5  20:51:13  -3.14  -2.34  -268.793375    3             
iter:   6  20:52:26  -4.02  -2.58  -268.788571    3             
iter:   7  20:53:39  -4.06  -2.58  -268.701230    3             
iter:   8  20:54:52  -3.77  -2.70  -268.699395    3             
iter:   9  20:55:56  -3.71  -2.66  -268.634927    3             
iter:  10  20:57:09  -4.31  -2.77  -268.610354    3             
iter:  11  20:58:22  -4.95  -3.12  -268.604282    2             
iter:  12  20:59:34  -5.28  -3.28  -268.602107    3             
iter:  13  21:00:47  -5.20  -3.29  -268.601886    3             
iter:  14  21:01:59  -5.42  -3.30  -268.608415    2             
iter:  15  21:03:11  -5.62  -3.21  -268.600663    2             
iter:  16  21:04:20  -6.03  -3.49  -268.602178    2             
iter:  17  21:05:24  -5.85  -3.51  -268.601270    2             
iter:  18  21:06:34  -5.58  -3.64  -268.600196    2             
iter:  19  21:07:46  -5.92  -3.65  -268.600141    2             
iter:  20  21:08:59  -6.22  -3.73  -268.601881    2             
iter:  21  21:10:11  -6.56  -3.63  -268.600068    2             
iter:  22  21:11:23  -6.79  -4.01  -268.600453    2             
iter:  23  21:12:35  -6.56  -3.96  -268.600440    2             
iter:  24  21:13:47  -6.58  -4.03  -268.599819    2             
iter:  25  21:14:58  -6.78  -4.00  -268.600009    2             
iter:  26  21:16:02  -7.14  -4.10  -268.600532    2             
iter:  27  21:17:16  -7.30  -4.02  -268.599853    2             
iter:  28  21:18:28  -7.37  -4.20  -268.599959    2             
iter:  29  21:19:41  -7.44  -4.34  -268.600013    2             

Converged after 29 iterations.

Dipole moment: (24.583501, 20.162268, -0.125223) |e|*Ang

Energy contributions relative to reference atoms: (reference = -16429291.423757)

Kinetic:       -160.047842
Potential:     +100.989856
External:        +0.000000
XC:            -202.137407
Entropy (-ST):   -2.119973
Local:           -6.344634
--------------------------
Free energy:   -269.660000
Extrapolated:  -268.600013

Fermi level: 1.29622

Showing only first 2 kpts
 Kpt  Band  Eigenvalues  Occupancy
  0   357      1.27792    0.13640
  0   358      1.31034    0.11619
  0   359      1.32674    0.10607
  0   360      1.38021    0.07539

  1   357      1.15668    0.20036
  1   358      1.20082    0.18048
  1   359      1.22864    0.16570
  1   360      1.26307    0.14553



Forces in eV/Ang:
  0 Ag   -0.41611    0.15232   -1.05427
  1 Ag    0.24604    0.22398   -0.86502
  2 Ir    0.49969   -0.16295    0.03000
  3 Ir   -0.11487    1.23688    1.39257
  4 Ir    0.41855    0.40431    0.88868
  5 Ir   -0.33286   -0.03263    1.19924
  6 Ir   -1.71244   -0.49744    0.73732
  7 Ag   -0.12294   -0.34261   -0.95477
  8 Pt    1.06091   -0.39790    0.48937
  9 Ag    0.14146    0.00775    0.17208
 10 Ir    0.00237   -0.41541    0.98628
 11 Ir   -0.65823   -0.78062   -0.51334
 12 Ir    0.39877    0.17536    0.16184
 13 Ag   -0.01051   -0.03018    0.17591
 14 Ag    0.04554    0.08424    0.13607
 15 Pt   -0.14720   -0.05149   -0.61529
 16 Ru    0.63814    0.45344   -1.38859
 17 Ir    0.12465    0.28763   -1.27345
 18 Ir    0.02716    0.01555    0.08823
 19 Pt    0.00328   -0.00951    0.06225
 20 Pt    0.00540    0.02234    0.07276
 21 Ag    0.00826   -0.01428    0.04536
 22 Ag   -0.00116   -0.01390    0.02842
 23 Ag    0.01098   -0.01485    0.00827
 24 Pt    0.02546   -0.01156    0.04571
 25 Ag    0.00401    0.03725    0.01227
 26 Ir   -0.01014    0.00139   -0.03049
 27 Ru   -0.03294   -0.01735    0.03364
 28 Ir    0.15687    0.08589    0.14381
 29 Ir   -0.31711    0.14991    0.47386
 30 Ir    0.07647   -0.06256    0.05731
 31 Ir   -0.05412   -0.49170    0.60312
 32 Pt   -0.06173   -0.07370   -0.00773
 33 Ag    0.00738    0.01101   -0.02356
 34 Ir   -0.01626    0.02960   -0.14680
 35 Ru    0.01313    0.02727   -0.00490
 36 Ir   -0.04457    0.07091   -0.03537
 37 Ir    0.11859   -0.02614    0.21243
 38 Pt   -0.02137    0.00246   -0.04808
 39 Ag    0.00409   -0.02642    0.00401
 40 Ir    0.31373    0.43578    0.79229
 41 Pt    0.07076   -0.10742    0.00404
 42 Ir    0.00499    0.01213    0.03898
 43 Ir   -0.05796   -0.02526    0.08350
 44 Ag   -0.01737   -0.06589   -0.01197
 45 O    -0.17300   -0.18046   -1.52277
 46 H    -0.19575   -0.19423   -0.70425

System changes: positions 

Initializing position-dependent things.

Density initialized from wave functions
                                             
                                             
                                             
                                             
                                             
                                             
                     H                       
                   O                         
                  Ir    Ir     Ag            
            Ag     Ir                        
                  Ag      Pt    Ru           
       Ir    Ir     IPt     Pt               
              Ir                             
         Ru    Ir    PIr    Ag     Ir        
                                             
                Ag     Ag     Ag             
           Ir    PPt    RPt    Ir            
                                             
            Ir    IAg    AAg    Pt           
       Ag     Ir     Ir                      
             Ir     Ir     Ir                
        Ag     Ag     Ir                     
                                             
                                             
                                             
                                             
                                             

Positions:
   0 Ag     0.000000    1.621936   10.000000    ( 0.0000,  0.0000,  0.0000)
   1 Ag     2.809275    1.621936   10.000000    ( 0.0000,  0.0000,  0.0000)
   2 Ir     5.618550    1.621936   10.000000    ( 0.0000,  0.0000,  0.0000)
   3 Ir     1.404638    4.054840   10.000000    ( 0.0000,  0.0000,  0.0000)
   4 Ir     4.213913    4.054840   10.000000    ( 0.0000,  0.0000,  0.0000)
   5 Ir     7.023188    4.054840   10.000000    ( 0.0000,  0.0000,  0.0000)
   6 Ir     2.809275    6.487743   10.000000    ( 0.0000,  0.0000,  0.0000)
   7 Ag     5.618550    6.487743   10.000000    ( 0.0000,  0.0000,  0.0000)
   8 Pt     8.427826    6.487743   10.000000    ( 0.0000,  0.0000,  0.0000)
   9 Ag     0.000000    0.000000   12.293764    ( 0.0000,  0.0000,  0.0000)
  10 Ir     2.809275    0.000000   12.293764    ( 0.0000,  0.0000,  0.0000)
  11 Ir     5.618550    0.000000   12.293764    ( 0.0000,  0.0000,  0.0000)
  12 Ir     1.404638    2.432904   12.293764    ( 0.0000,  0.0000,  0.0000)
  13 Ag     4.213913    2.432904   12.293764    ( 0.0000,  0.0000,  0.0000)
  14 Ag     7.023188    2.432904   12.293764    ( 0.0000,  0.0000,  0.0000)
  15 Pt     2.809275    4.865807   12.293764    ( 0.0000,  0.0000,  0.0000)
  16 Ru     5.618550    4.865807   12.293764    ( 0.0000,  0.0000,  0.0000)
  17 Ir     8.427826    4.865807   12.293764    ( 0.0000,  0.0000,  0.0000)
  18 Ir     1.436528    0.793553   14.594417    ( 0.0000,  0.0000,  0.0000)
  19 Pt     4.194801    0.737539   14.616946    ( 0.0000,  0.0000,  0.0000)
  20 Pt     7.043732    0.802748   14.636698    ( 0.0000,  0.0000,  0.0000)
  21 Ag     2.791251    3.269731   14.614987    ( 0.0000,  0.0000,  0.0000)
  22 Ag     5.616910    3.231820   14.634351    ( 0.0000,  0.0000,  0.0000)
  23 Ag     8.463974    3.241052   14.604461    ( 0.0000,  0.0000,  0.0000)
  24 Pt     4.238671    5.681154   14.605081    ( 0.0000,  0.0000,  0.0000)
  25 Ag     7.019481    5.616168   14.589660    ( 0.0000,  0.0000,  0.0000)
  26 Ir     9.813176    5.737932   14.538347    ( 0.0000,  0.0000,  0.0000)
  27 Ru     0.076317    1.651780   16.943154    ( 0.0000,  0.0000,  0.0000)
  28 Ir     2.767650    1.630829   16.899893    ( 0.0000,  0.0000,  0.0000)
  29 Ir     5.523791    1.611747   16.907599    ( 0.0000,  0.0000,  0.0000)
  30 Ir     1.354125    4.002314   17.021178    ( 0.0000,  0.0000,  0.0000)
  31 Ir     4.197010    3.952840   16.964593    ( 0.0000,  0.0000,  0.0000)
  32 Pt     7.125444    4.055875   16.991859    ( 0.0000,  0.0000,  0.0000)
  33 Ag     2.756810    6.466676   16.793467    ( 0.0000,  0.0000,  0.0000)
  34 Ir     5.672653    6.550975   16.895747    ( 0.0000,  0.0000,  0.0000)
  35 Ru     8.405156    6.480548   16.872808    ( 0.0000,  0.0000,  0.0000)
  36 Ir     0.019445   -0.053734   18.999467    ( 0.0000,  0.0000,  0.0000)
  37 Ir     2.765348   -0.056552   18.956653    ( 0.0000,  0.0000,  0.0000)
  38 Pt     5.617297   -0.075764   19.123311    ( 0.0000,  0.0000,  0.0000)
  39 Ag     1.405954    2.421067   19.556542    ( 0.0000,  0.0000,  0.0000)
  40 Ir     4.252943    2.432459   19.416735    ( 0.0000,  0.0000,  0.0000)
  41 Pt     7.001811    2.303914   19.122921    ( 0.0000,  0.0000,  0.0000)
  42 Ir     2.906321    4.909152   19.031976    ( 0.0000,  0.0000,  0.0000)
  43 Ir     5.529329    4.980247   19.007194    ( 0.0000,  0.0000,  0.0000)
  44 Ag     8.403064    4.871794   19.530538    ( 0.0000,  0.0000,  0.0000)
  45 O      4.231297    2.403433   21.302226    ( 0.0000,  0.0000,  0.0000)
  46 H      4.824330    3.005071   21.845401    ( 0.0000,  0.0000,  0.0000)

Unit cell:
           periodic     x           y           z      points  spacing
  1. axis:    yes    8.445283    0.000000    0.000000    35     0.2090
  2. axis:    yes    4.222641    7.313829    0.000000    35     0.2090
  3. axis:    no     0.000000    0.000000   29.175054   135     0.2161

  Lengths:   8.445283   8.445283  29.175054
  Angles:   90.000000  90.000000  60.000000

Effective grid spacing dv^(1/3) = 0.2217

                     log10-error:    total        iterations:
           time      wfs    density  energy       fermi  poisson
iter:   1  21:21:26  -1.84   +inf  -272.215593    4             
iter:   2  21:22:39  -2.04  -2.01  -273.652379    37            
iter:   3  21:23:50  -2.08  -1.86  -289.003875    3             
iter:   4  21:25:03  -2.40  -1.52  -270.536648    3             
iter:   5  21:26:15  -3.19  -2.00  -268.871209    3             
iter:   6  21:27:20  -3.98  -2.46  -268.698767    3             
iter:   7  21:28:34  -3.86  -2.68  -268.629261    3             
iter:   8  21:29:47  -4.13  -2.80  -268.609989    2             
iter:   9  21:30:59  -3.95  -2.74  -268.768025    3             
iter:  10  21:32:12  -3.86  -2.48  -268.635676    3             
iter:  11  21:33:25  -4.24  -2.60  -268.576866    2             
iter:  12  21:34:37  -4.54  -2.92  -268.568875    3             
iter:  13  21:35:50  -5.11  -2.86  -268.552064    2             
iter:  14  21:37:03  -5.31  -3.12  -268.548547    3             
iter:  15  21:38:07  -5.07  -3.31  -268.554503    2             
iter:  16  21:39:11  -5.47  -3.21  -268.548854    3             
iter:  17  21:40:16  -5.20  -3.24  -268.552696    2             
iter:  18  21:41:29  -5.68  -3.29  -268.547129    2             
iter:  19  21:42:42  -5.57  -3.50  -268.548137    2             
iter:  20  21:43:53  -6.02  -3.63  -268.548136    2             
iter:  21  21:45:06  -6.50  -3.68  -268.547332    2             
iter:  22  21:46:18  -6.24  -3.86  -268.546736    2             
iter:  23  21:47:30  -6.64  -3.98  -268.547036    2             
iter:  24  21:48:34  -6.41  -4.04  -268.546721    2             
iter:  25  21:49:42  -6.52  -3.96  -268.546411    2             
iter:  26  21:50:55  -6.67  -3.77  -268.547026    2             
iter:  27  21:52:07  -7.69  -4.28  -268.546853    2             

Converged after 27 iterations.

Dipole moment: (25.551710, 21.138478, 0.145854) |e|*Ang

Energy contributions relative to reference atoms: (reference = -16429291.423757)

Kinetic:       -152.776461
Potential:      +94.705705
External:        +0.000000
XC:            -203.082498
Entropy (-ST):   -2.133809
Local:           -6.326693
--------------------------
Free energy:   -269.613757
Extrapolated:  -268.546853

Fermi level: 1.41962

Showing only first 2 kpts
 Kpt  Band  Eigenvalues  Occupancy
  0   357      1.40228    0.13581
  0   358      1.42095    0.12417
  0   359      1.45361    0.10396
  0   360      1.49116    0.08210

  1   357      1.28999    0.19630
  1   358      1.33091    0.17707
  1   359      1.35558    0.16371
  1   360      1.39160    0.14240



Forces in eV/Ang:
  0 Ag   -0.41757    0.15113   -1.05568
  1 Ag    0.24553    0.22600   -0.86879
  2 Ir    0.49905   -0.16038    0.02165
  3 Ir   -0.11126    1.23547    1.39207
  4 Ir    0.41749    0.40732    0.88471
  5 Ir   -0.33405   -0.03443    1.19329
  6 Ir   -1.70617   -0.49568    0.72668
  7 Ag   -0.12560   -0.34201   -0.95698
  8 Pt    1.06034   -0.39834    0.49440
  9 Ag    0.14253    0.00467    0.18775
 10 Ir    0.01718   -0.41786    1.00845
 11 Ir   -0.67384   -0.78462   -0.49025
 12 Ir    0.40838    0.16761    0.17846
 13 Ag   -0.00963   -0.02842    0.18398
 14 Ag    0.03940    0.08447    0.13514
 15 Pt   -0.15348   -0.06150   -0.62001
 16 Ru    0.64309    0.44884   -1.40017
 17 Ir    0.12319    0.29699   -1.27855
 18 Ir    0.07967    0.01459    0.15323
 19 Pt   -0.00161   -0.09005    0.05886
 20 Pt   -0.03138    0.04114    0.12371
 21 Ag   -0.00608   -0.03442    0.03657
 22 Ag   -0.01106   -0.03770    0.01653
 23 Ag    0.03572   -0.04872    0.03598
 24 Pt    0.04858   -0.04262    0.05248
 25 Ag    0.00830    0.13292    0.02592
 26 Ir   -0.02549    0.07744   -0.08869
 27 Ru    0.00746   -0.03186   -0.06422
 28 Ir    0.12138    0.14658   -0.01335
 29 Ir   -0.34861    0.14264    0.59530
 30 Ir    0.17259   -0.09862    0.03305
 31 Ir   -0.12877   -0.60564    0.83207
 32 Pt   -0.12810   -0.15584    0.02885
 33 Ag    0.03889    0.07518   -0.02941
 34 Ir   -0.16680    0.13485   -0.65679
 35 Ru    0.01744    0.07937   -0.09163
 36 Ir   -0.12293    0.11922   -0.01281
 37 Ir    0.34447    0.13794    0.66409
 38 Pt   -0.02443    0.13361   -0.05994
 39 Ag    0.00451   -0.03601   -0.04770
 40 Ir    0.42479    0.58660   -2.90050
 41 Pt   -0.11338   -0.09050   -0.00773
 42 Ir    0.12430   -0.13752    0.11160
 43 Ir   -0.10611   -0.30702    0.30940
 44 Ag   -0.02310   -0.10446    0.04684
 45 O    -0.13251   -0.15358    1.99134
 46 H    -0.21771   -0.25383   -0.75327

System changes: positions 

Initializing position-dependent things.

Density initialized from wave functions
                                             
                                             
                                             
                                             
                                             
                                             
                     H                       
                   O                         
                  Ir    Ir     Ag            
            Ag     Ir                        
                  Ag      Pt    Ru           
             Ir     IPt    Pt                
       Ir     Ir                             
         Ru    Ir    PIr    Ag     Ir        
                                             
                Ag     Ag     Ag             
           Ir    PPt    RPt    Ir            
                                             
            Ir    IAg    AAg    Pt           
       Ag     Ir     Ir                      
             Ir     Ir     Ir                
        Ag     Ag     Ir                     
                                             
                                             
                                             
                                             
                                             

Positions:
   0 Ag     0.000000    1.621936   10.000000    ( 0.0000,  0.0000,  0.0000)
   1 Ag     2.809275    1.621936   10.000000    ( 0.0000,  0.0000,  0.0000)
   2 Ir     5.618550    1.621936   10.000000    ( 0.0000,  0.0000,  0.0000)
   3 Ir     1.404638    4.054840   10.000000    ( 0.0000,  0.0000,  0.0000)
   4 Ir     4.213913    4.054840   10.000000    ( 0.0000,  0.0000,  0.0000)
   5 Ir     7.023188    4.054840   10.000000    ( 0.0000,  0.0000,  0.0000)
   6 Ir     2.809275    6.487743   10.000000    ( 0.0000,  0.0000,  0.0000)
   7 Ag     5.618550    6.487743   10.000000    ( 0.0000,  0.0000,  0.0000)
   8 Pt     8.427826    6.487743   10.000000    ( 0.0000,  0.0000,  0.0000)
   9 Ag     0.000000    0.000000   12.293764    ( 0.0000,  0.0000,  0.0000)
  10 Ir     2.809275    0.000000   12.293764    ( 0.0000,  0.0000,  0.0000)
  11 Ir     5.618550    0.000000   12.293764    ( 0.0000,  0.0000,  0.0000)
  12 Ir     1.404638    2.432904   12.293764    ( 0.0000,  0.0000,  0.0000)
  13 Ag     4.213913    2.432904   12.293764    ( 0.0000,  0.0000,  0.0000)
  14 Ag     7.023188    2.432904   12.293764    ( 0.0000,  0.0000,  0.0000)
  15 Pt     2.809275    4.865807   12.293764    ( 0.0000,  0.0000,  0.0000)
  16 Ru     5.618550    4.865807   12.293764    ( 0.0000,  0.0000,  0.0000)
  17 Ir     8.427826    4.865807   12.293764    ( 0.0000,  0.0000,  0.0000)
  18 Ir     1.437848    0.792924   14.594115    ( 0.0000,  0.0000,  0.0000)
  19 Pt     4.194460    0.735556   14.615463    ( 0.0000,  0.0000,  0.0000)
  20 Pt     7.041431    0.802968   14.636211    ( 0.0000,  0.0000,  0.0000)
  21 Ag     2.790818    3.269039   14.613209    ( 0.0000,  0.0000,  0.0000)
  22 Ag     5.616195    3.231509   14.633150    ( 0.0000,  0.0000,  0.0000)
  23 Ag     8.464177    3.240620   14.605357    ( 0.0000,  0.0000,  0.0000)
  24 Pt     4.238299    5.679632   14.603689    ( 0.0000,  0.0000,  0.0000)
  25 Ag     7.019690    5.618355   14.589474    ( 0.0000,  0.0000,  0.0000)
  26 Ir     9.812432    5.740799   14.537324    ( 0.0000,  0.0000,  0.0000)
  27 Ru     0.079521    1.652824   16.938637    ( 0.0000,  0.0000,  0.0000)
  28 Ir     2.761986    1.630041   16.893506    ( 0.0000,  0.0000,  0.0000)
  29 Ir     5.531037    1.608154   16.902855    ( 0.0000,  0.0000,  0.0000)
  30 Ir     1.355331    4.003608   17.019125    ( 0.0000,  0.0000,  0.0000)
  31 Ir     4.197353    3.959315   16.962813    ( 0.0000,  0.0000,  0.0000)
  32 Pt     7.125428    4.055971   16.993556    ( 0.0000,  0.0000,  0.0000)
  33 Ag     2.757553    6.468783   16.795785    ( 0.0000,  0.0000,  0.0000)
  34 Ir     5.670331    6.554150   16.887554    ( 0.0000,  0.0000,  0.0000)
  35 Ru     8.403714    6.481201   16.871210    ( 0.0000,  0.0000,  0.0000)
  36 Ir     0.018519   -0.054275   18.999128    ( 0.0000,  0.0000,  0.0000)
  37 Ir     2.768272   -0.048431   18.963843    ( 0.0000,  0.0000,  0.0000)
  38 Pt     5.619022   -0.069700   19.125643    ( 0.0000,  0.0000,  0.0000)
  39 Ag     1.407306    2.421967   19.554915    ( 0.0000,  0.0000,  0.0000)
  40 Ir     4.246610    2.424896   19.313898    ( 0.0000,  0.0000,  0.0000)
  41 Pt     6.992194    2.306455   19.124367    ( 0.0000,  0.0000,  0.0000)
  42 Ir     2.909994    4.902972   19.035028    ( 0.0000,  0.0000,  0.0000)
  43 Ir     5.528201    4.972399   19.012263    ( 0.0000,  0.0000,  0.0000)
  44 Ag     8.404102    4.873005   19.531910    ( 0.0000,  0.0000,  0.0000)
  45 O      4.230555    2.403366   21.366282    ( 0.0000,  0.0000,  0.0000)
  46 H      4.838301    3.017495   21.872478    ( 0.0000,  0.0000,  0.0000)

Unit cell:
           periodic     x           y           z      points  spacing
  1. axis:    yes    8.445283    0.000000    0.000000    35     0.2090
  2. axis:    yes    4.222641    7.313829    0.000000    35     0.2090
  3. axis:    no     0.000000    0.000000   29.175054   135     0.2161

  Lengths:   8.445283   8.445283  29.175054
  Angles:   90.000000  90.000000  60.000000

Effective grid spacing dv^(1/3) = 0.2217

                     log10-error:    total        iterations:
           time      wfs    density  energy       fermi  poisson
iter:   1  21:53:51  -2.20   +inf  -270.569307    3             
iter:   2  21:55:04  -2.16  -2.11  -291.934857    3             
iter:   3  21:56:09  -2.27  -1.50  -271.028864    3             
iter:   4  21:57:13  -3.17  -1.94  -269.117739    3             
iter:   5  21:58:27  -3.58  -2.46  -268.796634    3             
iter:   6  21:59:39  -4.10  -2.83  -268.760183    3             
iter:   7  22:00:51  -4.57  -2.93  -268.745189    2             
iter:   8  22:02:04  -4.78  -3.02  -268.740125    2             
iter:   9  22:03:16  -4.19  -3.01  -268.774151    3             
iter:  10  22:04:28  -4.52  -2.71  -268.747536    3             
iter:  11  22:05:38  -4.96  -2.88  -268.715465    3             
iter:  12  22:06:41  -5.69  -3.47  -268.715805    2             
iter:  13  22:07:46  -5.94  -3.48  -268.716515    2             
iter:  14  22:09:00  -6.12  -3.46  -268.714251    2             
iter:  15  22:10:12  -5.74  -3.69  -268.713947    2             
iter:  16  22:11:24  -6.20  -3.63  -268.717254    2             
iter:  17  22:12:36  -5.98  -3.46  -268.714005    2             
iter:  18  22:13:49  -6.54  -3.85  -268.714276    2             
iter:  19  22:15:02  -6.47  -3.99  -268.714399    2             
iter:  20  22:16:14  -6.90  -4.05  -268.713965    2             
iter:  21  22:17:26  -7.09  -3.96  -268.714166    2             
iter:  22  22:18:31  -6.63  -4.17  -268.715231    2             
iter:  23  22:19:36  -7.09  -3.90  -268.714124    2             
iter:  24  22:20:52  -7.31  -4.21  -268.714404    2             
iter:  25  22:22:05  -7.71  -4.52  -268.714391    2             

Converged after 25 iterations.

Dipole moment: (25.064502, 20.644052, -0.007171) |e|*Ang

Energy contributions relative to reference atoms: (reference = -16429291.423757)

Kinetic:       -159.115285
Potential:     +100.135253
External:        +0.000000
XC:            -202.350241
Entropy (-ST):   -2.126343
Local:           -6.320947
--------------------------
Free energy:   -269.777562
Extrapolated:  -268.714391

Fermi level: 1.35050

Showing only first 2 kpts
 Kpt  Band  Eigenvalues  Occupancy
  0   357      1.33224    0.13638
  0   358      1.35938    0.11945
  0   359      1.38271    0.10504
  0   360      1.43062    0.07744

  1   357      1.21517    0.19867
  1   358      1.25679    0.17963
  1   359      1.28438    0.16488
  1   360      1.32046    0.14363



Forces in eV/Ang:
  0 Ag   -0.41685    0.15146   -1.04763
  1 Ag    0.24556    0.22428   -0.85990
  2 Ir    0.50004   -0.16129    0.03719
  3 Ir   -0.11363    1.23871    1.40540
  4 Ir    0.41829    0.40546    0.89811
  5 Ir   -0.33357   -0.03442    1.20701
  6 Ir   -1.71078   -0.49699    0.74286
  7 Ag   -0.12417   -0.34181   -0.94952
  8 Pt    1.06150   -0.39883    0.49942
  9 Ag    0.14172    0.00647    0.17824
 10 Ir    0.00697   -0.41548    0.99696
 11 Ir   -0.66388   -0.78216   -0.50118
 12 Ir    0.40249    0.16966    0.17099
 13 Ag   -0.00980   -0.02959    0.18462
 14 Ag    0.04324    0.08380    0.13653
 15 Pt   -0.14896   -0.05435   -0.61705
 16 Ru    0.63981    0.45102   -1.39340
 17 Ir    0.12320    0.29171   -1.27747
 18 Ir    0.06046    0.02025    0.13510
 19 Pt    0.00340   -0.04862    0.06184
 20 Pt   -0.02380    0.03570    0.10878
 21 Ag    0.00194   -0.02407    0.04282
 22 Ag   -0.00617   -0.02649    0.02245
 23 Ag    0.02268   -0.03254    0.02433
 24 Pt    0.03370   -0.03679    0.06144
 25 Ag    0.00581    0.08457    0.02124
 26 Ir   -0.01523    0.03955   -0.05092
 27 Ru   -0.01501   -0.03202   -0.03397
 28 Ir    0.15266    0.12513    0.09533
 29 Ir   -0.35620    0.16054    0.58186
 30 Ir    0.12908   -0.07543    0.03602
 31 Ir   -0.09054   -0.58512    0.77541
 32 Pt   -0.09164   -0.11184    0.00015
 33 Ag    0.02414    0.04376   -0.03428
 34 Ir   -0.08835    0.08441   -0.39801
 35 Ru    0.01757    0.05034   -0.05352
 36 Ir   -0.08939    0.09045   -0.00834
 37 Ir    0.23156    0.05760    0.42148
 38 Pt   -0.01005    0.06347   -0.06969
 39 Ag   -0.00825   -0.03355   -0.02790
 40 Ir    0.36706    0.50162   -0.43790
 41 Pt   -0.01183   -0.10750   -0.02818
 42 Ir    0.06354   -0.03841    0.05216
 43 Ir   -0.08808   -0.15131    0.17174
 44 Ag   -0.02157   -0.08129    0.02434
 45 O    -0.12626   -0.14459   -0.53507
 46 H    -0.20113   -0.21617   -0.76528

System changes: positions 

Initializing position-dependent things.

Density initialized from wave functions
                                             
                                             
                                             
                                             
                                             
                                             
                     H                       
                   O                         
                  Ir    Ir     Ag            
            Ag     Ir                        
                  Ag      Pt    Ru           
       Ir    IIr    IPt    Pt                
                                             
         Ru    Ir    PIr    Ag     Ir        
                                             
                Ag     Ag     Ag             
           Ir    PPt    RPt    Ir            
                                             
            Ir    IAg    AAg    Pt           
       Ag     Ir     Ir                      
             Ir     Ir     Ir                
        Ag     Ag     Ir                     
                                             
                                             
                                             
                                             
                                             

Positions:
   0 Ag     0.000000    1.621936   10.000000    ( 0.0000,  0.0000,  0.0000)
   1 Ag     2.809275    1.621936   10.000000    ( 0.0000,  0.0000,  0.0000)
   2 Ir     5.618550    1.621936   10.000000    ( 0.0000,  0.0000,  0.0000)
   3 Ir     1.404638    4.054840   10.000000    ( 0.0000,  0.0000,  0.0000)
   4 Ir     4.213913    4.054840   10.000000    ( 0.0000,  0.0000,  0.0000)
   5 Ir     7.023188    4.054840   10.000000    ( 0.0000,  0.0000,  0.0000)
   6 Ir     2.809275    6.487743   10.000000    ( 0.0000,  0.0000,  0.0000)
   7 Ag     5.618550    6.487743   10.000000    ( 0.0000,  0.0000,  0.0000)
   8 Pt     8.427826    6.487743   10.000000    ( 0.0000,  0.0000,  0.0000)
   9 Ag     0.000000    0.000000   12.293764    ( 0.0000,  0.0000,  0.0000)
  10 Ir     2.809275    0.000000   12.293764    ( 0.0000,  0.0000,  0.0000)
  11 Ir     5.618550    0.000000   12.293764    ( 0.0000,  0.0000,  0.0000)
  12 Ir     1.404638    2.432904   12.293764    ( 0.0000,  0.0000,  0.0000)
  13 Ag     4.213913    2.432904   12.293764    ( 0.0000,  0.0000,  0.0000)
  14 Ag     7.023188    2.432904   12.293764    ( 0.0000,  0.0000,  0.0000)
  15 Pt     2.809275    4.865807   12.293764    ( 0.0000,  0.0000,  0.0000)
  16 Ru     5.618550    4.865807   12.293764    ( 0.0000,  0.0000,  0.0000)
  17 Ir     8.427826    4.865807   12.293764    ( 0.0000,  0.0000,  0.0000)
  18 Ir     1.442663    0.795879   14.608951    ( 0.0000,  0.0000,  0.0000)
  19 Pt     4.195252    0.732839   14.623939    ( 0.0000,  0.0000,  0.0000)
  20 Pt     7.041768    0.806513   14.648463    ( 0.0000,  0.0000,  0.0000)
  21 Ag     2.791568    3.267331   14.620020    ( 0.0000,  0.0000,  0.0000)
  22 Ag     5.616431    3.229064   14.637058    ( 0.0000,  0.0000,  0.0000)
  23 Ag     8.466349    3.237679   14.606837    ( 0.0000,  0.0000,  0.0000)
  24 Pt     4.242373    5.677602   14.612009    ( 0.0000,  0.0000,  0.0000)
  25 Ag     7.020050    5.624664   14.591980    ( 0.0000,  0.0000,  0.0000)
  26 Ir     9.811735    5.741438   14.533157    ( 0.0000,  0.0000,  0.0000)
  27 Ru     0.073898    1.648089   16.940664    ( 0.0000,  0.0000,  0.0000)
  28 Ir     2.785422    1.644419   16.911713    ( 0.0000,  0.0000,  0.0000)
  29 Ir     5.483837    1.629837   16.971067    ( 0.0000,  0.0000,  0.0000)
  30 Ir     1.367632    3.993914   17.025553    ( 0.0000,  0.0000,  0.0000)
  31 Ir     4.187235    3.888584   17.048022    ( 0.0000,  0.0000,  0.0000)
  32 Pt     7.115641    4.043883   16.991446    ( 0.0000,  0.0000,  0.0000)
  33 Ag     2.759205    6.470824   16.789211    ( 0.0000,  0.0000,  0.0000)
  34 Ir     5.663787    6.559204   16.855231    ( 0.0000,  0.0000,  0.0000)
  35 Ru     8.407402    6.485769   16.867485    ( 0.0000,  0.0000,  0.0000)
  36 Ir     0.010113   -0.043918   18.998660    ( 0.0000,  0.0000,  0.0000)
  37 Ir     2.789387   -0.052446   18.999935    ( 0.0000,  0.0000,  0.0000)
  38 Pt     5.615785   -0.070509   19.115262    ( 0.0000,  0.0000,  0.0000)
  39 Ag     1.404728    2.417249   19.553968    ( 0.0000,  0.0000,  0.0000)
  40 Ir     4.293827    2.488055   19.395934    ( 0.0000,  0.0000,  0.0000)
  41 Pt     7.002982    2.291766   19.119538    ( 0.0000,  0.0000,  0.0000)
  42 Ir     2.912189    4.906607   19.036784    ( 0.0000,  0.0000,  0.0000)
  43 Ir     5.520189    4.966044   19.024287    ( 0.0000,  0.0000,  0.0000)
  44 Ag     8.400492    4.862788   19.532794    ( 0.0000,  0.0000,  0.0000)
  45 O      4.217974    2.387976   21.228733    ( 0.0000,  0.0000,  0.0000)
  46 H      4.799266    2.978790   21.756644    ( 0.0000,  0.0000,  0.0000)

Unit cell:
           periodic     x           y           z      points  spacing
  1. axis:    yes    8.445283    0.000000    0.000000    35     0.2090
  2. axis:    yes    4.222641    7.313829    0.000000    35     0.2090
  3. axis:    no     0.000000    0.000000   29.175054   135     0.2161

  Lengths:   8.445283   8.445283  29.175054
  Angles:   90.000000  90.000000  60.000000

Effective grid spacing dv^(1/3) = 0.2217

                     log10-error:    total        iterations:
           time      wfs    density  energy       fermi  poisson
iter:   1  22:23:49  -1.68   +inf  -290.548832    4             
iter:   2  22:25:02  -0.42  -1.54  -557.720785    37            
iter:   3  22:26:14  -1.07  -0.98  -280.557145    36            
iter:   4  22:27:26  -2.00  -1.68  -269.439915    37            
iter:   5  22:28:31  -3.11  -2.30  -269.550769    3             
iter:   6  22:29:35  -3.26  -2.16  -269.420590    3             
iter:   7  22:30:51  -3.90  -2.21  -268.793013    3             
iter:   8  22:32:04  -4.02  -2.61  -268.721950    3             
iter:   9  22:33:16  -3.87  -2.76  -268.696848    3             
iter:  10  22:34:27  -4.12  -2.78  -268.698079    2             
iter:  11  22:35:40  -4.36  -2.73  -268.691833    3             
iter:  12  22:36:51  -4.27  -2.82  -268.663768    3             
iter:  13  22:38:04  -4.74  -2.92  -268.656097    2             
iter:  14  22:39:16  -5.33  -3.20  -268.651847    2             
iter:  15  22:40:27  -5.59  -3.27  -268.651156    2             
iter:  16  22:41:40  -5.23  -3.22  -268.651502    3             
iter:  17  22:42:43  -5.38  -3.43  -268.655494    3             
iter:  18  22:43:47  -5.50  -3.31  -268.650087    3             
iter:  19  22:45:05  -5.97  -3.52  -268.651556    2             
iter:  20  22:46:17  -6.25  -3.65  -268.651153    2             
iter:  21  22:47:29  -6.23  -3.78  -268.650434    2             
iter:  22  22:48:42  -6.28  -3.81  -268.651719    2             
iter:  23  22:49:54  -6.12  -3.78  -268.652205    2             
iter:  24  22:51:06  -6.47  -3.74  -268.650711    2             
iter:  25  22:52:18  -6.83  -4.01  -268.651280    2             
iter:  26  22:53:30  -6.89  -3.95  -268.651133    2             
iter:  27  22:54:33  -7.16  -4.07  -268.650737    2             
iter:  28  22:55:36  -7.52  -4.28  -268.651071    2             

Converged after 28 iterations.

Dipole moment: (26.000410, 20.560981, 0.186695) |e|*Ang

Energy contributions relative to reference atoms: (reference = -16429291.423757)

Kinetic:       -144.813197
Potential:      +87.911409
External:        +0.000000
XC:            -204.296897
Entropy (-ST):   -2.115496
Local:           -6.394637
--------------------------
Free energy:   -269.708819
Extrapolated:  -268.651071

Fermi level: 1.44164

Showing only first 2 kpts
 Kpt  Band  Eigenvalues  Occupancy
  0   357      1.41934    0.13888
  0   358      1.45758    0.11506
  0   359      1.48567    0.09792
  0   360      1.51910    0.07887

  1   357      1.31283    0.19596
  1   358      1.35809    0.17438
  1   359      1.37927    0.16276
  1   360      1.41734    0.14011



Forces in eV/Ang:
  0 Ag   -0.41131    0.14695   -1.04562
  1 Ag    0.24062    0.22224   -0.86307
  2 Ir    0.49718   -0.16056    0.03235
  3 Ir   -0.11421    1.23261    1.38928
  4 Ir    0.41461    0.40862    0.89647
  5 Ir   -0.32813   -0.03807    1.19618
  6 Ir   -1.70311   -0.49029    0.74210
  7 Ag   -0.12499   -0.33312   -0.94944
  8 Pt    1.05202   -0.39680    0.49840
  9 Ag    0.14901    0.02275    0.24359
 10 Ir   -0.00242   -0.38640    1.01125
 11 Ir   -0.66254   -0.75283   -0.47016
 12 Ir    0.41855    0.17626    0.15974
 13 Ag   -0.01438   -0.03405    0.20387
 14 Ag    0.04318    0.07112    0.16700
 15 Pt   -0.12704   -0.07118   -0.55331
 16 Ru    0.64150    0.44691   -1.37919
 17 Ir    0.12000    0.28281   -1.25500
 18 Ir    0.06077    0.03943    0.11515
 19 Pt    0.06142    0.01104    0.03052
 20 Pt   -0.05818    0.04802    0.04643
 21 Ag    0.07995    0.04376    0.07793
 22 Ag   -0.07774   -0.02434    0.18137
 23 Ag    0.00238    0.01319    0.03726
 24 Pt    0.01260   -0.01357   -0.03289
 25 Ag    0.02346   -0.03376   -0.02511
 26 Ir    0.01089    0.04592   -0.02086
 27 Ru    0.11216   -0.03315   -0.00777
 28 Ir   -0.31152   -0.29276   -0.02313
 29 Ir    0.11455   -0.22935    0.18395
 30 Ir   -0.04852   -0.04778    0.01409
 31 Ir   -0.16416    0.11013   -0.09352
 32 Pt   -0.01992    0.01857    0.03391
 33 Ag    0.01533   -0.03384    0.06354
 34 Ir    0.12126    0.15150    0.35062
 35 Ru   -0.11037   -0.01515    0.03386
 36 Ir    0.15630   -0.06479   -0.12861
 37 Ir   -0.16119   -0.23757   -0.21436
 38 Pt   -0.07051   -0.08511    0.07747
 39 Ag    0.04873   -0.04132   -0.04162
 40 Ir    0.21308    0.23160   -3.84189
 41 Pt    0.17313   -0.01875    0.15810
 42 Ir   -0.09241    0.20004    0.31850
 43 Ir    0.09455    0.25793    0.23566
 44 Ag   -0.01239   -0.06851   -0.00635
 45 O    -0.69471   -0.65749    2.56693
 46 H     0.31578    0.24551   -0.03003

System changes: positions 

Initializing position-dependent things.

Density initialized from wave functions
                                             
                                             
                                             
                                             
                                             
                                             
                     H                       
                   O                         
                  Ir    Ir     Ag            
            Ag     Ir                        
                  Ag      Pt    Ru           
       Ir    IIr    IPt    Pt                
                                             
         Ru    Ir    PIr    Ag     Ir        
                                             
                Ag     Ag     Ag             
           Ir    PPt    RPt    Ir            
                                             
            Ir    IAg    AAg    Pt           
       Ag     Ir     Ir                      
             Ir     Ir     Ir                
        Ag     Ag     Ir                     
                                             
                                             
                                             
                                             
                                             

Positions:
   0 Ag     0.000000    1.621936   10.000000    ( 0.0000,  0.0000,  0.0000)
   1 Ag     2.809275    1.621936   10.000000    ( 0.0000,  0.0000,  0.0000)
   2 Ir     5.618550    1.621936   10.000000    ( 0.0000,  0.0000,  0.0000)
   3 Ir     1.404638    4.054840   10.000000    ( 0.0000,  0.0000,  0.0000)
   4 Ir     4.213913    4.054840   10.000000    ( 0.0000,  0.0000,  0.0000)
   5 Ir     7.023188    4.054840   10.000000    ( 0.0000,  0.0000,  0.0000)
   6 Ir     2.809275    6.487743   10.000000    ( 0.0000,  0.0000,  0.0000)
   7 Ag     5.618550    6.487743   10.000000    ( 0.0000,  0.0000,  0.0000)
   8 Pt     8.427826    6.487743   10.000000    ( 0.0000,  0.0000,  0.0000)
   9 Ag     0.000000    0.000000   12.293764    ( 0.0000,  0.0000,  0.0000)
  10 Ir     2.809275    0.000000   12.293764    ( 0.0000,  0.0000,  0.0000)
  11 Ir     5.618550    0.000000   12.293764    ( 0.0000,  0.0000,  0.0000)
  12 Ir     1.404638    2.432904   12.293764    ( 0.0000,  0.0000,  0.0000)
  13 Ag     4.213913    2.432904   12.293764    ( 0.0000,  0.0000,  0.0000)
  14 Ag     7.023188    2.432904   12.293764    ( 0.0000,  0.0000,  0.0000)
  15 Pt     2.809275    4.865807   12.293764    ( 0.0000,  0.0000,  0.0000)
  16 Ru     5.618550    4.865807   12.293764    ( 0.0000,  0.0000,  0.0000)
  17 Ir     8.427826    4.865807   12.293764    ( 0.0000,  0.0000,  0.0000)
  18 Ir     1.440004    0.794247   14.600758    ( 0.0000,  0.0000,  0.0000)
  19 Pt     4.194815    0.734340   14.619258    ( 0.0000,  0.0000,  0.0000)
  20 Pt     7.041582    0.804555   14.641697    ( 0.0000,  0.0000,  0.0000)
  21 Ag     2.791154    3.268274   14.616259    ( 0.0000,  0.0000,  0.0000)
  22 Ag     5.616301    3.230414   14.634900    ( 0.0000,  0.0000,  0.0000)
  23 Ag     8.465149    3.239303   14.606020    ( 0.0000,  0.0000,  0.0000)
  24 Pt     4.240123    5.678723   14.607414    ( 0.0000,  0.0000,  0.0000)
  25 Ag     7.019851    5.621180   14.590596    ( 0.0000,  0.0000,  0.0000)
  26 Ir     9.812120    5.741085   14.535458    ( 0.0000,  0.0000,  0.0000)
  27 Ru     0.077004    1.650703   16.939545    ( 0.0000,  0.0000,  0.0000)
  28 Ir     2.772480    1.636479   16.901659    ( 0.0000,  0.0000,  0.0000)
  29 Ir     5.509902    1.617863   16.933398    ( 0.0000,  0.0000,  0.0000)
  30 Ir     1.360839    3.999267   17.022003    ( 0.0000,  0.0000,  0.0000)
  31 Ir     4.192823    3.927644   17.000967    ( 0.0000,  0.0000,  0.0000)
  32 Pt     7.121046    4.050558   16.992611    ( 0.0000,  0.0000,  0.0000)
  33 Ag     2.758293    6.469697   16.792841    ( 0.0000,  0.0000,  0.0000)
  34 Ir     5.667401    6.556413   16.873081    ( 0.0000,  0.0000,  0.0000)
  35 Ru     8.405365    6.483246   16.869542    ( 0.0000,  0.0000,  0.0000)
  36 Ir     0.014755   -0.049637   18.998918    ( 0.0000,  0.0000,  0.0000)
  37 Ir     2.777727   -0.050229   18.980004    ( 0.0000,  0.0000,  0.0000)
  38 Pt     5.617573   -0.070062   19.120995    ( 0.0000,  0.0000,  0.0000)
  39 Ag     1.406152    2.419854   19.554491    ( 0.0000,  0.0000,  0.0000)
  40 Ir     4.267753    2.453177   19.350631    ( 0.0000,  0.0000,  0.0000)
  41 Pt     6.997024    2.299878   19.122205    ( 0.0000,  0.0000,  0.0000)
  42 Ir     2.910977    4.904600   19.035814    ( 0.0000,  0.0000,  0.0000)
  43 Ir     5.524614    4.969553   19.017647    ( 0.0000,  0.0000,  0.0000)
  44 Ag     8.402486    4.868431   19.532306    ( 0.0000,  0.0000,  0.0000)
  45 O      4.224922    2.396475   21.304692    ( 0.0000,  0.0000,  0.0000)
  46 H      4.820822    3.000164   21.820611    ( 0.0000,  0.0000,  0.0000)

Unit cell:
           periodic     x           y           z      points  spacing
  1. axis:    yes    8.445283    0.000000    0.000000    35     0.2090
  2. axis:    yes    4.222641    7.313829    0.000000    35     0.2090
  3. axis:    no     0.000000    0.000000   29.175054   135     0.2161

  Lengths:   8.445283   8.445283  29.175054
  Angles:   90.000000  90.000000  60.000000

Effective grid spacing dv^(1/3) = 0.2217

                     log10-error:    total        iterations:
           time      wfs    density  energy       fermi  poisson
iter:   1  22:57:26  -1.92   +inf  -279.683688    3             
iter:   2  22:58:39  -0.91  -1.65  -474.689801    37            
iter:   3  22:59:50  -1.43  -1.09  -274.229327    38            
iter:   4  23:01:04  -2.43  -1.80  -269.180554    3             
iter:   5  23:02:16  -3.25  -2.42  -269.073453    3             
iter:   6  23:03:27  -3.63  -2.49  -268.879181    3             
iter:   7  23:04:40  -4.37  -2.76  -268.857934    3             
iter:   8  23:05:44  -4.38  -2.86  -268.835729    2             
iter:   9  23:06:48  -4.36  -2.96  -268.956414    2             
iter:  10  23:08:08  -4.82  -2.57  -268.828042    3             
iter:  11  23:09:20  -5.16  -3.12  -268.831980    3             
iter:  12  23:10:32  -4.66  -3.04  -268.824547    2             
iter:  13  23:11:45  -4.95  -3.17  -268.828028    3             
iter:  14  23:12:57  -5.42  -3.11  -268.819521    2             
iter:  15  23:14:10  -5.79  -3.32  -268.820248    2             
iter:  16  23:15:21  -5.48  -3.31  -268.816944    2             
iter:  17  23:16:33  -5.89  -3.31  -268.815935    2             
iter:  18  23:17:42  -6.47  -3.72  -268.816241    2             
iter:  19  23:18:46  -6.21  -3.69  -268.816489    2             
iter:  20  23:19:55  -6.18  -3.74  -268.815271    2             
iter:  21  23:21:11  -6.43  -3.84  -268.815937    2             
iter:  22  23:22:24  -7.03  -4.05  -268.815595    2             
iter:  23  23:23:36  -7.23  -4.01  -268.815951    2             
iter:  24  23:24:48  -6.57  -4.14  -268.815939    2             
iter:  25  23:26:01  -7.33  -4.29  -268.815888    2             
iter:  26  23:27:13  -7.56  -4.38  -268.815613    2             

Converged after 26 iterations.

Dipole moment: (25.488076, 20.610201, 0.079579) |e|*Ang

Energy contributions relative to reference atoms: (reference = -16429291.423757)

Kinetic:       -154.731252
Potential:      +96.320967
External:        +0.000000
XC:            -202.999301
Entropy (-ST):   -2.121803
Local:           -6.345126
--------------------------
Free energy:   -269.876515
Extrapolated:  -268.815613

Fermi level: 1.38982

Showing only first 2 kpts
 Kpt  Band  Eigenvalues  Occupancy
  0   357      1.37085    0.13682
  0   358      1.40184    0.11750
  0   359      1.42565    0.10285
  0   360      1.46992    0.07745

  1   357      1.25721    0.19755
  1   358      1.30049    0.17739
  1   359      1.32464    0.16435
  1   360      1.36255    0.14194



Forces in eV/Ang:
  0 Ag   -0.41770    0.15272   -1.04522
  1 Ag    0.24638    0.22589   -0.85807
  2 Ir    0.49788   -0.16111    0.03299
  3 Ir   -0.11350    1.23929    1.39708
  4 Ir    0.41697    0.40747    0.89660
  5 Ir   -0.33275   -0.03529    1.20285
  6 Ir   -1.71262   -0.49651    0.74190
  7 Ag   -0.12366   -0.34348   -0.94651
  8 Pt    1.06265   -0.40008    0.50087
  9 Ag    0.14403    0.01064    0.21005
 10 Ir    0.00509   -0.40619    1.00347
 11 Ir   -0.66424   -0.77517   -0.49331
 12 Ir    0.40987    0.17537    0.16240
 13 Ag   -0.01315   -0.03230    0.18844
 14 Ag    0.04434    0.07899    0.14267
 15 Pt   -0.14479   -0.05973   -0.60117
 16 Ru    0.64122    0.45326   -1.39502
 17 Ir    0.12462    0.29096   -1.27625
 18 Ir    0.06168    0.02698    0.12095
 19 Pt    0.03223   -0.02368    0.04631
 20 Pt   -0.04632    0.04228    0.08860
 21 Ag    0.03673    0.01015    0.05672
 22 Ag   -0.03961   -0.02458    0.09813
 23 Ag    0.01547   -0.01166    0.02775
 24 Pt    0.02125   -0.03526    0.03139
 25 Ag    0.01508    0.03355   -0.00365
 26 Ir   -0.00291    0.04326   -0.03924
 27 Ru    0.04457   -0.02963   -0.02407
 28 Ir   -0.05092   -0.06405    0.05185
 29 Ir   -0.15076   -0.00578    0.37870
 30 Ir    0.03752   -0.06040    0.02104
 31 Ir   -0.11078   -0.29774    0.38269
 32 Pt   -0.05203   -0.04428    0.01192
 33 Ag    0.02322    0.00589    0.00093
 34 Ir    0.02628    0.11907   -0.02109
 35 Ru   -0.05002    0.02075   -0.01412
 36 Ir    0.03705    0.01256   -0.06337
 37 Ir    0.03191   -0.07932    0.10214
 38 Pt   -0.03869   -0.00205    0.00077
 39 Ag    0.02528   -0.03741   -0.03403
 40 Ir    0.24521    0.34030   -1.44441
 41 Pt    0.07899   -0.06378    0.05811
 42 Ir   -0.01277    0.07569    0.17567
 43 Ir   -0.00074    0.05317    0.18394
 44 Ag   -0.01773   -0.07938    0.00763
 45 O    -0.33859   -0.32985    0.57427
 46 H     0.02194   -0.01873   -0.47767

System changes: positions 

Initializing position-dependent things.

Density initialized from wave functions
                                             
                                             
                                             
                                             
                                             
                                             
                     H                       
                   O                         
                  Ir    Ir     Ag            
            Ag      Ir                       
                  Ag      Pt    Ru           
       Ir    IIr    IPt    Pt                
                                             
         Ru    Ir    PIr    Ag     Ir        
                Ag     Ag                    
                              Ag             
           Ir    PPt    RPt    Ir            
                                             
            Ir    IAg    AAg    Pt           
       Ag     Ir     Ir                      
             Ir     Ir     Ir                
        Ag     Ag     Ir                     
                                             
                                             
                                             
                                             
                                             

Positions:
   0 Ag     0.000000    1.621936   10.000000    ( 0.0000,  0.0000,  0.0000)
   1 Ag     2.809275    1.621936   10.000000    ( 0.0000,  0.0000,  0.0000)
   2 Ir     5.618550    1.621936   10.000000    ( 0.0000,  0.0000,  0.0000)
   3 Ir     1.404638    4.054840   10.000000    ( 0.0000,  0.0000,  0.0000)
   4 Ir     4.213913    4.054840   10.000000    ( 0.0000,  0.0000,  0.0000)
   5 Ir     7.023188    4.054840   10.000000    ( 0.0000,  0.0000,  0.0000)
   6 Ir     2.809275    6.487743   10.000000    ( 0.0000,  0.0000,  0.0000)
   7 Ag     5.618550    6.487743   10.000000    ( 0.0000,  0.0000,  0.0000)
   8 Pt     8.427826    6.487743   10.000000    ( 0.0000,  0.0000,  0.0000)
   9 Ag     0.000000    0.000000   12.293764    ( 0.0000,  0.0000,  0.0000)
  10 Ir     2.809275    0.000000   12.293764    ( 0.0000,  0.0000,  0.0000)
  11 Ir     5.618550    0.000000   12.293764    ( 0.0000,  0.0000,  0.0000)
  12 Ir     1.404638    2.432904   12.293764    ( 0.0000,  0.0000,  0.0000)
  13 Ag     4.213913    2.432904   12.293764    ( 0.0000,  0.0000,  0.0000)
  14 Ag     7.023188    2.432904   12.293764    ( 0.0000,  0.0000,  0.0000)
  15 Pt     2.809275    4.865807   12.293764    ( 0.0000,  0.0000,  0.0000)
  16 Ru     5.618550    4.865807   12.293764    ( 0.0000,  0.0000,  0.0000)
  17 Ir     8.427826    4.865807   12.293764    ( 0.0000,  0.0000,  0.0000)
  18 Ir     1.447172    0.797997   14.617224    ( 0.0000,  0.0000,  0.0000)
  19 Pt     4.198404    0.731809   14.626771    ( 0.0000,  0.0000,  0.0000)
  20 Pt     7.037711    0.809752   14.654228    ( 0.0000,  0.0000,  0.0000)
  21 Ag     2.795215    3.269042   14.624454    ( 0.0000,  0.0000,  0.0000)
  22 Ag     5.612583    3.227344   14.646295    ( 0.0000,  0.0000,  0.0000)
  23 Ag     8.467256    3.237440   14.608959    ( 0.0000,  0.0000,  0.0000)
  24 Pt     4.243525    5.675068   14.613345    ( 0.0000,  0.0000,  0.0000)
  25 Ag     7.021412    5.625645   14.590984    ( 0.0000,  0.0000,  0.0000)
  26 Ir     9.811864    5.744740   14.530648    ( 0.0000,  0.0000,  0.0000)
  27 Ru     0.078940    1.646058   16.939092    ( 0.0000,  0.0000,  0.0000)
  28 Ir     2.775636    1.634252   16.913982    ( 0.0000,  0.0000,  0.0000)
  29 Ir     5.479223    1.624447   16.992210    ( 0.0000,  0.0000,  0.0000)
  30 Ir     1.367684    3.990049   17.026568    ( 0.0000,  0.0000,  0.0000)
  31 Ir     4.178687    3.875779   17.063987    ( 0.0000,  0.0000,  0.0000)
  32 Pt     7.113060    4.042680   16.992696    ( 0.0000,  0.0000,  0.0000)
  33 Ag     2.760869    6.470200   16.790376    ( 0.0000,  0.0000,  0.0000)
  34 Ir     5.668966    6.568872   16.864514    ( 0.0000,  0.0000,  0.0000)
  35 Ru     8.401785    6.486414   16.867577    ( 0.0000,  0.0000,  0.0000)
  36 Ir     0.016453   -0.045311   18.992483    ( 0.0000,  0.0000,  0.0000)
  37 Ir     2.785920   -0.061923   18.998137    ( 0.0000,  0.0000,  0.0000)
  38 Pt     5.612214   -0.072399   19.117448    ( 0.0000,  0.0000,  0.0000)
  39 Ag     1.407567    2.414473   19.551295    ( 0.0000,  0.0000,  0.0000)
  40 Ir     4.307706    2.507580   19.259628    ( 0.0000,  0.0000,  0.0000)
  41 Pt     7.011042    2.288534   19.126285    ( 0.0000,  0.0000,  0.0000)
  42 Ir     2.909144    4.915211   19.053120    ( 0.0000,  0.0000,  0.0000)
  43 Ir     5.522661    4.975627   19.038017    ( 0.0000,  0.0000,  0.0000)
  44 Ag     8.399360    4.857172   19.532894    ( 0.0000,  0.0000,  0.0000)
  45 O      4.187391    2.358834   21.304363    ( 0.0000,  0.0000,  0.0000)
  46 H      4.807781    2.983585   21.731506    ( 0.0000,  0.0000,  0.0000)

Unit cell:
           periodic     x           y           z      points  spacing
  1. axis:    yes    8.445283    0.000000    0.000000    35     0.2090
  2. axis:    yes    4.222641    7.313829    0.000000    35     0.2090
  3. axis:    no     0.000000    0.000000   29.175054   135     0.2161

  Lengths:   8.445283   8.445283  29.175054
  Angles:   90.000000  90.000000  60.000000

Effective grid spacing dv^(1/3) = 0.2217

                     log10-error:    total        iterations:
           time      wfs    density  energy       fermi  poisson
iter:   1  23:28:49  -1.86   +inf  -281.557334    3             
iter:   2  23:29:53  -0.73  -1.61  -522.831000    35            
iter:   3  23:31:03  -1.40  -1.03  -279.079777    36            
iter:   4  23:32:20  -2.22  -1.70  -269.430156    37            
iter:   5  23:33:32  -3.20  -2.33  -269.115095    3             
iter:   6  23:34:44  -3.81  -2.56  -269.021791    3             
iter:   7  23:35:56  -3.96  -2.70  -268.985581    2             
iter:   8  23:37:09  -4.11  -2.78  -268.958201    3             
iter:   9  23:38:21  -4.41  -2.92  -268.951319    3             
iter:  10  23:39:34  -4.39  -2.98  -268.944234    3             
iter:  11  23:40:40  -4.56  -2.99  -268.979830    2             
iter:  12  23:41:44  -4.87  -2.78  -268.934854    3             
iter:  13  23:42:57  -5.26  -3.31  -268.936129    2             
iter:  14  23:44:13  -5.69  -3.28  -268.934373    2             
iter:  15  23:45:25  -5.53  -3.39  -268.933670    3             
iter:  16  23:46:37  -5.62  -3.41  -268.933220    2             
iter:  17  23:47:50  -5.75  -3.30  -268.937942    2             
iter:  18  23:49:02  -5.76  -3.28  -268.932427    2             
iter:  19  23:50:14  -5.92  -3.54  -268.932027    2             
iter:  20  23:51:26  -5.99  -3.65  -268.931881    2             
iter:  21  23:52:30  -6.36  -3.71  -268.931839    2             
iter:  22  23:53:33  -6.33  -3.74  -268.931607    2             
iter:  23  23:54:44  -5.44  -3.73  -268.954577    2             
iter:  24  23:56:02  -5.68  -3.01  -268.932044    2             
iter:  25  23:57:14  -6.73  -4.20  -268.931912    2             
iter:  26  23:58:27  -7.17  -4.26  -268.932080    2             
iter:  27  23:59:39  -7.38  -4.27  -268.932047    2             
iter:  28  00:00:51  -7.48  -4.36  -268.932043    2             

Converged after 28 iterations.

Dipole moment: (26.725846, 21.433944, -0.024262) |e|*Ang

Energy contributions relative to reference atoms: (reference = -16429291.423757)

Kinetic:       -148.166159
Potential:      +90.609884
External:        +0.000000
XC:            -203.978893
Entropy (-ST):   -2.096023
Local:           -6.348864
--------------------------
Free energy:   -269.980055
Extrapolated:  -268.932043

Fermi level: 1.34406

Showing only first 2 kpts
 Kpt  Band  Eigenvalues  Occupancy
  0   357      1.32544    0.13660
  0   358      1.36511    0.11190
  0   359      1.38332    0.10077
  0   360      1.41408    0.08294

  1   357      1.20665    0.19951
  1   358      1.26083    0.17421
  1   359      1.27912    0.16422
  1   360      1.31771    0.14137



Forces in eV/Ang:
  0 Ag   -0.41625    0.15257   -1.04749
  1 Ag    0.24449    0.22496   -0.86005
  2 Ir    0.49866   -0.16342    0.02832
  3 Ir   -0.12016    1.23872    1.38724
  4 Ir    0.41665    0.41302    0.89007
  5 Ir   -0.32815   -0.03933    1.18974
  6 Ir   -1.71817   -0.49648    0.74276
  7 Ag   -0.12355   -0.34108   -0.94653
  8 Pt    1.06306   -0.40191    0.49195
  9 Ag    0.14910    0.02800    0.26814
 10 Ir   -0.01015   -0.38355    1.01518
 11 Ir   -0.65251   -0.74307   -0.47236
 12 Ir    0.43013    0.17705    0.17781
 13 Ag   -0.01452   -0.03273    0.22710
 14 Ag    0.03706    0.07260    0.18958
 15 Pt   -0.11707   -0.06998   -0.54568
 16 Ru    0.63828    0.44432   -1.35052
 17 Ir    0.12296    0.28040   -1.26663
 18 Ir    0.01792    0.01369    0.05080
 19 Pt    0.03412    0.02908   -0.00087
 20 Pt   -0.03724    0.00774    0.00636
 21 Ag    0.04981    0.03195    0.06254
 22 Ag   -0.05486   -0.00670    0.16875
 23 Ag   -0.00010    0.02414    0.02372
 24 Pt    0.00419    0.04975   -0.05729
 25 Ag   -0.00241   -0.05474   -0.00542
 26 Ir    0.03168    0.01639    0.02160
 27 Ru    0.08272    0.01611   -0.02062
 28 Ir   -0.27703   -0.19343    0.02974
 29 Ir    0.28104   -0.28135   -0.04165
 30 Ir   -0.09800    0.00616    0.01934
 31 Ir   -0.15600    0.64312   -0.55735
 32 Pt   -0.00138    0.05040    0.04137
 33 Ag   -0.00461   -0.08818    0.05582
 34 Ir    0.08841   -0.01308    0.20553
 35 Ru   -0.03809   -0.11029    0.01257
 36 Ir    0.07896    0.00301    0.02082
 37 Ir   -0.10618   -0.20510   -0.12665
 38 Pt   -0.06255   -0.08032    0.11364
 39 Ag    0.12911   -0.02568   -0.00781
 40 Ir   -0.17998   -0.48544    0.57392
 41 Pt    0.22152   -0.05729    0.15057
 42 Ir   -0.08345    0.19380    0.16757
 43 Ir    0.02631    0.19808    0.06615
 44 Ag    0.00457   -0.05556    0.01102
 45 O    -0.39851   -0.40470   -1.02033
 46 H     0.33152    0.28552    0.06727

System changes: positions 

Initializing position-dependent things.

Density initialized from wave functions
                                             
                                             
                                             
                                             
                                             
                                             
                     H                       
                   O           Ag            
                  Ir    Ir                   
            Ag      Ir                       
                  Ag      Pt    Ru           
       Ir    IIr    IPt    Pt                
                                             
         Ru    Ir    PIr    Ag     Ir        
                Ag     Ag                    
                              Ag             
           Ir    PPt    RPt    Ir            
                                             
            Ir    IAg    AAg    Pt           
       Ag     Ir     Ir                      
             Ir     Ir     Ir                
        Ag     Ag     Ir                     
                                             
                                             
                                             
                                             
                                             

Positions:
   0 Ag     0.000000    1.621936   10.000000    ( 0.0000,  0.0000,  0.0000)
   1 Ag     2.809275    1.621936   10.000000    ( 0.0000,  0.0000,  0.0000)
   2 Ir     5.618550    1.621936   10.000000    ( 0.0000,  0.0000,  0.0000)
   3 Ir     1.404638    4.054840   10.000000    ( 0.0000,  0.0000,  0.0000)
   4 Ir     4.213913    4.054840   10.000000    ( 0.0000,  0.0000,  0.0000)
   5 Ir     7.023188    4.054840   10.000000    ( 0.0000,  0.0000,  0.0000)
   6 Ir     2.809275    6.487743   10.000000    ( 0.0000,  0.0000,  0.0000)
   7 Ag     5.618550    6.487743   10.000000    ( 0.0000,  0.0000,  0.0000)
   8 Pt     8.427826    6.487743   10.000000    ( 0.0000,  0.0000,  0.0000)
   9 Ag     0.000000    0.000000   12.293764    ( 0.0000,  0.0000,  0.0000)
  10 Ir     2.809275    0.000000   12.293764    ( 0.0000,  0.0000,  0.0000)
  11 Ir     5.618550    0.000000   12.293764    ( 0.0000,  0.0000,  0.0000)
  12 Ir     1.404638    2.432904   12.293764    ( 0.0000,  0.0000,  0.0000)
  13 Ag     4.213913    2.432904   12.293764    ( 0.0000,  0.0000,  0.0000)
  14 Ag     7.023188    2.432904   12.293764    ( 0.0000,  0.0000,  0.0000)
[...]
  19 Pt     4.196960    0.731848   14.634136    ( 0.0000,  0.0000,  0.0000)
  20 Pt     7.040013    0.808890   14.651152    ( 0.0000,  0.0000,  0.0000)
  21 Ag     2.790076    3.270451   14.632032    ( 0.0000,  0.0000,  0.0000)
  22 Ag     5.608692    3.226754   14.656896    ( 0.0000,  0.0000,  0.0000)
  23 Ag     8.464845    3.240761   14.619708    ( 0.0000,  0.0000,  0.0000)
  24 Pt     4.239413    5.679458   14.608763    ( 0.0000,  0.0000,  0.0000)
  25 Ag     7.020420    5.616447   14.593910    ( 0.0000,  0.0000,  0.0000)
  26 Ir     9.815931    5.750035   14.532702    ( 0.0000,  0.0000,  0.0000)
  27 Ru     0.092622    1.639465   16.945747    ( 0.0000,  0.0000,  0.0000)
  28 Ir     2.767947    1.616997   16.922802    ( 0.0000,  0.0000,  0.0000)
  29 Ir     5.507789    1.603431   16.968086    ( 0.0000,  0.0000,  0.0000)
  30 Ir     1.347619    3.994211   17.041631    ( 0.0000,  0.0000,  0.0000)
  31 Ir     4.166920    3.931331   17.015121    ( 0.0000,  0.0000,  0.0000)
  32 Pt     7.105684    4.024571   17.020370    ( 0.0000,  0.0000,  0.0000)
  33 Ag     2.759546    6.469018   16.799898    ( 0.0000,  0.0000,  0.0000)
  34 Ir     5.668443    6.546031   16.871760    ( 0.0000,  0.0000,  0.0000)
  35 Ru     8.403624    6.444321   16.870221    ( 0.0000,  0.0000,  0.0000)
  36 Ir     0.029741   -0.055460   19.003630    ( 0.0000,  0.0000,  0.0000)
  37 Ir     2.784674   -0.116318   18.988968    ( 0.0000,  0.0000,  0.0000)
  38 Pt     5.586729   -0.108915   19.127168    ( 0.0000,  0.0000,  0.0000)
  39 Ag     1.435465    2.389939   19.558586    ( 0.0000,  0.0000,  0.0000)
  40 Ir     4.267617    2.429796   19.157670    ( 0.0000,  0.0000,  0.0000)
  41 Pt     7.027281    2.243439   19.150539    ( 0.0000,  0.0000,  0.0000)
  42 Ir     2.900628    4.923547   19.063273    ( 0.0000,  0.0000,  0.0000)
  43 Ir     5.509962    4.963352   19.042104    ( 0.0000,  0.0000,  0.0000)
  44 Ag     8.393515    4.806438   19.575849    ( 0.0000,  0.0000,  0.0000)
  45 O      4.184450    2.296026   21.148902    ( 0.0000,  0.0000,  0.0000)
  46 H      4.817773    2.952005   21.532608    ( 0.0000,  0.0000,  0.0000)

Unit cell:
           periodic     x           y           z      points  spacing
  1. axis:    yes    8.445283    0.000000    0.000000    35     0.2090
  2. axis:    yes    4.222641    7.313829    0.000000    35     0.2090
  3. axis:    no     0.000000    0.000000   29.175054   135     0.2161

  Lengths:   8.445283   8.445283  29.175054
  Angles:   90.000000  90.000000  60.000000

Effective grid spacing dv^(1/3) = 0.2217

                     log10-error:    total        iterations:
           time      wfs    density  energy       fermi  poisson
iter:   1  03:32:32  -3.50   +inf  -269.447803    3             
iter:   2  03:33:44  -2.57  -2.40  -282.025590    3             
iter:   3  03:34:56  -2.82  -1.58  -269.133822    3             
iter:   4  03:36:01  -4.32  -3.23  -269.126345    3             
iter:   5  03:37:05  -5.21  -3.42  -269.126576    3             
iter:   6  03:38:08  -5.90  -3.49  -269.124119    2             
iter:   7  03:39:26  -6.04  -3.68  -269.123066    2             
iter:   8  03:40:50  -6.26  -3.78  -269.124530    2             
iter:   9  03:42:15  -6.20  -3.65  -269.122469    2             
iter:  10  03:43:29  -6.38  -3.84  -269.122533    2             
iter:  11  03:44:41  -6.60  -4.06  -269.122875    2             
iter:  12  03:45:54  -7.10  -4.09  -269.122616    2             
iter:  13  03:47:06  -7.44  -4.19  -269.122535    2             

Converged after 13 iterations.

Dipole moment: (26.292158, 24.685794, 0.018507) |e|*Ang

Energy contributions relative to reference atoms: (reference = -16429291.423757)

Kinetic:       -149.429410
Potential:      +91.643264
External:        +0.000000
XC:            -203.948099
Entropy (-ST):   -2.082535
Local:           -6.347023
--------------------------
Free energy:   -270.163803
Extrapolated:  -269.122535

Fermi level: 1.36287

Showing only first 2 kpts
 Kpt  Band  Eigenvalues  Occupancy
  0   357      1.35814    0.12796
  0   358      1.38405    0.11181
  0   359      1.39565    0.10469
  0   360      1.43797    0.08015

  1   357      1.22627    0.19918
  1   358      1.27505    0.17661
  1   359      1.28864    0.16937
  1   360      1.33715    0.14099



Forces in eV/Ang:
  0 Ag   -0.41753    0.15397   -1.04950
  1 Ag    0.24422    0.22386   -0.85423
  2 Ir    0.49726   -0.17003    0.02999
  3 Ir   -0.11791    1.23296    1.38846
  4 Ir    0.41539    0.41047    0.88271
  5 Ir   -0.32806   -0.03278    1.19471
  6 Ir   -1.71574   -0.49508    0.73481
  7 Ag   -0.12312   -0.34247   -0.94794
  8 Pt    1.06457   -0.40097    0.48953
  9 Ag    0.16331    0.03209    0.25042
 10 Ir   -0.00709   -0.38773    1.05366
 11 Ir   -0.65843   -0.75030   -0.46263
 12 Ir    0.42560    0.17488    0.21905
 13 Ag   -0.02346   -0.03316    0.23844
 14 Ag    0.04460    0.08724    0.20841
 15 Pt   -0.13168   -0.07822   -0.55921
 16 Ru    0.64119    0.45486   -1.34251
 17 Ir    0.12699    0.27867   -1.24698
 18 Ir    0.00039   -0.02803   -0.00544
 19 Pt   -0.01343   -0.02930    0.00025
 20 Pt    0.01355   -0.00266    0.01123
 21 Ag    0.00363   -0.01600    0.00106
 22 Ag   -0.00232   -0.01041    0.05431
 23 Ag    0.00960   -0.01260   -0.01384
 24 Pt    0.02441    0.02879   -0.01405
 25 Ag   -0.01023    0.01018   -0.01609
 26 Ir   -0.00892   -0.00705   -0.01707
 27 Ru   -0.02841   -0.00265   -0.02072
 28 Ir   -0.00946   -0.00721   -0.00347
 29 Ir    0.02576   -0.02664    0.01371
 30 Ir   -0.00566   -0.01455    0.00953
 31 Ir   -0.00213   -0.02905    0.02562
 32 Pt   -0.01814   -0.02291   -0.00013
 33 Ag    0.01240   -0.01054    0.00068
 34 Ir   -0.00705   -0.01238   -0.05428
 35 Ru    0.00517   -0.00194   -0.02009
 36 Ir   -0.04971    0.00213    0.01167
 37 Ir    0.01801    0.00938    0.04784
 38 Pt    0.01064   -0.00655    0.01809
 39 Ag   -0.00186   -0.00964    0.00538
 40 Ir   -0.02065    0.01127    0.02888
 41 Pt    0.00266   -0.00189   -0.00117
 42 Ir   -0.01427   -0.03975    0.03243
 43 Ir    0.01322   -0.05973    0.01879
 44 Ag   -0.01451   -0.01124    0.00031
 45 O     0.10818    0.03467   -0.13221
 46 H     0.01764   -0.01899   -0.01821

System changes: positions 

Initializing position-dependent things.

Density initialized from wave functions
                                             
                                             
                                             
                                             
                                             
                                             
                     H                       
                   O           Ag            
                  Ir    Ir                   
            Ag     Ir     Pt                 
                  Ag            Ru           
       Ir    IIr    IPt    Pt                
                                             
         Ru    Ir    PIr    Ag     Ir        
                Ag     Ag     Ag             
                                             
           Ir    PPt    RPt    Ir            
                                             
            Ir    IAg    AAg    Pt           
       Ag    IIr    IIr    Ir                
                                             
        Ag     Ag     Ir                     
                                             
                                             
                                             
                                             
                                             

Positions:
   0 Ag     0.000000    1.621936   10.000000    ( 0.0000,  0.0000,  0.0000)
   1 Ag     2.809275    1.621936   10.000000    ( 0.0000,  0.0000,  0.0000)
   2 Ir     5.618550    1.621936   10.000000    ( 0.0000,  0.0000,  0.0000)
   3 Ir     1.404638    4.054840   10.000000    ( 0.0000,  0.0000,  0.0000)
   4 Ir     4.213913    4.054840   10.000000    ( 0.0000,  0.0000,  0.0000)
   5 Ir     7.023188    4.054840   10.000000    ( 0.0000,  0.0000,  0.0000)
   6 Ir     2.809275    6.487743   10.000000    ( 0.0000,  0.0000,  0.0000)
   7 Ag     5.618550    6.487743   10.000000    ( 0.0000,  0.0000,  0.0000)
   8 Pt     8.427826    6.487743   10.000000    ( 0.0000,  0.0000,  0.0000)
   9 Ag     0.000000    0.000000   12.293764    ( 0.0000,  0.0000,  0.0000)
  10 Ir     2.809275    0.000000   12.293764    ( 0.0000,  0.0000,  0.0000)
  11 Ir     5.618550    0.000000   12.293764    ( 0.0000,  0.0000,  0.0000)
  12 Ir     1.404638    2.432904   12.293764    ( 0.0000,  0.0000,  0.0000)
  13 Ag     4.213913    2.432904   12.293764    ( 0.0000,  0.0000,  0.0000)
  14 Ag     7.023188    2.432904   12.293764    ( 0.0000,  0.0000,  0.0000)
  15 Pt     2.809275    4.865807   12.293764    ( 0.0000,  0.0000,  0.0000)
  16 Ru     5.618550    4.865807   12.293764    ( 0.0000,  0.0000,  0.0000)
  17 Ir     8.427826    4.865807   12.293764    ( 0.0000,  0.0000,  0.0000)
  18 Ir     1.446592    0.794620   14.624701    ( 0.0000,  0.0000,  0.0000)
  19 Pt     4.197811    0.729260   14.633020    ( 0.0000,  0.0000,  0.0000)
  20 Pt     7.040235    0.808586   14.652556    ( 0.0000,  0.0000,  0.0000)
  21 Ag     2.791224    3.268301   14.630872    ( 0.0000,  0.0000,  0.0000)
  22 Ag     5.607317    3.224993   14.659597    ( 0.0000,  0.0000,  0.0000)
  23 Ag     8.465348    3.239159   14.617869    ( 0.0000,  0.0000,  0.0000)
  24 Pt     4.240670    5.680862   14.606780    ( 0.0000,  0.0000,  0.0000)
  25 Ag     7.019690    5.615930   14.590651    ( 0.0000,  0.0000,  0.0000)
  26 Ir     9.814407    5.748301   14.530849    ( 0.0000,  0.0000,  0.0000)
  27 Ru     0.093093    1.638746   16.943299    ( 0.0000,  0.0000,  0.0000)
  28 Ir     2.764942    1.611304   16.922671    ( 0.0000,  0.0000,  0.0000)
  29 Ir     5.507204    1.598943   16.967660    ( 0.0000,  0.0000,  0.0000)
  30 Ir     1.348102    3.993002   17.043168    ( 0.0000,  0.0000,  0.0000)
  31 Ir     4.167545    3.927735   17.013429    ( 0.0000,  0.0000,  0.0000)
  32 Pt     7.106004    4.020783   17.018131    ( 0.0000,  0.0000,  0.0000)
  33 Ag     2.761147    6.467120   16.796090    ( 0.0000,  0.0000,  0.0000)
  34 Ir     5.669546    6.545585   16.871025    ( 0.0000,  0.0000,  0.0000)
  35 Ru     8.402867    6.441648   16.867270    ( 0.0000,  0.0000,  0.0000)
  36 Ir     0.026324   -0.060686   19.002535    ( 0.0000,  0.0000,  0.0000)
  37 Ir     2.783307   -0.120223   18.990519    ( 0.0000,  0.0000,  0.0000)
  38 Pt     5.585991   -0.116756   19.125425    ( 0.0000,  0.0000,  0.0000)
  39 Ag     1.430423    2.384198   19.558771    ( 0.0000,  0.0000,  0.0000)
  40 Ir     4.262788    2.424331   19.149040    ( 0.0000,  0.0000,  0.0000)
  41 Pt     7.029467    2.239988   19.149640    ( 0.0000,  0.0000,  0.0000)
  42 Ir     2.898673    4.917586   19.066044    ( 0.0000,  0.0000,  0.0000)
  43 Ir     5.511105    4.957911   19.041876    ( 0.0000,  0.0000,  0.0000)
  44 Ag     8.389617    4.803108   19.579647    ( 0.0000,  0.0000,  0.0000)
  45 O      4.192809    2.294171   21.138458    ( 0.0000,  0.0000,  0.0000)
  46 H      4.823998    2.950575   21.520500    ( 0.0000,  0.0000,  0.0000)

Unit cell:
           periodic     x           y           z      points  spacing
  1. axis:    yes    8.445283    0.000000    0.000000    35     0.2090
  2. axis:    yes    4.222641    7.313829    0.000000    35     0.2090
  3. axis:    no     0.000000    0.000000   29.175054   135     0.2161

  Lengths:   8.445283   8.445283  29.175054
  Angles:   90.000000  90.000000  60.000000

Effective grid spacing dv^(1/3) = 0.2217

                     log10-error:    total        iterations:
           time      wfs    density  energy       fermi  poisson
iter:   1  03:48:51  -3.63   +inf  -269.221877    3             
iter:   2  03:50:04  -3.15  -2.68  -272.534781    2             
iter:   3  03:51:16  -3.37  -1.85  -269.139510    3             
iter:   4  03:52:22  -4.81  -3.17  -269.129270    3             
iter:   5  03:53:25  -5.62  -3.44  -269.127851    3             
iter:   6  03:54:29  -6.00  -3.66  -269.126273    2             
iter:   7  03:55:32  -6.22  -3.83  -269.125896    2             
iter:   8  03:56:35  -6.23  -3.82  -269.128023    2             
iter:   9  03:58:00  -6.40  -3.66  -269.125663    2             
iter:  10  03:59:25  -6.61  -3.74  -269.125859    2             
iter:  11  04:00:50  -6.67  -4.05  -269.126195    2             
iter:  12  04:02:04  -7.16  -4.16  -269.125970    2             
iter:  13  04:03:16  -7.59  -4.34  -269.125930    2             

Converged after 13 iterations.

Dipole moment: (26.746106, 25.201585, 0.019570) |e|*Ang

Energy contributions relative to reference atoms: (reference = -16429291.423757)

Kinetic:       -149.284117
Potential:      +91.541943
External:        +0.000000
XC:            -204.007667
Entropy (-ST):   -2.081435
Local:           -6.335371
--------------------------
Free energy:   -270.166648
Extrapolated:  -269.125930

Fermi level: 1.36397

Showing only first 2 kpts
 Kpt  Band  Eigenvalues  Occupancy
  0   357      1.35942    0.12784
  0   358      1.38477    0.11205
  0   359      1.39642    0.10490
  0   360      1.43839    0.08052

  1   357      1.22721    0.19925
  1   358      1.27651    0.17642
  1   359      1.28914    0.16970
  1   360      1.33789    0.14121



Forces in eV/Ang:
  0 Ag   -0.41730    0.15425   -1.04956
  1 Ag    0.24507    0.22418   -0.85535
  2 Ir    0.49736   -0.17001    0.03466
  3 Ir   -0.11788    1.23498    1.39100
  4 Ir    0.41508    0.41005    0.88335
  5 Ir   -0.32818   -0.03355    1.19340
  6 Ir   -1.71745   -0.49688    0.73666
  7 Ag   -0.12237   -0.34329   -0.94750
  8 Pt    1.06436   -0.40261    0.48955
  9 Ag    0.15476    0.03902    0.23973
 10 Ir   -0.00336   -0.37884    1.03841
 11 Ir   -0.65155   -0.74008   -0.46474
 12 Ir    0.42801    0.17126    0.22026
 13 Ag   -0.01447   -0.03071    0.24687
 14 Ag    0.03463    0.08610    0.21888
 15 Pt   -0.12576   -0.08306   -0.55591
 16 Ru    0.63710    0.43382   -1.34305
 17 Ir    0.12366    0.26901   -1.25858
 18 Ir    0.01042    0.01853   -0.01317
 19 Pt   -0.00910    0.01465   -0.00311
 20 Pt   -0.01249    0.00329   -0.03374
 21 Ag   -0.00258   -0.00993    0.01729
 22 Ag    0.00007   -0.00467    0.01595
 23 Ag    0.01318   -0.00243   -0.00331
 24 Pt   -0.00956   -0.03217   -0.00930
 25 Ag   -0.00137   -0.02298    0.00785
 26 Ir    0.02165   -0.01659    0.00722
 27 Ru   -0.01187   -0.01100   -0.00085
 28 Ir    0.02513    0.02606   -0.00812
 29 Ir    0.00807   -0.02536    0.00150
 30 Ir   -0.00234   -0.01358   -0.01207
 31 Ir   -0.03191    0.01631    0.01955
 32 Pt   -0.01119    0.00850    0.00200
 33 Ag    0.00490   -0.06468    0.04293
 34 Ir   -0.02193   -0.06244    0.00357
 35 Ru    0.01100   -0.01347   -0.00118
 36 Ir   -0.00036   -0.03680   -0.00594
 37 Ir   -0.00193   -0.00106    0.01304
 38 Pt    0.01049    0.00273   -0.00317
 39 Ag    0.00612   -0.01635    0.00529
 40 Ir   -0.00094   -0.01215    0.06028
 41 Pt   -0.04203   -0.01183   -0.02292
 42 Ir    0.02695   -0.01172   -0.05274
 43 Ir   -0.03200    0.00575   -0.03392
 44 Ag   -0.00897   -0.01331   -0.01151
 45 O     0.01404   -0.01963   -0.07131
 46 H     0.06449    0.02840   -0.00420

Timing:                                      incl.     excl.
-------------------------------------------------------------------
Density initialized from wave functions:    59.781    59.780   0.2% |
 Symmetrize density:                         0.001     0.001   0.0% |
Forces:                                    289.025   289.025   1.0% |
Hamiltonian:                                52.754     0.119   0.0% |
 Atomic:                                    19.043    12.795   0.0% |
  XC Correction:                             6.248     6.248   0.0% |
 Calculate atomic Hamiltonians:             16.980    16.980   0.1% |
 Communicate:                                0.919     0.919   0.0% |
 Initialize Hamiltonian:                     0.001     0.001   0.0% |
 Poisson:                                    0.074     0.074   0.0% |
 XC 3D grid:                                15.618    15.618   0.1% |
LCAO initialization:                        53.710     3.687   0.0% |
 LCAO eigensolver:                           6.600     0.002   0.0% |
  Calculate projections:                     0.060     0.060   0.0% |
  DenseAtomicCorrection:                     0.056     0.056   0.0% |
  Distribute overlap matrix:                 0.269     0.269   0.0% |
  Orbital Layouts:                           0.461     0.461   0.0% |
  Potential matrix:                          5.709     5.709   0.0% |
  Sum over cells:                            0.043     0.043   0.0% |
 LCAO to grid:                              40.954    40.954   0.1% |
 Set positions (LCAO WFS):                   2.469     0.939   0.0% |
  Basic WFS set positions:                   0.003     0.003   0.0% |
  Basis functions set positions:             0.001     0.001   0.0% |
  P tci:                                     0.622     0.622   0.0% |
  ST tci:                                    0.675     0.675   0.0% |
  mktci:                                     0.229     0.229   0.0% |
PWDescriptor:                                0.051     0.051   0.0% |
Redistribute:                                0.086     0.086   0.0% |
SCF-cycle:                               29353.051  3057.714  10.2% |---|
 Davidson:                               23704.452  5526.291  18.5% |------|
  Apply H:                                3680.326  3573.851  11.9% |----|
   HMM T:                                  106.476   106.476   0.4% |
  Subspace diag:                          3375.675     0.117   0.0% |
   calc_h_matrix:                         1953.551   725.990   2.4% ||
    Apply H:                              1227.561  1191.953   4.0% |-|
     HMM T:                                 35.608    35.608   0.1% |
   diagonalize:                             55.335    55.335   0.2% |
   rotate_psi:                            1366.671  1366.671   4.6% |-|
  calc. matrices:                         7384.329  4939.559  16.5% |------|
   Apply H:                               2444.770  2374.131   7.9% |--|
    HMM T:                                  70.639    70.639   0.2% |
  diagonalize:                             992.621   992.621   3.3% ||
  rotate_psi:                             2745.209  2745.209   9.2% |---|
 Density:                                 1258.503     0.018   0.0% |
  Atomic density matrices:                   7.798     7.798   0.0% |
  Mix:                                     449.660   449.660   1.5% ||
  Multipole moments:                         0.558     0.558   0.0% |
  Pseudo density:                          800.469   800.452   2.7% ||
   Symmetrize density:                       0.017     0.017   0.0% |
 Hamiltonian:                             1231.990     2.874   0.0% |
  Atomic:                                  459.329   316.286   1.1% |
   XC Correction:                          143.043   143.043   0.5% |
  Calculate atomic Hamiltonians:           378.406   378.406   1.3% ||
  Communicate:                              24.246    24.246   0.1% |
  Poisson:                                   1.808     1.808   0.0% |
  XC 3D grid:                              365.327   365.327   1.2% |
 Orthonormalize:                           100.392     0.006   0.0% |
  calc_s_matrix:                            15.181    15.181   0.1% |
  inverse-cholesky:                          1.250     1.250   0.0% |
  projections:                              55.065    55.065   0.2% |
  rotate_psi_s:                             28.890    28.890   0.1% |
Set symmetry:                                0.002     0.002   0.0% |
Other:                                     142.634   142.634   0.5% |
-------------------------------------------------------------------
Total:                                             29951.095 100.0%

Date: Fri Mar  4 04:03:33 2022
