
  ___ ___ ___ _ _ _  
 |   |   |_  | | | | 
 | | | | | . | | | | 
 |__ |  _|___|_____|  1.5.1
 |___|_|             

User:   clausen@node061.cluster
Date:   Thu Mar  3 14:09:56 2022
Arch:   x86_64
Pid:    3617
Python: 3.6.12
gpaw:   /software/kemi/gpaw/1.5.1/gpaw
_gpaw:  /software/kemi/gpaw/1.5.1/bin/gpaw-python
ase:    /software/kemi/ase/3.17.0/ase (version 3.17.0)
numpy:  /opt/rh/rh-python36/root/usr/lib64/python3.6/site-packages/numpy (version 1.13.1)
scipy:  /opt/rh/rh-python36/root/usr/lib64/python3.6/site-packages/scipy (version 0.19.1)
units:  Angstrom and eV
cores:  16

Input parameters:
  kpts: [4 4 1]
  mode: {ecut: 400.0,
         gammacentered: False,
         name: pw}
  xc: RPBE

System changes: positions, numbers, cell, pbc, initial_charges, initial_magmoms 

Initialize ...

Pd-setup:
  name: Palladium
  id: 6da19bfba079f22767af9506641940b9
  Z: 46
  valence: 16
  core: 30
  charge: 0.0
  file: /software/kemi/gpaw-setups/0.9.20000/Pd.RPBE.gz
  cutoffs: 1.19(comp), 2.38(filt), 2.28(core), lmax=2
  valence states:
                energy  radius
    5s(0.00)    -3.225   1.228
    4p(6.00)   -51.131   1.360
    5p(0.00)    -0.373   1.360
    4d(10.00)    -3.964   1.228
    *s          23.987   1.228
    *d          23.247   1.228

  Using partial waves for Pd as LCAO basis

Ir-setup:
  name: Iridium
  id: 73b603359d1d5397a85ae3c2440f9033
  Z: 77
  valence: 15
  core: 62
  charge: 0.0
  file: /software/kemi/gpaw-setups/0.9.20000/Ir.RPBE.gz
  cutoffs: 1.26(comp), 2.40(filt), 2.36(core), lmax=2
  valence states:
                energy  radius
    6s(2.00)    -6.219   1.296
    5p(6.00)   -54.684   1.328
    6p(0.00)    -1.215   1.328
    5d(7.00)    -7.118   1.286
    *s          20.992   1.296
    *d          20.093   1.286

  Using partial waves for Ir as LCAO basis

Ru-setup:
  name: Ruthenium
  id: 76477906e28f51dc1b29884d53556fe9
  Z: 44
  valence: 16
  core: 28
  charge: 0.0
  file: /software/kemi/gpaw-setups/0.9.20000/Ru.RPBE.gz
  cutoffs: 1.23(comp), 2.16(filt), 1.30(core), lmax=2
  valence states:
                energy  radius
    4s(2.00)   -76.255   1.281
    5s(1.00)    -4.126   1.281
    4p(6.00)   -46.371   1.286
    5p(0.00)    -0.913   1.286
    4d(7.00)    -5.146   1.254
    *d          22.066   1.254

  Using partial waves for Ru as LCAO basis

Pt-setup:
  name: Platinum
  id: f04f522592575c47ad794f6b4a415b4b
  Z: 78
  valence: 16
  core: 62
  charge: 0.0
  file: /software/kemi/gpaw-setups/0.9.20000/Pt.RPBE.gz
  cutoffs: 1.29(comp), 2.26(filt), 2.26(core), lmax=2
  valence states:
                energy  radius
    6s(1.00)    -5.516   1.307
    5p(6.00)   -55.971   1.371
    6p(0.00)    -0.856   1.371
    5d(9.00)    -6.087   1.307
    *s          21.695   1.307
    *d          21.125   1.307

  Using partial waves for Pt as LCAO basis

Ag-setup:
  name: Silver
  id: c05e55bab2c3858b3f9398f6d75cb77c
  Z: 47
  valence: 17
  core: 30
  charge: 0.0
  file: /software/kemi/gpaw-setups/0.9.20000/Ag.RPBE.gz
  cutoffs: 1.25(comp), 2.35(filt), 2.19(core), lmax=2
  valence states:
                energy  radius
    5s(1.00)    -4.277   1.286
    4p(6.00)   -58.523   1.328
    5p(0.00)    -0.755   1.328
    4d(10.00)    -7.386   1.180
    *s          22.934   1.286
    *d          19.826   1.180

  Using partial waves for Ag as LCAO basis

O-setup:
  name: Oxygen
  id: 08071ca1eed670e7821b24b7eb4d558c
  Z: 8
  valence: 6
  core: 2
  charge: 0.0
  file: /software/kemi/gpaw-setups/0.9.20000/O.RPBE.gz
  cutoffs: 0.67(comp), 1.17(filt), 0.83(core), lmax=2
  valence states:
                energy  radius
    2s(2.00)   -24.041   0.688
    2p(4.00)    -8.984   0.598
    *s           3.170   0.688
    *p          18.228   0.598
    *d           0.000   0.619

  Using partial waves for O as LCAO basis

H-setup:
  name: Hydrogen
  id: ea3f9156a1dc40d47a60fdce8f8bd75d
  Z: 1
  valence: 1
  core: 0
  charge: 0.0
  file: /software/kemi/gpaw-setups/0.9.20000/H.RPBE.gz
  cutoffs: 0.48(comp), 0.85(filt), 0.53(core), lmax=2
  valence states:
                energy  radius
    1s(1.00)    -6.572   0.476
    *s          20.639   0.476
    *p           0.000   0.476

  Using partial waves for H as LCAO basis

Reference energy: -12877860.274276

Spin-paired calculation

Occupation numbers:
  Fermi-Dirac: width=0.1000 eV

Convergence criteria:
  Maximum total energy change: 0.0005 eV / electron
  Maximum integral of absolute density change: 0.0001 electrons
  Maximum integral of absolute eigenstate change: 4e-08 eV^2
  Maximum number of iterations: 333

Symmetries present (total): 1

  ( 1  0  0)
  ( 0  1  0)
  ( 0  0  1)

16 k-points: 4 x 4 x 1 Monkhorst-Pack grid
8 k-points in the irreducible part of the Brillouin zone
       k-points in crystal coordinates                weights
   0:     0.12500000   -0.37500000    0.00000000          2/16
   1:     0.12500000   -0.12500000    0.00000000          2/16
   2:     0.12500000    0.12500000    0.00000000          2/16
   3:     0.12500000    0.37500000    0.00000000          2/16
   4:     0.37500000   -0.37500000    0.00000000          2/16
   5:     0.37500000   -0.12500000    0.00000000          2/16
   6:     0.37500000    0.12500000    0.00000000          2/16
   7:     0.37500000    0.37500000    0.00000000          2/16

Wave functions: Plane wave expansion
  Cutoff energy: 400.000 eV
  Number of coefficients (min, max): 32894, 32940
  Pulay-stress correction: 0.000000 eV/Ang^3 (de/decut=0.000000)
  Using FFTW library
  ScaLapack parameters: grid=1x1, blocksize=None
  Wavefunction extrapolation:
    Improved wavefunction reuse through dual PAW basis 

Eigensolver
   Davidson(niter=2, smin=None, normalize=True) 

Densities:
  Coarse grid: 35*35*135 grid
  Fine grid: 70*70*270 grid
  Total Charge: 0.000000 

Density mixing:
  Method: separate
  Backend: pulay
  Linear mixing parameter: 0.05
  Mixing with 5 old densities
  Damping of long wave oscillations: 50 

Hamiltonian:
  XC and Coulomb potentials evaluated on a 70*70*270 grid
  Using the RPBE Exchange-Correlation functional
 

XC parameters: RPBE with 2 nearest neighbor stencil

Memory estimate:
  Process memory now: 153.36 MiB
  Calculator: 554.76 MiB
    Density: 54.46 MiB
      Arrays: 16.41 MiB
      Localized functions: 31.69 MiB
      Mixer: 6.36 MiB
    Hamiltonian: 11.75 MiB
      Arrays: 10.73 MiB
      XC: 0.00 MiB
      Poisson: 0.00 MiB
      vbar: 1.03 MiB
    Wavefunctions: 488.54 MiB
      Arrays psit_nG: 220.65 MiB
      Eigensolver: 252.59 MiB
      Projections: 2.77 MiB
      Projectors: 5.91 MiB
      PW-descriptor: 6.62 MiB

Total number of cores used: 16
Parallelization over k-points: 8
Domain decomposition: 1 x 1 x 2

Number of atoms: 47
Number of atomic orbitals: 551
Number of bands in calculation: 439
Bands to converge: occupied states only
Number of valence electrons: 724

... initialized

Initializing position-dependent things.

Density initialized from atomic densities
Creating initial wave functions:
  439 bands from LCAO basis set

                                             
                                             
                                             
                                             
                                             
                                             
                                             
                                             
                H Ag     Ir    Ir            
            PdO     Pd                       
                   Ru     PIr    Ir          
        Ir    Pt    PAg                      
                           Pd                
        Ir     Pd    IAg    Ir     Pt        
                                             
                Ag     Ru     Pd             
           Pt     Ag    PPd    Ir            
                                             
            Pt     Pt    PPt    Ru           
       Ag     Ag     Ag                      
              Ru    Ir     Pt                
         Pd    Ir     Ru                     
                                             
                                             
                                             
                                             
                                             

Positions:
   0 Pd     0.000000    1.624086   10.000000    ( 0.0000,  0.0000,  0.0000)
   1 Ir     2.812999    1.624086   10.000000    ( 0.0000,  0.0000,  0.0000)
   2 Ru     5.625998    1.624086   10.000000    ( 0.0000,  0.0000,  0.0000)
   3 Ru     1.406500    4.060215   10.000000    ( 0.0000,  0.0000,  0.0000)
   4 Ir     4.219499    4.060215   10.000000    ( 0.0000,  0.0000,  0.0000)
   5 Pt     7.032498    4.060215   10.000000    ( 0.0000,  0.0000,  0.0000)
   6 Pd     2.812999    6.496343   10.000000    ( 0.0000,  0.0000,  0.0000)
   7 Pd     5.625998    6.496343   10.000000    ( 0.0000,  0.0000,  0.0000)
   8 Ru     8.438997    6.496343   10.000000    ( 0.0000,  0.0000,  0.0000)
   9 Ag     0.000000    0.000000   12.296804    ( 0.0000,  0.0000,  0.0000)
  10 Ag     2.812999    0.000000   12.296804    ( 0.0000,  0.0000,  0.0000)
  11 Ag     5.625998    0.000000   12.296804    ( 0.0000,  0.0000,  0.0000)
  12 Pt     1.406500    2.436129   12.296804    ( 0.0000,  0.0000,  0.0000)
  13 Pt     4.219499    2.436129   12.296804    ( 0.0000,  0.0000,  0.0000)
  14 Pt     7.032498    2.436129   12.296804    ( 0.0000,  0.0000,  0.0000)
  15 Ru     2.812999    4.872257   12.296804    ( 0.0000,  0.0000,  0.0000)
  16 Pt     5.625998    4.872257   12.296804    ( 0.0000,  0.0000,  0.0000)
  17 Ir     8.438997    4.872257   12.296804    ( 0.0000,  0.0000,  0.0000)
  18 Pt     1.331112    0.739375   14.657283    ( 0.0000,  0.0000,  0.0000)
  19 Ag     4.181622    0.793852   14.645499    ( 0.0000,  0.0000,  0.0000)
  20 Pd     7.001587    0.862206   14.620346    ( 0.0000,  0.0000,  0.0000)
  21 Ag     2.800841    3.198617   14.645984    ( 0.0000,  0.0000,  0.0000)
  22 Ru     5.661352    3.374873   14.464570    ( 0.0000,  0.0000,  0.0000)
  23 Pd     8.454364    3.209063   14.568969    ( 0.0000,  0.0000,  0.0000)
  24 Ir     4.203312    5.613553   14.568997    ( 0.0000,  0.0000,  0.0000)
  25 Ir     7.031881    5.578044   14.561300    ( 0.0000,  0.0000,  0.0000)
  26 Pt     9.857688    5.665883   14.596939    ( 0.0000,  0.0000,  0.0000)
  27 Ir    -0.077764    1.506761   16.938800    ( 0.0000,  0.0000,  0.0000)
  28 Pd     2.746751    1.593087   16.991368    ( 0.0000,  0.0000,  0.0000)
  29 Ag     5.532334    1.594992   16.918159    ( 0.0000,  0.0000,  0.0000)
  30 Pd     1.401555    4.031321   16.973309    ( 0.0000,  0.0000,  0.0000)
  31 Pd     4.186062    4.107308   16.892321    ( 0.0000,  0.0000,  0.0000)
  32 Pd     7.007491    3.969527   16.736476    ( 0.0000,  0.0000,  0.0000)
  33 Ru     2.845276    6.541012   16.753610    ( 0.0000,  0.0000,  0.0000)
  34 Pd     5.662228    6.450069   16.794393    ( 0.0000,  0.0000,  0.0000)
  35 Ir     8.552515    6.378355   16.920371    ( 0.0000,  0.0000,  0.0000)
  36 Ir     0.061963   -0.029589   18.981657    ( 0.0000,  0.0000,  0.0000)
  37 Pt     2.802470   -0.097062   19.141410    ( 0.0000,  0.0000,  0.0000)
  38 Ag     5.661265    0.013033   19.406409    ( 0.0000,  0.0000,  0.0000)
  39 Pd     1.350042    2.376862   19.278970    ( 0.0000,  0.0000,  0.0000)
  40 Pd     4.315258    2.518491   19.256067    ( 0.0000,  0.0000,  0.0000)
  41 Ir     7.173708    2.513849   19.018418    ( 0.0000,  0.0000,  0.0000)
  42 Ag     2.809713    4.893314   19.379442    ( 0.0000,  0.0000,  0.0000)
  43 Ir     5.700233    4.913916   19.039342    ( 0.0000,  0.0000,  0.0000)
  44 Ir     8.278779    4.849064   19.000358    ( 0.0000,  0.0000,  0.0000)
  45 O      2.802470   -0.097062   21.406409    ( 0.0000,  0.0000,  0.0000)
  46 H      3.452470    0.552938   21.806409    ( 0.0000,  0.0000,  0.0000)

Unit cell:
           periodic     x           y           z      points  spacing
  1. axis:    yes    8.465341    0.000000    0.000000    35     0.2095
  2. axis:    yes    4.232670    7.331200    0.000000    35     0.2095
  3. axis:    no     0.000000    0.000000   29.187217   135     0.2162

  Lengths:   8.465341   8.465341  29.187217
  Angles:   90.000000  90.000000  60.000000

Effective grid spacing dv^(1/3) = 0.2221

                     log10-error:    total        iterations:
           time      wfs    density  energy       fermi  poisson
iter:   1  14:12:24  +0.33   +inf  -325.486282    3             
iter:   2  14:13:27  -0.56  -1.16  -406.127855    34            
iter:   3  14:14:29  -0.65  -1.08  -350.648582    4             
iter:   4  14:15:32  -1.31  -1.14  -270.456651    37            
iter:   5  14:16:35  -1.73  -1.35  -250.660309    33            
iter:   6  14:17:38  -1.88  -1.44  -246.620888    37            
iter:   7  14:18:40  -2.21  -1.49  -243.849112    3             
iter:   8  14:19:43  -2.28  -1.55  -240.423872    3             
iter:   9  14:20:46  -1.98  -1.69  -243.644625    3             
iter:  10  14:21:48  -2.77  -1.68  -239.260760    3             
iter:  11  14:22:51  -2.78  -1.89  -238.898720    3             
iter:  12  14:23:54  -2.82  -2.00  -239.020730    3             
iter:  13  14:24:57  -2.99  -2.09  -240.074841    3             
iter:  14  14:25:59  -3.28  -1.97  -238.747393    3             
iter:  15  14:27:02  -3.62  -2.25  -238.580147    3             
iter:  16  14:28:05  -3.51  -2.37  -238.683148    3             
iter:  17  14:29:08  -3.21  -2.35  -238.458908    3             
iter:  18  14:30:11  -3.74  -2.65  -238.469050    3             
iter:  19  14:31:13  -3.95  -2.69  -238.544855    3             
iter:  20  14:32:17  -4.36  -2.52  -238.434083    2             
iter:  21  14:33:19  -4.54  -2.81  -238.412017    2             
iter:  22  14:34:23  -4.91  -2.98  -238.412802    3             
iter:  23  14:35:25  -4.36  -3.03  -238.411291    2             
iter:  24  14:36:28  -5.26  -3.07  -238.411510    2             
iter:  25  14:37:31  -5.01  -3.14  -238.414483    2             
iter:  26  14:38:39  -5.53  -3.05  -238.410970    2             
iter:  27  14:39:51  -5.22  -3.16  -238.407829    2             
iter:  28  14:40:56  -5.31  -3.32  -238.408095    2             
iter:  29  14:41:59  -5.69  -3.43  -238.406635    2             
iter:  30  14:43:01  -5.47  -3.50  -238.410772    2             
iter:  31  14:44:04  -6.05  -3.40  -238.406994    2             
iter:  32  14:45:07  -6.37  -3.51  -238.406818    2             
iter:  33  14:46:09  -6.26  -3.60  -238.406482    2             
iter:  34  14:47:12  -6.44  -3.68  -238.406644    2             
iter:  35  14:48:15  -6.51  -3.72  -238.406342    2             
iter:  36  14:49:17  -6.22  -3.76  -238.407156    2             
iter:  37  14:50:20  -6.23  -3.75  -238.406528    2             
iter:  38  14:51:22  -6.30  -3.50  -238.405964    2             
iter:  39  14:52:23  -6.61  -3.93  -238.406125    2             
iter:  40  14:53:25  -7.14  -4.09  -238.406247    2             
iter:  41  14:54:26  -7.49  -4.13  -238.406143    2             

Converged after 41 iterations.

Dipole moment: (27.067912, 21.116792, -0.219588) |e|*Ang

Energy contributions relative to reference atoms: (reference = -12877860.274276)

Kinetic:       -229.850555
Potential:     +104.432073
External:        +0.000000
XC:            -104.920803
Entropy (-ST):   -2.267118
Local:           -6.933299
--------------------------
Free energy:   -239.539702
Extrapolated:  -238.406143

Fermi level: 0.95960

Showing only first 2 kpts
 Kpt  Band  Eigenvalues  Occupancy
  0   360      0.94812    0.13216
  0   361      0.97377    0.11615
  0   362      1.00200    0.09889
  0   363      1.02068    0.08797

  1   360      0.86678    0.17917
  1   361      0.87763    0.17354
  1   362      0.92739    0.14495
  1   363      0.95018    0.13088



Forces in eV/Ang:
  0 Pd   -0.11980    0.34667   -0.34508
  1 Ir    0.95968    0.70328    0.61230
  2 Ru   -1.09433    0.31255    0.69097
  3 Ru    0.43705    0.29183    1.63963
  4 Ir   -0.56656   -0.79717    1.18365
  5 Pt    0.14137    0.15293    0.06078
  6 Pd   -0.49983   -0.43390   -0.23652
  7 Pd    0.39669   -0.27576   -0.57263
  8 Ru    0.33930   -0.15713    0.55639
  9 Ag   -0.23882   -0.09601    0.07196
 10 Ag   -0.02399   -0.10592    0.06037
 11 Ag    0.07091   -0.17566   -0.13677
 12 Pt    0.09459    0.76717   -0.54804
 13 Pt    0.12113    0.57872   -0.73859
 14 Pt   -0.10649    0.21658   -0.18337
 15 Ru   -0.40872   -0.76956   -1.02253
 16 Pt   -0.40712    0.16298   -0.12016
 17 Ir    0.88395   -0.09622   -1.03899
 18 Pt    0.01347   -0.01700    0.01673
 19 Ag   -0.00799   -0.04808    0.01949
 20 Pd   -0.01072   -0.06254    0.02511
 21 Ag   -0.00759   -0.00199   -0.02170
 22 Ru   -0.00988   -0.00420   -0.02456
 23 Pd   -0.05353   -0.03076    0.03569
 24 Ir   -0.00146   -0.03858   -0.02881
 25 Ir   -0.02272   -0.02842    0.06449
 26 Pt    0.07628   -0.01241   -0.05214
 27 Ir    0.01180    0.03154   -0.01031
 28 Pd   -0.00241   -0.12253   -0.05135
 29 Ag   -0.02299   -0.01840   -0.00475
 30 Pd   -0.02914    0.03284   -0.02170
 31 Pd    0.02543   -0.03571   -0.01801
 32 Pd    0.04624    0.00735    0.03615
 33 Ru    0.00085    0.01816    0.03844
 34 Pd    0.17284    0.07771    0.18859
 35 Ir   -0.12682   -0.11599   -0.01518
 36 Ir   -0.19484   -0.15507   -0.08220
 37 Pt    0.34371    0.34554    1.72467
 38 Ag    0.12055    0.00415   -0.04602
 39 Pd   -0.06752    0.02189    0.00905
 40 Pd    0.04329    0.08626   -0.04512
 41 Ir   -0.01034   -0.03896    0.01014
 42 Ag   -0.02051   -0.02052    0.01019
 43 Ir   -0.09619   -0.19838   -0.05365
 44 Ir    0.02842   -0.23766   -0.04039
 45 O     0.12824    0.14871   -1.03309
 46 H    -0.34413   -0.27406   -0.56344

System changes: positions 

Initializing position-dependent things.

Density initialized from wave functions
                                             
                                             
                                             
                                             
                                             
                                             
                                             
                                             
                H Ag     Ir    Ir            
            PdO     Pd                       
                   Ru     PIr   Ir           
        Ir    Pt    PAg    Pd                
                                             
        Ir     Pd    IAg    Ir     Pt        
                                             
                Ag     Ru     Pd             
           Pt     Ag    PPd    Ir            
                                             
            Pt     Pt    PPt    Ru           
       Ag     Ag     Ag                      
              Ru    Ir     Pt                
         Pd    Ir     Ru                     
                                             
                                             
                                             
                                             
                                             

Positions:
   0 Pd     0.000000    1.624086   10.000000    ( 0.0000,  0.0000,  0.0000)
   1 Ir     2.812999    1.624086   10.000000    ( 0.0000,  0.0000,  0.0000)
   2 Ru     5.625998    1.624086   10.000000    ( 0.0000,  0.0000,  0.0000)
   3 Ru     1.406500    4.060215   10.000000    ( 0.0000,  0.0000,  0.0000)
   4 Ir     4.219499    4.060215   10.000000    ( 0.0000,  0.0000,  0.0000)
   5 Pt     7.032498    4.060215   10.000000    ( 0.0000,  0.0000,  0.0000)
   6 Pd     2.812999    6.496343   10.000000    ( 0.0000,  0.0000,  0.0000)
   7 Pd     5.625998    6.496343   10.000000    ( 0.0000,  0.0000,  0.0000)
   8 Ru     8.438997    6.496343   10.000000    ( 0.0000,  0.0000,  0.0000)
   9 Ag     0.000000    0.000000   12.296804    ( 0.0000,  0.0000,  0.0000)
  10 Ag     2.812999    0.000000   12.296804    ( 0.0000,  0.0000,  0.0000)
  11 Ag     5.625998    0.000000   12.296804    ( 0.0000,  0.0000,  0.0000)
  12 Pt     1.406500    2.436129   12.296804    ( 0.0000,  0.0000,  0.0000)
  13 Pt     4.219499    2.436129   12.296804    ( 0.0000,  0.0000,  0.0000)
  14 Pt     7.032498    2.436129   12.296804    ( 0.0000,  0.0000,  0.0000)
  15 Ru     2.812999    4.872257   12.296804    ( 0.0000,  0.0000,  0.0000)
  16 Pt     5.625998    4.872257   12.296804    ( 0.0000,  0.0000,  0.0000)
  17 Ir     8.438997    4.872257   12.296804    ( 0.0000,  0.0000,  0.0000)
  18 Pt     1.332460    0.737675   14.658956    ( 0.0000,  0.0000,  0.0000)
  19 Ag     4.180823    0.789044   14.647448    ( 0.0000,  0.0000,  0.0000)
  20 Pd     7.000515    0.855952   14.622857    ( 0.0000,  0.0000,  0.0000)
  21 Ag     2.800082    3.198419   14.643814    ( 0.0000,  0.0000,  0.0000)
  22 Ru     5.660364    3.374453   14.462113    ( 0.0000,  0.0000,  0.0000)
  23 Pd     8.449010    3.205987   14.572537    ( 0.0000,  0.0000,  0.0000)
  24 Ir     4.203166    5.609695   14.566115    ( 0.0000,  0.0000,  0.0000)
  25 Ir     7.029609    5.575202   14.567748    ( 0.0000,  0.0000,  0.0000)
  26 Pt     9.865316    5.664641   14.591725    ( 0.0000,  0.0000,  0.0000)
  27 Ir    -0.076584    1.509915   16.937770    ( 0.0000,  0.0000,  0.0000)
  28 Pd     2.746510    1.580834   16.986233    ( 0.0000,  0.0000,  0.0000)
  29 Ag     5.530035    1.593152   16.917684    ( 0.0000,  0.0000,  0.0000)
  30 Pd     1.398641    4.034605   16.971140    ( 0.0000,  0.0000,  0.0000)
  31 Pd     4.188605    4.103737   16.890520    ( 0.0000,  0.0000,  0.0000)
  32 Pd     7.012115    3.970262   16.740091    ( 0.0000,  0.0000,  0.0000)
  33 Ru     2.845360    6.542828   16.757455    ( 0.0000,  0.0000,  0.0000)
  34 Pd     5.679512    6.457839   16.813252    ( 0.0000,  0.0000,  0.0000)
  35 Ir     8.539833    6.366757   16.918853    ( 0.0000,  0.0000,  0.0000)
  36 Ir     0.042479   -0.045096   18.973437    ( 0.0000,  0.0000,  0.0000)
  37 Pt     2.836841   -0.062507   19.313877    ( 0.0000,  0.0000,  0.0000)
  38 Ag     5.673320    0.013448   19.401807    ( 0.0000,  0.0000,  0.0000)
  39 Pd     1.343290    2.379051   19.279875    ( 0.0000,  0.0000,  0.0000)
  40 Pd     4.319587    2.527117   19.251554    ( 0.0000,  0.0000,  0.0000)
  41 Ir     7.172674    2.509954   19.019433    ( 0.0000,  0.0000,  0.0000)
  42 Ag     2.807662    4.891262   19.380462    ( 0.0000,  0.0000,  0.0000)
  43 Ir     5.690614    4.894079   19.033977    ( 0.0000,  0.0000,  0.0000)
  44 Ir     8.281621    4.825298   18.996319    ( 0.0000,  0.0000,  0.0000)
  45 O      2.815294   -0.082191   21.303100    ( 0.0000,  0.0000,  0.0000)
  46 H      3.418057    0.525532   21.750066    ( 0.0000,  0.0000,  0.0000)

Unit cell:
           periodic     x           y           z      points  spacing
  1. axis:    yes    8.465341    0.000000    0.000000    35     0.2095
  2. axis:    yes    4.232670    7.331200    0.000000    35     0.2095
  3. axis:    no     0.000000    0.000000   29.187217   135     0.2162

  Lengths:   8.465341   8.465341  29.187217
  Angles:   90.000000  90.000000  60.000000

Effective grid spacing dv^(1/3) = 0.2221

                     log10-error:    total        iterations:
           time      wfs    density  energy       fermi  poisson
iter:   1  14:55:56  -1.94   +inf  -241.809492    4             
iter:   2  14:56:59  -1.78  -2.01  -264.514716    36            
iter:   3  14:58:01  -1.53  -1.54  -287.620570    3             
iter:   4  14:59:04  -2.20  -1.41  -239.771229    37            
iter:   5  15:00:06  -2.94  -2.18  -238.892402    3             
iter:   6  15:01:09  -3.71  -2.49  -238.850779    3             
iter:   7  15:02:13  -4.18  -2.53  -238.743825    3             
iter:   8  15:03:17  -3.95  -2.76  -238.683659    2             
iter:   9  15:04:20  -3.74  -2.89  -239.002396    3             
iter:  10  15:05:24  -3.86  -2.35  -238.786804    3             
iter:  11  15:06:28  -4.10  -2.55  -238.650159    3             
iter:  12  15:07:32  -4.73  -2.96  -238.641570    2             
iter:  13  15:08:36  -5.04  -3.15  -238.634489    3             
iter:  14  15:09:39  -5.44  -3.29  -238.633288    2             
iter:  15  15:10:43  -5.16  -3.39  -238.633580    3             
iter:  16  15:11:47  -5.07  -3.27  -238.659330    3             
iter:  17  15:12:51  -5.05  -2.93  -238.631270    3             
iter:  18  15:13:55  -5.46  -3.46  -238.632467    2             
iter:  19  15:14:59  -5.69  -3.48  -238.630591    2             
iter:  20  15:16:03  -6.06  -3.62  -238.631176    2             
iter:  21  15:17:06  -6.46  -3.80  -238.631076    2             
iter:  22  15:18:11  -5.93  -3.87  -238.632143    2             
iter:  23  15:19:14  -6.57  -3.76  -238.630999    2             
iter:  24  15:20:19  -6.39  -3.75  -238.631559    2             
iter:  25  15:21:23  -6.91  -4.13  -238.631154    2             
iter:  26  15:22:27  -6.88  -4.06  -238.631491    2             
iter:  27  15:23:30  -7.01  -4.17  -238.631263    2             
iter:  28  15:24:34  -7.38  -4.42  -238.631239    2             
iter:  29  15:25:47  -7.03  -4.46  -238.630923    2             
iter:  30  15:26:56  -7.60  -4.10  -238.631234    2             

Converged after 30 iterations.

Dipole moment: (26.811910, 19.318211, -0.040806) |e|*Ang

Energy contributions relative to reference atoms: (reference = -12877860.274276)

Kinetic:       -227.849945
Potential:     +102.908904
External:        +0.000000
XC:            -105.697016
Entropy (-ST):   -2.259683
Local:           -6.863335
--------------------------
Free energy:   -239.761076
Extrapolated:  -238.631234

Fermi level: 1.04051

Showing only first 2 kpts
 Kpt  Band  Eigenvalues  Occupancy
  0   360      1.02814    0.13272
  0   361      1.05499    0.11596
  0   362      1.07868    0.10143
  0   363      1.10684    0.08500

  1   360      0.94497    0.18055
  1   361      0.95413    0.17586
  1   362      1.01590    0.14031
  1   363      1.02505    0.13464



Forces in eV/Ang:
  0 Pd   -0.12507    0.32513   -0.35476
  1 Ir    0.95304    0.68804    0.61386
  2 Ru   -1.07782    0.28960    0.68622
  3 Ru    0.43533    0.30166    1.63834
  4 Ir   -0.56613   -0.78438    1.16417
  5 Pt    0.14097    0.15618    0.05830
  6 Pd   -0.49719   -0.41906   -0.24275
  7 Pd    0.38365   -0.26233   -0.57558
  8 Ru    0.34955   -0.14930    0.55427
  9 Ag   -0.24319   -0.08724    0.06562
 10 Ag   -0.02338   -0.10891    0.06177
 11 Ag    0.07246   -0.16259   -0.14282
 12 Pt    0.08055    0.75055   -0.54182
 13 Pt    0.11501    0.54791   -0.73327
 14 Pt   -0.09660    0.18086   -0.17988
 15 Ru   -0.41809   -0.74755   -0.99219
 16 Pt   -0.38862    0.18876   -0.14133
 17 Ir    0.87308   -0.09557   -1.04647
 18 Pt   -0.00719   -0.03805    0.05124
 19 Ag    0.00139   -0.02799    0.00890
 20 Pd   -0.00009   -0.02439   -0.00291
 21 Ag   -0.01698   -0.04468    0.01551
 22 Ru   -0.01425   -0.04894    0.04062
 23 Pd   -0.00075   -0.03279    0.00873
 24 Ir    0.00450    0.01647    0.03003
 25 Ir   -0.01293    0.00073    0.03881
 26 Pt    0.02704   -0.02322   -0.01035
 27 Ir    0.04226   -0.02705   -0.00865
 28 Pd    0.02285   -0.23457    0.25090
 29 Ag   -0.03870   -0.03514   -0.02141
 30 Pd    0.08127   -0.03208   -0.04636
 31 Pd    0.00497    0.01856   -0.06302
 32 Pd   -0.04010   -0.02970   -0.04066
 33 Ru    0.03703   -0.02986    0.01567
 34 Pd    0.19695    0.05013    0.29219
 35 Ir   -0.13733   -0.00639    0.07242
 36 Ir    0.03571   -0.12991   -0.06417
 37 Pt    0.07029    0.10764   -0.57246
 38 Ag    0.10047    0.00537   -0.06981
 39 Pd    0.01006   -0.01551   -0.06845
 40 Pd   -0.01716   -0.04364   -0.03702
 41 Ir   -0.06486   -0.09292   -0.01659
 42 Ag   -0.05162   -0.06173   -0.00844
 43 Ir    0.06126    0.16217   -0.06051
 44 Ir   -0.04330    0.09841    0.00387
 45 O    -0.89643   -0.86839    0.22879
 46 H     0.72230    0.77907    0.10120

System changes: positions 

Initializing position-dependent things.

Density initialized from wave functions
                                             
                                             
                                             
                                             
                                             
                                             
                                             
                                             
                HAg      Ir    Ir            
            PdO     Pd                       
                   Ru     PIr   Ir           
        Ir    Pt    PAg    Pd                
                                             
        Ir     Pd    IAg    Ir     Pt        
                Ag                           
                       Ru     Pd             
           Pt     Ag    PPd    Ir            
                                             
            Pt     Pt    PPt    Ru           
       Ag     Ag     Ag                      
              Ru    Ir     Pt                
         Pd    Ir     Ru                     
                                             
                                             
                                             
                                             
                                             

Positions:
   0 Pd     0.000000    1.624086   10.000000    ( 0.0000,  0.0000,  0.0000)
   1 Ir     2.812999    1.624086   10.000000    ( 0.0000,  0.0000,  0.0000)
   2 Ru     5.625998    1.624086   10.000000    ( 0.0000,  0.0000,  0.0000)
   3 Ru     1.406500    4.060215   10.000000    ( 0.0000,  0.0000,  0.0000)
   4 Ir     4.219499    4.060215   10.000000    ( 0.0000,  0.0000,  0.0000)
   5 Pt     7.032498    4.060215   10.000000    ( 0.0000,  0.0000,  0.0000)
   6 Pd     2.812999    6.496343   10.000000    ( 0.0000,  0.0000,  0.0000)
   7 Pd     5.625998    6.496343   10.000000    ( 0.0000,  0.0000,  0.0000)
   8 Ru     8.438997    6.496343   10.000000    ( 0.0000,  0.0000,  0.0000)
   9 Ag     0.000000    0.000000   12.296804    ( 0.0000,  0.0000,  0.0000)
  10 Ag     2.812999    0.000000   12.296804    ( 0.0000,  0.0000,  0.0000)
  11 Ag     5.625998    0.000000   12.296804    ( 0.0000,  0.0000,  0.0000)
  12 Pt     1.406500    2.436129   12.296804    ( 0.0000,  0.0000,  0.0000)
  13 Pt     4.219499    2.436129   12.296804    ( 0.0000,  0.0000,  0.0000)
  14 Pt     7.032498    2.436129   12.296804    ( 0.0000,  0.0000,  0.0000)
  15 Ru     2.812999    4.872257   12.296804    ( 0.0000,  0.0000,  0.0000)
  16 Pt     5.625998    4.872257   12.296804    ( 0.0000,  0.0000,  0.0000)
  17 Ir     8.438997    4.872257   12.296804    ( 0.0000,  0.0000,  0.0000)
  18 Pt     1.332336    0.734338   14.663263    ( 0.0000,  0.0000,  0.0000)
  19 Ag     4.180683    0.785507   14.648701    ( 0.0000,  0.0000,  0.0000)
  20 Pd     7.000183    0.852242   14.623405    ( 0.0000,  0.0000,  0.0000)
  21 Ag     2.798593    3.195047   14.644303    ( 0.0000,  0.0000,  0.0000)
  22 Ru     5.659007    3.370699   14.464377    ( 0.0000,  0.0000,  0.0000)
  23 Pd     8.447327    3.202622   14.574270    ( 0.0000,  0.0000,  0.0000)
  24 Ir     4.203455    5.609742   14.567465    ( 0.0000,  0.0000,  0.0000)
  25 Ir     7.027960    5.574392   14.572586    ( 0.0000,  0.0000,  0.0000)
  26 Pt     9.869640    5.662542   14.589372    ( 0.0000,  0.0000,  0.0000)
  27 Ir    -0.073093    1.508870   16.936815    ( 0.0000,  0.0000,  0.0000)
  28 Pd     2.748130    1.559723   17.003266    ( 0.0000,  0.0000,  0.0000)
  29 Ag     5.526468    1.589988   16.915953    ( 0.0000,  0.0000,  0.0000)
  30 Pd     1.403778    4.033226   16.967044    ( 0.0000,  0.0000,  0.0000)
  31 Pd     4.189747    4.104027   16.885302    ( 0.0000,  0.0000,  0.0000)
  32 Pd     7.010549    3.968284   16.738177    ( 0.0000,  0.0000,  0.0000)
  33 Ru     2.848130    6.541168   16.759785    ( 0.0000,  0.0000,  0.0000)
  34 Pd     5.699366    6.463918   16.840643    ( 0.0000,  0.0000,  0.0000)
  35 Ir     8.525798    6.362756   16.923758    ( 0.0000,  0.0000,  0.0000)
  36 Ir     0.039199   -0.059440   18.966180    ( 0.0000,  0.0000,  0.0000)
  37 Pt     2.852504   -0.044020   19.323905    ( 0.0000,  0.0000,  0.0000)
  38 Ag     5.684432    0.013972   19.395233    ( 0.0000,  0.0000,  0.0000)
  39 Pd     1.341982    2.378567   19.275077    ( 0.0000,  0.0000,  0.0000)
  40 Pd     4.319632    2.526506   19.247438    ( 0.0000,  0.0000,  0.0000)
  41 Ir     7.167553    2.501882   19.018511    ( 0.0000,  0.0000,  0.0000)
  42 Ag     2.803212    4.886063   19.380147    ( 0.0000,  0.0000,  0.0000)
  43 Ir     5.692228    4.900064   19.027860    ( 0.0000,  0.0000,  0.0000)
  44 Ir     8.279276    4.825363   18.995377    ( 0.0000,  0.0000,  0.0000)
  45 O      2.752757   -0.142027   21.288636    ( 0.0000,  0.0000,  0.0000)
  46 H      3.461123    0.574936   21.740429    ( 0.0000,  0.0000,  0.0000)

Unit cell:
           periodic     x           y           z      points  spacing
  1. axis:    yes    8.465341    0.000000    0.000000    35     0.2095
  2. axis:    yes    4.232670    7.331200    0.000000    35     0.2095
  3. axis:    no     0.000000    0.000000   29.187217   135     0.2162

  Lengths:   8.465341   8.465341  29.187217
  Angles:   90.000000  90.000000  60.000000

Effective grid spacing dv^(1/3) = 0.2221

                     log10-error:    total        iterations:
           time      wfs    density  energy       fermi  poisson
iter:   1  15:28:31  -2.15   +inf  -240.968626    36            
iter:   2  15:29:35  -1.86  -2.05  -287.634701    3             
iter:   3  15:30:39  -2.04  -1.37  -239.400998    33            
iter:   4  15:31:43  -3.11  -2.23  -239.405609    3             
iter:   5  15:32:47  -3.25  -2.22  -238.610031    3             
iter:   6  15:33:50  -3.77  -2.75  -238.521598    3             
iter:   7  15:34:55  -4.38  -2.88  -238.497732    3             
iter:   8  15:35:59  -4.23  -2.99  -238.562096    3             
iter:   9  15:37:03  -4.40  -2.59  -238.511339    3             
iter:  10  15:38:07  -4.24  -2.83  -238.521107    2             
iter:  11  15:39:11  -4.46  -2.72  -238.468844    3             
iter:  12  15:40:17  -5.13  -2.96  -238.463680    3             
iter:  13  15:41:21  -5.26  -3.02  -238.452899    2             
iter:  14  15:42:30  -5.56  -3.40  -238.453696    2             
iter:  15  15:43:36  -5.34  -3.33  -238.459248    3             
iter:  16  15:44:39  -6.01  -3.28  -238.453144    2             
iter:  17  15:45:42  -6.05  -3.58  -238.451804    2             
iter:  18  15:46:46  -5.75  -3.62  -238.453696    3             
iter:  19  15:47:49  -5.82  -3.72  -238.453876    2             
iter:  20  15:48:54  -6.32  -3.64  -238.452858    2             
iter:  21  15:49:58  -6.92  -3.99  -238.452847    2             
iter:  22  15:51:02  -6.59  -3.92  -238.452248    2             
iter:  23  15:52:06  -6.78  -3.80  -238.452306    2             
iter:  24  15:53:10  -6.80  -4.14  -238.452120    2             
iter:  25  15:54:14  -6.96  -4.03  -238.452259    2             
iter:  26  15:55:18  -6.92  -4.06  -238.452163    2             
iter:  27  15:56:22  -7.26  -4.29  -238.452642    2             
iter:  28  15:57:25  -7.54  -4.18  -238.452160    2             

Converged after 28 iterations.

Dipole moment: (28.303445, 21.659593, -0.030110) |e|*Ang

Energy contributions relative to reference atoms: (reference = -12877860.274276)

Kinetic:       -231.868501
Potential:     +105.711170
External:        +0.000000
XC:            -104.250574
Entropy (-ST):   -2.254654
Local:           -6.916928
--------------------------
Free energy:   -239.579487
Extrapolated:  -238.452160

Fermi level: 1.04801

Showing only first 2 kpts
 Kpt  Band  Eigenvalues  Occupancy
  0   360      1.04040    0.12975
  0   361      1.06144    0.11662
  0   362      1.08561    0.10177
  0   363      1.11427    0.08504

  1   360      0.95296    0.18030
  1   361      0.96099    0.17620
  1   362      1.02338    0.14032
  1   363      1.03083    0.13571



Forces in eV/Ang:
  0 Pd   -0.12387    0.32588   -0.34981
  1 Ir    0.95523    0.68984    0.62318
  2 Ru   -1.07764    0.29012    0.69491
  3 Ru    0.43412    0.30344    1.64834
  4 Ir   -0.56679   -0.78768    1.16787
  5 Pt    0.13923    0.15679    0.06495
  6 Pd   -0.50090   -0.42115   -0.23875
  7 Pd    0.38490   -0.26339   -0.56949
  8 Ru    0.35003   -0.14833    0.55873
  9 Ag   -0.23650   -0.08480    0.07165
 10 Ag   -0.02587   -0.11267    0.07121
 11 Ag    0.06827   -0.16067   -0.14567
 12 Pt    0.07546    0.74628   -0.53941
 13 Pt    0.11293    0.54655   -0.72761
 14 Pt   -0.09771    0.17877   -0.17516
 15 Ru   -0.40817   -0.75043   -0.97832
 16 Pt   -0.37911    0.18186   -0.11076
 17 Ir    0.86094   -0.10005   -1.03414
 18 Pt    0.00147   -0.06456    0.07501
 19 Ag   -0.00734   -0.02524    0.00309
 20 Pd    0.00395   -0.01472    0.00800
 21 Ag   -0.00605   -0.07227    0.03573
 22 Ru   -0.01221   -0.01513    0.00687
 23 Pd    0.01245   -0.01512   -0.00567
 24 Ir    0.03613    0.02208    0.06179
 25 Ir   -0.02172   -0.01002    0.00663
 26 Pt   -0.02019   -0.01265    0.04963
 27 Ir   -0.00843   -0.00815    0.00357
 28 Pd    0.06218   -0.05126    0.14687
 29 Ag    0.00507   -0.03396   -0.03483
 30 Pd    0.02864   -0.02115   -0.02390
 31 Pd    0.02328    0.02403   -0.04916
 32 Pd   -0.01445   -0.08726    0.00642
 33 Ru    0.03408   -0.03272   -0.01795
 34 Pd    0.01701   -0.05466   -0.03805
 35 Ir    0.01021   -0.00751    0.00456
 36 Ir    0.03498   -0.05968    0.03428
 37 Pt    0.00974   -0.00833   -0.81804
 38 Ag    0.04498    0.00895   -0.02197
 39 Pd   -0.01780   -0.00438   -0.02482
 40 Pd   -0.01696   -0.05819    0.03152
 41 Ir   -0.01370    0.00054   -0.02202
 42 Ag   -0.04915   -0.08902    0.01273
 43 Ir    0.04318    0.09957    0.03409
 44 Ir   -0.02300    0.03065    0.03399
 45 O     2.15434    2.15563    2.13809
 46 H    -2.26655   -2.25603   -1.60237

System changes: positions 

Initializing position-dependent things.

Density initialized from wave functions
                                             
                                             
                                             
                                             
                                             
                                             
                                             
                                             
                H Ag     Ir    Ir            
            PdO     Pd                       
                   Ru     PIr   Ir           
        Ir    Pt    PAg    Pd                
                                             
        Ir     Pd    IAg    Ir     Pt        
                                             
                Ag     Ru     Pd             
           Pt     Ag    PPd    Ir            
                                             
            Pt     Pt    PPt    Ru           
       Ag     Ag     Ag                      
              Ru    Ir     Pt                
         Pd    Ir     Ru                     
                                             
                                             
                                             
                                             
                                             

Positions:
   0 Pd     0.000000    1.624086   10.000000    ( 0.0000,  0.0000,  0.0000)
   1 Ir     2.812999    1.624086   10.000000    ( 0.0000,  0.0000,  0.0000)
   2 Ru     5.625998    1.624086   10.000000    ( 0.0000,  0.0000,  0.0000)
   3 Ru     1.406500    4.060215   10.000000    ( 0.0000,  0.0000,  0.0000)
   4 Ir     4.219499    4.060215   10.000000    ( 0.0000,  0.0000,  0.0000)
   5 Pt     7.032498    4.060215   10.000000    ( 0.0000,  0.0000,  0.0000)
   6 Pd     2.812999    6.496343   10.000000    ( 0.0000,  0.0000,  0.0000)
   7 Pd     5.625998    6.496343   10.000000    ( 0.0000,  0.0000,  0.0000)
   8 Ru     8.438997    6.496343   10.000000    ( 0.0000,  0.0000,  0.0000)
   9 Ag     0.000000    0.000000   12.296804    ( 0.0000,  0.0000,  0.0000)
  10 Ag     2.812999    0.000000   12.296804    ( 0.0000,  0.0000,  0.0000)
  11 Ag     5.625998    0.000000   12.296804    ( 0.0000,  0.0000,  0.0000)
  12 Pt     1.406500    2.436129   12.296804    ( 0.0000,  0.0000,  0.0000)
  13 Pt     4.219499    2.436129   12.296804    ( 0.0000,  0.0000,  0.0000)
  14 Pt     7.032498    2.436129   12.296804    ( 0.0000,  0.0000,  0.0000)
  15 Ru     2.812999    4.872257   12.296804    ( 0.0000,  0.0000,  0.0000)
  16 Pt     5.625998    4.872257   12.296804    ( 0.0000,  0.0000,  0.0000)
  17 Ir     8.438997    4.872257   12.296804    ( 0.0000,  0.0000,  0.0000)
  18 Pt     1.332431    0.736893   14.659965    ( 0.0000,  0.0000,  0.0000)
  19 Ag     4.180790    0.788215   14.647742    ( 0.0000,  0.0000,  0.0000)
  20 Pd     7.000437    0.855083   14.622985    ( 0.0000,  0.0000,  0.0000)
  21 Ag     2.799733    3.197629   14.643928    ( 0.0000,  0.0000,  0.0000)
  22 Ru     5.660046    3.373574   14.462644    ( 0.0000,  0.0000,  0.0000)
  23 Pd     8.448616    3.205199   14.572943    ( 0.0000,  0.0000,  0.0000)
  24 Ir     4.203234    5.609706   14.566432    ( 0.0000,  0.0000,  0.0000)
  25 Ir     7.029223    5.575013   14.568882    ( 0.0000,  0.0000,  0.0000)
  26 Pt     9.866329    5.664149   14.591174    ( 0.0000,  0.0000,  0.0000)
  27 Ir    -0.075766    1.509670   16.937546    ( 0.0000,  0.0000,  0.0000)
  28 Pd     2.746890    1.575888   16.990224    ( 0.0000,  0.0000,  0.0000)
  29 Ag     5.529199    1.592411   16.917278    ( 0.0000,  0.0000,  0.0000)
  30 Pd     1.399845    4.034281   16.970180    ( 0.0000,  0.0000,  0.0000)
  31 Pd     4.188873    4.103805   16.889297    ( 0.0000,  0.0000,  0.0000)
  32 Pd     7.011748    3.969798   16.739642    ( 0.0000,  0.0000,  0.0000)
  33 Ru     2.846009    6.542439   16.758001    ( 0.0000,  0.0000,  0.0000)
  34 Pd     5.684164    6.459264   16.819670    ( 0.0000,  0.0000,  0.0000)
  35 Ir     8.536545    6.365819   16.920002    ( 0.0000,  0.0000,  0.0000)
  36 Ir     0.041710   -0.048457   18.971737    ( 0.0000,  0.0000,  0.0000)
  37 Pt     2.840511   -0.058176   19.316226    ( 0.0000,  0.0000,  0.0000)
  38 Ag     5.675924    0.013571   19.400267    ( 0.0000,  0.0000,  0.0000)
  39 Pd     1.342983    2.378937   19.278751    ( 0.0000,  0.0000,  0.0000)
  40 Pd     4.319597    2.526974   19.250590    ( 0.0000,  0.0000,  0.0000)
  41 Ir     7.171474    2.508062   19.019217    ( 0.0000,  0.0000,  0.0000)
  42 Ag     2.806619    4.890044   19.380388    ( 0.0000,  0.0000,  0.0000)
  43 Ir     5.690992    4.895481   19.032544    ( 0.0000,  0.0000,  0.0000)
  44 Ir     8.281072    4.825313   18.996098    ( 0.0000,  0.0000,  0.0000)
  45 O      2.800641   -0.096211   21.299711    ( 0.0000,  0.0000,  0.0000)
  46 H      3.428148    0.537108   21.747808    ( 0.0000,  0.0000,  0.0000)

Unit cell:
           periodic     x           y           z      points  spacing
  1. axis:    yes    8.465341    0.000000    0.000000    35     0.2095
  2. axis:    yes    4.232670    7.331200    0.000000    35     0.2095
  3. axis:    no     0.000000    0.000000   29.187217   135     0.2162

  Lengths:   8.465341   8.465341  29.187217
  Angles:   90.000000  90.000000  60.000000

Effective grid spacing dv^(1/3) = 0.2221

                     log10-error:    total        iterations:
           time      wfs    density  energy       fermi  poisson
iter:   1  15:58:57  -2.60   +inf  -239.544528    4             
iter:   2  16:00:00  -2.51  -2.31  -241.597265    37            
iter:   3  16:01:03  -2.18  -1.99  -258.701820    3             
iter:   4  16:02:06  -2.52  -1.52  -239.469236    3             
iter:   5  16:03:08  -3.39  -2.22  -238.777050    3             
iter:   6  16:04:12  -4.35  -2.70  -238.697214    3             
iter:   7  16:05:15  -4.68  -3.08  -238.685150    3             
iter:   8  16:06:19  -4.46  -3.10  -238.673670    3             
iter:   9  16:07:21  -4.51  -3.10  -238.690906    3             
iter:  10  16:08:38  -4.40  -2.83  -238.688292    3             
iter:  11  16:09:45  -5.09  -2.89  -238.662343    2             
iter:  12  16:10:48  -5.43  -3.26  -238.658875    3             
iter:  13  16:11:50  -5.80  -3.31  -238.655953    2             
iter:  14  16:12:53  -5.98  -3.62  -238.655444    2             
iter:  15  16:13:55  -5.77  -3.67  -238.654743    2             
iter:  16  16:14:58  -6.05  -3.54  -238.657206    2             
iter:  17  16:16:01  -5.83  -3.51  -238.655189    2             
iter:  18  16:17:04  -5.99  -3.59  -238.654091    2             
iter:  19  16:18:07  -5.92  -3.70  -238.654771    2             
iter:  20  16:19:10  -6.58  -3.71  -238.654645    2             
iter:  21  16:20:13  -6.95  -3.93  -238.654737    2             
iter:  22  16:21:15  -6.71  -4.07  -238.654956    2             
iter:  23  16:22:18  -7.38  -4.40  -238.654805    2             
iter:  24  16:23:21  -7.15  -4.39  -238.655006    2             
iter:  25  16:24:23  -7.45  -4.50  -238.654985    2             

Converged after 25 iterations.

Dipole moment: (27.233824, 19.992543, -0.036306) |e|*Ang

Energy contributions relative to reference atoms: (reference = -12877860.274276)

Kinetic:       -228.817652
Potential:     +103.463932
External:        +0.000000
XC:            -105.346635
Entropy (-ST):   -2.258353
Local:           -6.825454
--------------------------
Free energy:   -239.784162
Extrapolated:  -238.654985

Fermi level: 1.04266

Showing only first 2 kpts
 Kpt  Band  Eigenvalues  Occupancy
  0   360      1.03137    0.13205
  0   361      1.05687    0.11613
  0   362      1.08069    0.10151
  0   363      1.10899    0.08500

  1   360      0.94756    0.18033
  1   361      0.95623    0.17589
  1   362      1.01819    0.14022
  1   363      1.02683    0.13487



Forces in eV/Ang:
  0 Pd   -0.12508    0.32384   -0.35611
  1 Ir    0.95129    0.68726    0.61155
  2 Ru   -1.07521    0.28874    0.68351
  3 Ru    0.43452    0.30261    1.63775
  4 Ir   -0.56580   -0.78267    1.16148
  5 Pt    0.14082    0.15610    0.05717
  6 Pd   -0.49688   -0.41796   -0.24324
  7 Pd    0.38258   -0.26177   -0.57664
  8 Ru    0.35028   -0.15028    0.55192
  9 Ag   -0.24179   -0.08660    0.06414
 10 Ag   -0.02375   -0.10931    0.06136
 11 Ag    0.07149   -0.16240   -0.14678
 12 Pt    0.07993    0.74861   -0.54599
 13 Pt    0.11427    0.54633   -0.73514
 14 Pt   -0.09705    0.17794   -0.18320
 15 Ru   -0.41610   -0.74681   -0.99281
 16 Pt   -0.38732    0.18825   -0.13827
 17 Ir    0.87147   -0.09481   -1.04747
 18 Pt   -0.00502   -0.04457    0.05402
 19 Ag    0.00018   -0.02721    0.00547
 20 Pd   -0.00040   -0.02345   -0.00091
 21 Ag   -0.01478   -0.05259    0.02151
 22 Ru   -0.01434   -0.04194    0.03399
 23 Pd    0.00260   -0.03037    0.00713
 24 Ir    0.01209    0.01815    0.03587
 25 Ir   -0.01370   -0.00060    0.02843
 26 Pt    0.01577   -0.02004    0.00411
 27 Ir    0.02591   -0.01894   -0.00743
 28 Pd    0.03429   -0.20401    0.23820
 29 Ag   -0.02612   -0.03308   -0.02551
 30 Pd    0.07136   -0.02669   -0.04253
 31 Pd    0.00821    0.02014   -0.06026
 32 Pd   -0.03491   -0.04906   -0.03025
 33 Ru    0.03619   -0.03353    0.00978
 34 Pd    0.16272    0.02554    0.22961
 35 Ir   -0.09884   -0.00858    0.05529
 36 Ir    0.02904   -0.11975   -0.04249
 37 Pt    0.05903    0.08175   -0.63410
 38 Ag    0.09185    0.00542   -0.06332
 39 Pd    0.00706   -0.00610   -0.05960
 40 Pd   -0.01665   -0.04395   -0.02405
 41 Ir   -0.05451   -0.07144   -0.01970
 42 Ag   -0.05060   -0.06941   -0.00102
 43 Ir    0.04959    0.14442   -0.04034
 44 Ir   -0.03437    0.08056    0.00689
 45 O     0.00253    0.06044    0.98808
 46 H    -0.21332   -0.17132   -0.49099

System changes: positions 

Initializing position-dependent things.

Density initialized from wave functions
                                             
                                             
                                             
                                             
                                             
                                             
                                             
                                             
              O HAg      Ir    Ir            
            Pd      Pd                       
                   Ru     PIr   Ir           
        Ir    Pt    PAg    Pd                
                                             
        Ir     Pd    IAg    Ir     Pt        
                Ag                           
                       Ru     Pd             
           Pt     Ag    PPd    Ir            
                                             
            Pt     Pt    PPt    Ru           
       Ag     Ag     Ag                      
              Ru    Ir     Pt                
         Pd    Ir     Ru                     
                                             
                                             
                                             
                                             
                                             

Positions:
   0 Pd     0.000000    1.624086   10.000000    ( 0.0000,  0.0000,  0.0000)
   1 Ir     2.812999    1.624086   10.000000    ( 0.0000,  0.0000,  0.0000)
   2 Ru     5.625998    1.624086   10.000000    ( 0.0000,  0.0000,  0.0000)
   3 Ru     1.406500    4.060215   10.000000    ( 0.0000,  0.0000,  0.0000)
   4 Ir     4.219499    4.060215   10.000000    ( 0.0000,  0.0000,  0.0000)
   5 Pt     7.032498    4.060215   10.000000    ( 0.0000,  0.0000,  0.0000)
   6 Pd     2.812999    6.496343   10.000000    ( 0.0000,  0.0000,  0.0000)
   7 Pd     5.625998    6.496343   10.000000    ( 0.0000,  0.0000,  0.0000)
   8 Ru     8.438997    6.496343   10.000000    ( 0.0000,  0.0000,  0.0000)
   9 Ag     0.000000    0.000000   12.296804    ( 0.0000,  0.0000,  0.0000)
  10 Ag     2.812999    0.000000   12.296804    ( 0.0000,  0.0000,  0.0000)
  11 Ag     5.625998    0.000000   12.296804    ( 0.0000,  0.0000,  0.0000)
  12 Pt     1.406500    2.436129   12.296804    ( 0.0000,  0.0000,  0.0000)
  13 Pt     4.219499    2.436129   12.296804    ( 0.0000,  0.0000,  0.0000)
  14 Pt     7.032498    2.436129   12.296804    ( 0.0000,  0.0000,  0.0000)
  15 Ru     2.812999    4.872257   12.296804    ( 0.0000,  0.0000,  0.0000)
  16 Pt     5.625998    4.872257   12.296804    ( 0.0000,  0.0000,  0.0000)
  17 Ir     8.438997    4.872257   12.296804    ( 0.0000,  0.0000,  0.0000)
  18 Pt     1.331864    0.730331   14.668092    ( 0.0000,  0.0000,  0.0000)
  19 Ag     4.180713    0.783201   14.649112    ( 0.0000,  0.0000,  0.0000)
  20 Pd     7.000174    0.850316   14.623269    ( 0.0000,  0.0000,  0.0000)
  21 Ag     2.797302    3.190267   14.646341    ( 0.0000,  0.0000,  0.0000)
  22 Ru     5.657746    3.366994   14.467450    ( 0.0000,  0.0000,  0.0000)
  23 Pd     8.447734    3.199996   14.574799    ( 0.0000,  0.0000,  0.0000)
  24 Ir     4.204603    5.611493   14.570813    ( 0.0000,  0.0000,  0.0000)
  25 Ir     7.026786    5.574407   14.574884    ( 0.0000,  0.0000,  0.0000)
  26 Pt     9.870761    5.660800   14.589995    ( 0.0000,  0.0000,  0.0000)
  27 Ir    -0.070921    1.507141   16.936185    ( 0.0000,  0.0000,  0.0000)
  28 Pd     2.751305    1.541957   17.024721    ( 0.0000,  0.0000,  0.0000)
  29 Ag     5.524279    1.587082   16.913643    ( 0.0000,  0.0000,  0.0000)
  30 Pd     1.410198    4.030777   16.963311    ( 0.0000,  0.0000,  0.0000)
  31 Pd     4.190438    4.105948   16.879957    ( 0.0000,  0.0000,  0.0000)
  32 Pd     7.007322    3.963709   16.735436    ( 0.0000,  0.0000,  0.0000)
  33 Ru     2.851375    6.538076   16.760513    ( 0.0000,  0.0000,  0.0000)
  34 Pd     5.713253    6.465813   16.860284    ( 0.0000,  0.0000,  0.0000)
  35 Ir     8.517557    6.362290   16.928641    ( 0.0000,  0.0000,  0.0000)
  36 Ir     0.042300   -0.069695   18.962753    ( 0.0000,  0.0000,  0.0000)
  37 Pt     2.856770   -0.037828   19.261662    ( 0.0000,  0.0000,  0.0000)
  38 Ag     5.692288    0.014449   19.389720    ( 0.0000,  0.0000,  0.0000)
  39 Pd     1.342782    2.378029   19.269763    ( 0.0000,  0.0000,  0.0000)
  40 Pd     4.318020    2.522314   19.245500    ( 0.0000,  0.0000,  0.0000)
  41 Ir     7.162761    2.495731   19.016689    ( 0.0000,  0.0000,  0.0000)
  42 Ag     2.798730    4.879824   19.380083    ( 0.0000,  0.0000,  0.0000)
  43 Ir     5.696865    4.913461   19.024536    ( 0.0000,  0.0000,  0.0000)
  44 Ir     8.276175    4.833129   18.996131    ( 0.0000,  0.0000,  0.0000)
  45 O      2.759387   -0.130024   21.386015    ( 0.0000,  0.0000,  0.0000)
  46 H      3.435872    0.553154   21.693415    ( 0.0000,  0.0000,  0.0000)

Unit cell:
           periodic     x           y           z      points  spacing
  1. axis:    yes    8.465341    0.000000    0.000000    35     0.2095
  2. axis:    yes    4.232670    7.331200    0.000000    35     0.2095
  3. axis:    no     0.000000    0.000000   29.187217   135     0.2162

  Lengths:   8.465341   8.465341  29.187217
  Angles:   90.000000  90.000000  60.000000

Effective grid spacing dv^(1/3) = 0.2221

                     log10-error:    total        iterations:
           time      wfs    density  energy       fermi  poisson
iter:   1  16:25:55  -2.04   +inf  -241.347908    3             
iter:   2  16:26:58  -1.59  -1.97  -312.064365    36            
iter:   3  16:28:01  -2.04  -1.30  -240.133776    32            
iter:   4  16:29:04  -2.67  -2.11  -239.410147    3             
iter:   5  16:30:08  -3.32  -2.23  -238.861106    3             
iter:   6  16:31:11  -3.75  -2.60  -238.783113    3             
iter:   7  16:32:16  -4.06  -2.57  -238.722360    2             
iter:   8  16:33:19  -4.56  -2.78  -238.674124    3             
iter:   9  16:34:22  -4.80  -3.04  -238.675623    2             
iter:  10  16:35:25  -4.50  -2.92  -238.665282    3             
iter:  11  16:36:28  -4.55  -3.04  -238.673973    3             
iter:  12  16:37:30  -4.54  -3.05  -238.654917    3             
iter:  13  16:38:32  -5.41  -3.31  -238.656085    2             
iter:  14  16:39:35  -5.89  -3.37  -238.653596    2             
iter:  15  16:40:37  -5.75  -3.49  -238.653503    2             
iter:  16  16:41:38  -5.93  -3.56  -238.655101    2             
iter:  17  16:42:41  -5.73  -3.42  -238.655799    2             
iter:  18  16:43:43  -6.26  -3.54  -238.653036    2             
iter:  19  16:44:46  -6.02  -3.79  -238.655056    2             
iter:  20  16:45:47  -6.33  -3.57  -238.653475    2             
iter:  21  16:46:51  -6.12  -3.94  -238.653653    2             
iter:  22  16:47:56  -6.68  -4.02  -238.653835    2             
iter:  23  16:49:00  -6.99  -3.81  -238.653473    2             
iter:  24  16:50:04  -6.41  -4.11  -238.652566    2             
iter:  25  16:51:08  -6.90  -3.83  -238.653215    2             
iter:  26  16:52:13  -7.28  -4.23  -238.652954    2             
iter:  27  16:53:20  -7.54  -4.39  -238.652955    2             

Converged after 27 iterations.

Dipole moment: (27.999372, 21.214500, -0.187212) |e|*Ang

Energy contributions relative to reference atoms: (reference = -12877860.274276)

Kinetic:       -232.274343
Potential:     +106.376093
External:        +0.000000
XC:            -104.765499
Entropy (-ST):   -2.256874
Local:           -6.860769
--------------------------
Free energy:   -239.781392
Extrapolated:  -238.652955

Fermi level: 0.97763

Showing only first 2 kpts
 Kpt  Band  Eigenvalues  Occupancy
  0   360      0.97270    0.12808
  0   361      0.99013    0.11720
  0   362      1.01656    0.10097
  0   363      1.04349    0.08526

  1   360      0.88313    0.18003
  1   361      0.89343    0.17472
  1   362      0.95038    0.14193
  1   363      0.96143    0.13510



Forces in eV/Ang:
  0 Pd   -0.12402    0.32473   -0.35471
  1 Ir    0.95422    0.68898    0.61654
  2 Ru   -1.07801    0.29165    0.69037
  3 Ru    0.43375    0.30555    1.65448
  4 Ir   -0.56625   -0.78808    1.16781
  5 Pt    0.13823    0.15445    0.05910
  6 Pd   -0.49952   -0.41935   -0.24299
  7 Pd    0.38409   -0.26286   -0.57087
  8 Ru    0.35097   -0.14728    0.55480
  9 Ag   -0.23173   -0.08425    0.07924
 10 Ag   -0.03109   -0.11369    0.08840
 11 Ag    0.07003   -0.16337   -0.14244
 12 Pt    0.07494    0.74307   -0.53809
 13 Pt    0.11353    0.54544   -0.71621
 14 Pt   -0.10153    0.17743   -0.16706
 15 Ru   -0.40018   -0.75256   -0.97203
 16 Pt   -0.37845    0.17077   -0.08134
 17 Ir    0.85892   -0.10468   -1.02280
 18 Pt    0.02114   -0.07245    0.09672
 19 Ag   -0.02478   -0.02700    0.00884
 20 Pd    0.00582   -0.01775    0.01260
 21 Ag    0.00738   -0.07936    0.04833
 22 Ru   -0.00741    0.01730   -0.04360
 23 Pd    0.00735   -0.01049   -0.01049
 24 Ir    0.04408    0.00094    0.05967
 25 Ir   -0.02851   -0.02082    0.01296
 26 Pt   -0.03071   -0.01269    0.05647
 27 Ir   -0.03764    0.00125    0.01582
 28 Pd    0.09184    0.15737   -0.10467
 29 Ag    0.01968   -0.03293   -0.03190
 30 Pd   -0.03801   -0.00818    0.01188
 31 Pd    0.03791    0.00193    0.00039
 32 Pd    0.03128   -0.09621    0.04922
 33 Ru    0.04084   -0.02188   -0.01461
 34 Pd   -0.10392   -0.12095   -0.31965
 35 Ir    0.10766   -0.01442   -0.04003
 36 Ir    0.00191   -0.02227    0.10354
 37 Pt   -0.08813   -0.22100    0.96880
 38 Ag    0.03971   -0.01221   -0.02549
 39 Pd   -0.09179    0.01001    0.00067
 40 Pd    0.03843    0.02374   -0.01878
 41 Ir    0.04351    0.09141   -0.01206
 42 Ag   -0.02374   -0.07188    0.01136
 43 Ir   -0.01103   -0.01791    0.13314
 44 Ir   -0.00202   -0.11408    0.02301
 45 O     0.56897    0.59093   -0.79014
 46 H    -0.60479   -0.56958   -0.25762

System changes: positions 

Initializing position-dependent things.

Density initialized from wave functions
                                             
                                             
                                             
                                             
                                             
                                             
                                             
                                             
                HAg      Ir    Ir            
            PdO     Pd                       
                   Ru     PIr   Ir           
        Ir    Pt    PAg    Pd                
                                             
        Ir     Pd    IAg    Ir     Pt        
                Ag                           
                       Ru     Pd             
           Pt     Ag    PPd    Ir            
                                             
            Pt     Pt    PPt    Ru           
       Ag     Ag     Ag                      
              Ru    Ir     Pt                
         Pd    Ir     Ru                     
                                             
                                             
                                             
                                             
                                             

Positions:
   0 Pd     0.000000    1.624086   10.000000    ( 0.0000,  0.0000,  0.0000)
   1 Ir     2.812999    1.624086   10.000000    ( 0.0000,  0.0000,  0.0000)
   2 Ru     5.625998    1.624086   10.000000    ( 0.0000,  0.0000,  0.0000)
   3 Ru     1.406500    4.060215   10.000000    ( 0.0000,  0.0000,  0.0000)
   4 Ir     4.219499    4.060215   10.000000    ( 0.0000,  0.0000,  0.0000)
   5 Pt     7.032498    4.060215   10.000000    ( 0.0000,  0.0000,  0.0000)
   6 Pd     2.812999    6.496343   10.000000    ( 0.0000,  0.0000,  0.0000)
   7 Pd     5.625998    6.496343   10.000000    ( 0.0000,  0.0000,  0.0000)
   8 Ru     8.438997    6.496343   10.000000    ( 0.0000,  0.0000,  0.0000)
   9 Ag     0.000000    0.000000   12.296804    ( 0.0000,  0.0000,  0.0000)
  10 Ag     2.812999    0.000000   12.296804    ( 0.0000,  0.0000,  0.0000)
  11 Ag     5.625998    0.000000   12.296804    ( 0.0000,  0.0000,  0.0000)
  12 Pt     1.406500    2.436129   12.296804    ( 0.0000,  0.0000,  0.0000)
  13 Pt     4.219499    2.436129   12.296804    ( 0.0000,  0.0000,  0.0000)
  14 Pt     7.032498    2.436129   12.296804    ( 0.0000,  0.0000,  0.0000)
  15 Ru     2.812999    4.872257   12.296804    ( 0.0000,  0.0000,  0.0000)
  16 Pt     5.625998    4.872257   12.296804    ( 0.0000,  0.0000,  0.0000)
  17 Ir     8.438997    4.872257   12.296804    ( 0.0000,  0.0000,  0.0000)
  18 Pt     1.332151    0.733660   14.663969    ( 0.0000,  0.0000,  0.0000)
  19 Ag     4.180752    0.785745   14.648417    ( 0.0000,  0.0000,  0.0000)
  20 Pd     7.000307    0.852735   14.623125    ( 0.0000,  0.0000,  0.0000)
  21 Ag     2.798535    3.194002   14.645117    ( 0.0000,  0.0000,  0.0000)
  22 Ru     5.658913    3.370332   14.465011    ( 0.0000,  0.0000,  0.0000)
  23 Pd     8.448181    3.202636   14.573857    ( 0.0000,  0.0000,  0.0000)
  24 Ir     4.203908    5.610587   14.568590    ( 0.0000,  0.0000,  0.0000)
  25 Ir     7.028022    5.574714   14.571839    ( 0.0000,  0.0000,  0.0000)
  26 Pt     9.868513    5.662499   14.590593    ( 0.0000,  0.0000,  0.0000)
  27 Ir    -0.073379    1.508424   16.936876    ( 0.0000,  0.0000,  0.0000)
  28 Pd     2.749065    1.559173   17.007218    ( 0.0000,  0.0000,  0.0000)
  29 Ag     5.526775    1.589786   16.915487    ( 0.0000,  0.0000,  0.0000)
  30 Pd     1.404945    4.032555   16.966796    ( 0.0000,  0.0000,  0.0000)
  31 Pd     4.189644    4.104861   16.884696    ( 0.0000,  0.0000,  0.0000)
  32 Pd     7.009568    3.966799   16.737570    ( 0.0000,  0.0000,  0.0000)
  33 Ru     2.848652    6.540290   16.759238    ( 0.0000,  0.0000,  0.0000)
  34 Pd     5.698494    6.462490   16.839678    ( 0.0000,  0.0000,  0.0000)
  35 Ir     8.527191    6.364081   16.924258    ( 0.0000,  0.0000,  0.0000)
  36 Ir     0.042001   -0.058919   18.967311    ( 0.0000,  0.0000,  0.0000)
  37 Pt     2.848520   -0.048152   19.289347    ( 0.0000,  0.0000,  0.0000)
  38 Ag     5.683985    0.014003   19.395071    ( 0.0000,  0.0000,  0.0000)
  39 Pd     1.342884    2.378490   19.274323    ( 0.0000,  0.0000,  0.0000)
  40 Pd     4.318820    2.524678   19.248082    ( 0.0000,  0.0000,  0.0000)
  41 Ir     7.167182    2.501988   19.017971    ( 0.0000,  0.0000,  0.0000)
  42 Ag     2.802733    4.885009   19.380238    ( 0.0000,  0.0000,  0.0000)
  43 Ir     5.693885    4.904338   19.028599    ( 0.0000,  0.0000,  0.0000)
  44 Ir     8.278660    4.829163   18.996114    ( 0.0000,  0.0000,  0.0000)
  45 O      2.780319   -0.112868   21.342227    ( 0.0000,  0.0000,  0.0000)
  46 H      3.431953    0.545012   21.721012    ( 0.0000,  0.0000,  0.0000)

Unit cell:
           periodic     x           y           z      points  spacing
  1. axis:    yes    8.465341    0.000000    0.000000    35     0.2095
  2. axis:    yes    4.232670    7.331200    0.000000    35     0.2095
  3. axis:    no     0.000000    0.000000   29.187217   135     0.2162

  Lengths:   8.465341   8.465341  29.187217
  Angles:   90.000000  90.000000  60.000000

Effective grid spacing dv^(1/3) = 0.2221

                     log10-error:    total        iterations:
           time      wfs    density  energy       fermi  poisson
iter:   1  16:55:03  -2.62   +inf  -240.102670    3             
iter:   2  16:56:07  -1.81  -2.09  -290.656821    29            
iter:   3  16:57:11  -2.27  -1.38  -240.708395    37            
iter:   4  16:58:16  -2.93  -2.03  -238.915778    3             
iter:   5  16:59:20  -3.78  -2.50  -238.729601    3             
iter:   6  17:00:24  -4.30  -2.97  -238.736736    3             
iter:   7  17:01:28  -4.72  -2.86  -238.712482    2             
iter:   8  17:02:32  -5.22  -3.16  -238.707318    2             
iter:   9  17:03:37  -5.24  -3.31  -238.714071    2             
iter:  10  17:04:41  -4.82  -3.11  -238.706225    2             
iter:  11  17:05:46  -5.15  -3.49  -238.704651    3             
iter:  12  17:06:50  -5.18  -3.30  -238.705205    3             
iter:  13  17:07:55  -6.04  -3.50  -238.703167    2             
iter:  14  17:08:59  -6.30  -3.71  -238.702827    2             
iter:  15  17:10:04  -6.45  -3.82  -238.703566    2             
iter:  16  17:11:09  -6.58  -3.62  -238.702500    2             
iter:  17  17:12:13  -6.15  -3.91  -238.701803    2             
iter:  18  17:13:17  -6.42  -3.77  -238.703163    2             
iter:  19  17:14:22  -6.06  -3.91  -238.702108    2             
iter:  20  17:15:26  -6.69  -4.03  -238.702128    2             
iter:  21  17:16:30  -6.99  -4.06  -238.702209    2             
iter:  22  17:17:34  -7.36  -4.19  -238.702165    2             
iter:  23  17:18:39  -7.63  -4.26  -238.702158    2             

Converged after 23 iterations.

Dipole moment: (27.644568, 20.653592, -0.114137) |e|*Ang

Energy contributions relative to reference atoms: (reference = -12877860.274276)

Kinetic:       -230.880915
Potential:     +105.200764
External:        +0.000000
XC:            -105.042000
Entropy (-ST):   -2.257647
Local:           -6.851183
--------------------------
Free energy:   -239.830982
Extrapolated:  -238.702158

Fermi level: 1.00936

Showing only first 2 kpts
 Kpt  Band  Eigenvalues  Occupancy
  0   360      1.00142    0.12996
  0   361      1.02264    0.11671
  0   362      1.04791    0.10120
  0   363      1.07539    0.08517

  1   360      0.91435    0.18028
  1   361      0.92395    0.17536
  1   362      0.98370    0.14095
  1   363      0.99314    0.13512



Forces in eV/Ang:
  0 Pd   -0.12463    0.32510   -0.35367
  1 Ir    0.95384    0.68957    0.61728
  2 Ru   -1.07740    0.29131    0.68925
  3 Ru    0.43450    0.30349    1.64771
  4 Ir   -0.56632   -0.78618    1.16800
  5 Pt    0.13951    0.15432    0.06110
  6 Pd   -0.49828   -0.41955   -0.24190
  7 Pd    0.38296   -0.26266   -0.57271
  8 Ru    0.35062   -0.14835    0.55554
  9 Ag   -0.23601   -0.08561    0.07364
 10 Ag   -0.02802   -0.11134    0.07924
 11 Ag    0.07019   -0.16256   -0.14276
 12 Pt    0.07778    0.74611   -0.53807
 13 Pt    0.11266    0.54796   -0.72328
 14 Pt   -0.09836    0.17953   -0.17499
 15 Ru   -0.40684   -0.75225   -0.98252
 16 Pt   -0.38332    0.17901   -0.10725
 17 Ir    0.86342   -0.10131   -1.03249
 18 Pt    0.00479   -0.05639    0.07018
 19 Ag   -0.00692   -0.02738    0.00586
 20 Pd    0.00041   -0.01887    0.00971
 21 Ag   -0.00357   -0.06385    0.03538
 22 Ru   -0.01167   -0.01145   -0.00505
 23 Pd    0.00567   -0.01857   -0.00031
 24 Ir    0.02903    0.00821    0.04944
 25 Ir   -0.01841   -0.01322    0.01827
 26 Pt   -0.00883   -0.01449    0.03896
 27 Ir   -0.01472    0.00279    0.00696
 28 Pd    0.05707   -0.01546    0.06680
 29 Ag    0.00750   -0.02940   -0.03237
 30 Pd    0.01083   -0.01272   -0.01336
 31 Pd    0.02419    0.00837   -0.02885
 32 Pd    0.00186   -0.08164    0.01313
 33 Ru    0.02845   -0.02771   -0.00495
 34 Pd    0.01781   -0.04985   -0.04941
 35 Ir    0.01704   -0.02128   -0.00379
 36 Ir    0.01919   -0.05950    0.04794
 37 Pt   -0.01065   -0.04909    0.23928
 38 Ag    0.05680   -0.00340   -0.02691
 39 Pd   -0.04272   -0.00142   -0.01072
 40 Pd    0.00501   -0.01386    0.00182
 41 Ir   -0.00107    0.01551   -0.01771
 42 Ag   -0.04174   -0.07315    0.01161
 43 Ir    0.02531    0.05700    0.06119
 44 Ir   -0.01323   -0.02441    0.03498
 45 O     0.13206    0.20238    0.11032
 46 H    -0.33767   -0.29879   -0.34358

System changes: positions 

Initializing position-dependent things.

Density initialized from wave functions
                                             
                                             
                                             
                                             
                                             
                                             
                                             
                                             
                HAg      Ir    Ir            
            PdO     Pd                       
                   Ru     PIr   Ir           
        Ir    Pt    PAg    Pd                
                                             
        Ir     Pd    IAg    Ir     Pt        
                Ag                           
                       Ru     Pd             
           Pt     Ag    PPd    Ir            
                                             
            Pt     Pt    PPt    Ru           
       Ag     Ag     Ag                      
              Ru    Ir     Pt                
         Pd    Ir     Ru                     
                                             
                                             
                                             
                                             
                                             

Positions:
   0 Pd     0.000000    1.624086   10.000000    ( 0.0000,  0.0000,  0.0000)
   1 Ir     2.812999    1.624086   10.000000    ( 0.0000,  0.0000,  0.0000)
   2 Ru     5.625998    1.624086   10.000000    ( 0.0000,  0.0000,  0.0000)
   3 Ru     1.406500    4.060215   10.000000    ( 0.0000,  0.0000,  0.0000)
   4 Ir     4.219499    4.060215   10.000000    ( 0.0000,  0.0000,  0.0000)
   5 Pt     7.032498    4.060215   10.000000    ( 0.0000,  0.0000,  0.0000)
   6 Pd     2.812999    6.496343   10.000000    ( 0.0000,  0.0000,  0.0000)
   7 Pd     5.625998    6.496343   10.000000    ( 0.0000,  0.0000,  0.0000)
   8 Ru     8.438997    6.496343   10.000000    ( 0.0000,  0.0000,  0.0000)
   9 Ag     0.000000    0.000000   12.296804    ( 0.0000,  0.0000,  0.0000)
  10 Ag     2.812999    0.000000   12.296804    ( 0.0000,  0.0000,  0.0000)
  11 Ag     5.625998    0.000000   12.296804    ( 0.0000,  0.0000,  0.0000)
  12 Pt     1.406500    2.436129   12.296804    ( 0.0000,  0.0000,  0.0000)
  13 Pt     4.219499    2.436129   12.296804    ( 0.0000,  0.0000,  0.0000)
  14 Pt     7.032498    2.436129   12.296804    ( 0.0000,  0.0000,  0.0000)
  15 Ru     2.812999    4.872257   12.296804    ( 0.0000,  0.0000,  0.0000)
  16 Pt     5.625998    4.872257   12.296804    ( 0.0000,  0.0000,  0.0000)
  17 Ir     8.438997    4.872257   12.296804    ( 0.0000,  0.0000,  0.0000)
  18 Pt     1.332504    0.726975   14.672411    ( 0.0000,  0.0000,  0.0000)
  19 Ag     4.180057    0.782040   14.649354    ( 0.0000,  0.0000,  0.0000)
  20 Pd     7.000299    0.849912   14.624139    ( 0.0000,  0.0000,  0.0000)
  21 Ag     2.797697    3.186479   14.648935    ( 0.0000,  0.0000,  0.0000)
  22 Ru     5.657330    3.367877   14.465447    ( 0.0000,  0.0000,  0.0000)
  23 Pd     8.448456    3.199773   14.574225    ( 0.0000,  0.0000,  0.0000)
  24 Ir     4.206891    5.611630   14.574161    ( 0.0000,  0.0000,  0.0000)
  25 Ir     7.025734    5.573269   14.575050    ( 0.0000,  0.0000,  0.0000)
  26 Pt     9.868746    5.660368   14.593914    ( 0.0000,  0.0000,  0.0000)
  27 Ir    -0.073626    1.508115   16.937308    ( 0.0000,  0.0000,  0.0000)
  28 Pd     2.755307    1.550943   17.020080    ( 0.0000,  0.0000,  0.0000)
  29 Ag     5.526358    1.585828   16.911687    ( 0.0000,  0.0000,  0.0000)
  30 Pd     1.408007    4.030578   16.964155    ( 0.0000,  0.0000,  0.0000)
  31 Pd     4.192313    4.105987   16.880098    ( 0.0000,  0.0000,  0.0000)
  32 Pd     7.008936    3.957987   16.737974    ( 0.0000,  0.0000,  0.0000)
  33 Ru     2.852467    6.536857   16.759358    ( 0.0000,  0.0000,  0.0000)
  34 Pd     5.706299    6.459259   16.843349    ( 0.0000,  0.0000,  0.0000)
  35 Ir     8.524579    6.361235   16.925746    ( 0.0000,  0.0000,  0.0000)
  36 Ir     0.043969   -0.068996   18.970004    ( 0.0000,  0.0000,  0.0000)
  37 Pt     2.850907   -0.048602   19.308121    ( 0.0000,  0.0000,  0.0000)
  38 Ag     5.692881    0.013811   19.390337    ( 0.0000,  0.0000,  0.0000)
  39 Pd     1.338508    2.377983   19.271505    ( 0.0000,  0.0000,  0.0000)
  40 Pd     4.319104    2.522602   19.247023    ( 0.0000,  0.0000,  0.0000)
  41 Ir     7.165326    2.500885   19.015839    ( 0.0000,  0.0000,  0.0000)
  42 Ag     2.797114    4.876030   19.381189    ( 0.0000,  0.0000,  0.0000)
  43 Ir     5.697617    4.913356   19.032875    ( 0.0000,  0.0000,  0.0000)
  44 Ir     8.276301    4.828159   18.999540    ( 0.0000,  0.0000,  0.0000)
  45 O      2.764240   -0.121284   21.347563    ( 0.0000,  0.0000,  0.0000)
  46 H      3.422162    0.541032   21.691187    ( 0.0000,  0.0000,  0.0000)

Unit cell:
           periodic     x           y           z      points  spacing
  1. axis:    yes    8.465341    0.000000    0.000000    35     0.2095
  2. axis:    yes    4.232670    7.331200    0.000000    35     0.2095
  3. axis:    no     0.000000    0.000000   29.187217   135     0.2162

  Lengths:   8.465341   8.465341  29.187217
  Angles:   90.000000  90.000000  60.000000

Effective grid spacing dv^(1/3) = 0.2221

                     log10-error:    total        iterations:
           time      wfs    density  energy       fermi  poisson
iter:   1  17:20:14  -3.12   +inf  -238.823814    2             
iter:   2  17:21:19  -2.99  -2.66  -243.581528    3             
iter:   3  17:22:23  -3.25  -1.81  -238.738912    3             
iter:   4  17:23:27  -4.45  -3.11  -238.725490    3             
iter:   5  17:24:37  -5.22  -3.24  -238.724207    3             
iter:   6  17:25:41  -5.48  -3.42  -238.722092    2             
iter:   7  17:26:45  -5.41  -3.51  -238.722366    2             
iter:   8  17:27:48  -5.36  -3.64  -238.731312    2             
iter:   9  17:28:53  -5.45  -3.07  -238.722877    2             
iter:  10  17:29:57  -6.07  -3.55  -238.721105    2             
iter:  11  17:31:00  -6.35  -3.86  -238.722083    2             
iter:  12  17:32:04  -6.55  -3.84  -238.721173    2             
iter:  13  17:33:08  -6.84  -3.89  -238.721471    2             
iter:  14  17:34:12  -6.78  -3.99  -238.721098    2             
iter:  15  17:35:17  -6.95  -3.89  -238.721643    2             
iter:  16  17:36:21  -6.99  -3.89  -238.721154    2             
iter:  17  17:37:25  -7.15  -4.18  -238.721491    2             
iter:  18  17:38:30  -7.19  -4.20  -238.721101    2             
iter:  19  17:39:46  -7.30  -4.29  -238.721292    2             
iter:  20  17:40:51  -7.38  -4.44  -238.721145    2             
iter:  21  17:41:55  -7.66  -4.34  -238.721368    2             

Converged after 21 iterations.

Dipole moment: (28.080959, 21.142871, -0.119672) |e|*Ang

Energy contributions relative to reference atoms: (reference = -12877860.274276)

Kinetic:       -230.913775
Potential:     +105.261923
External:        +0.000000
XC:            -105.077495
Entropy (-ST):   -2.254398
Local:           -6.864823
--------------------------
Free energy:   -239.848567
Extrapolated:  -238.721368

Fermi level: 1.00650

Showing only first 2 kpts
 Kpt  Band  Eigenvalues  Occupancy
  0   360      0.99931    0.12950
  0   361      1.01970    0.11676
  0   362      1.04329    0.10226
  0   363      1.07180    0.08558

  1   360      0.91274    0.17966
  1   361      0.92121    0.17529
  1   362      0.97933    0.14188
  1   363      0.99027    0.13513



Forces in eV/Ang:
  0 Pd   -0.12355    0.32533   -0.35925
  1 Ir    0.95078    0.69100    0.60977
  2 Ru   -1.07473    0.29297    0.68164
  3 Ru    0.43564    0.30661    1.64808
  4 Ir   -0.56665   -0.78483    1.16351
  5 Pt    0.13992    0.15433    0.05694
  6 Pd   -0.49837   -0.41914   -0.24601
  7 Pd    0.38296   -0.26256   -0.57643
  8 Ru    0.35251   -0.15242    0.54911
  9 Ag   -0.22810   -0.08430    0.08985
 10 Ag   -0.03437   -0.11280    0.08728
 11 Ag    0.07043   -0.17130   -0.13764
 12 Pt    0.07812    0.73865   -0.53361
 13 Pt    0.10786    0.54923   -0.72176
 14 Pt   -0.09824    0.17880   -0.17303
 15 Ru   -0.40568   -0.75553   -0.95817
 16 Pt   -0.38495    0.17275   -0.09236
 17 Ir    0.86237   -0.10344   -1.01812
 18 Pt    0.00767   -0.01329    0.02489
 19 Ag   -0.01238   -0.03056   -0.00681
 20 Pd    0.00739   -0.02216   -0.00605
 21 Ag    0.00187   -0.03941    0.01309
 22 Ru   -0.00227   -0.00620   -0.02232
 23 Pd    0.00788   -0.02085   -0.01740
 24 Ir   -0.00778   -0.02861   -0.01359
 25 Ir    0.00732   -0.03617   -0.00528
 26 Pt   -0.00290   -0.01995    0.00550
 27 Ir    0.00976   -0.06040    0.04999
 28 Pd    0.04588   -0.02129    0.05459
 29 Ag    0.00337   -0.03206   -0.01359
 30 Pd   -0.01449   -0.01104    0.00999
 31 Pd    0.03862   -0.01332    0.02914
 32 Pd    0.01185   -0.03704    0.02004
 33 Ru    0.03018   -0.01347    0.00789
 34 Pd    0.00953   -0.04851   -0.02912
 35 Ir    0.02885   -0.03371    0.02345
 36 Ir    0.02281   -0.02017   -0.02373
 37 Pt   -0.03157   -0.07596    0.08953
 38 Ag    0.02577   -0.01081   -0.02705
 39 Pd   -0.04425   -0.01996   -0.01534
 40 Pd    0.03474    0.00035   -0.01406
 41 Ir   -0.01822    0.01507    0.00658
 42 Ag   -0.01981   -0.05794    0.00489
 43 Ir   -0.05239   -0.01436    0.01798
 44 Ir    0.02676   -0.01980   -0.02717
 45 O     0.02003    0.04068    0.09247
 46 H    -0.19895   -0.16740   -0.12706

System changes: positions 

Initializing position-dependent things.

Density initialized from wave functions
                                             
                                             
                                             
                                             
                                             
                                             
                                             
                                             
              O HAg      Ir    Ir            
            Pd      Pd                       
                   Ru     PIr   Ir           
        Ir    Pt    PAg    Pd                
                                             
        Ir     Pd    IAg    Ir     Pt        
                Ag     Ru     Pd             
                                             
           Pt     Ag    PPd    Ir            
                                             
            Pt     Pt    PPt    Ru           
       Ag     Ag    IAg    Pt                
                                             
         Pd    Ir     Ru                     
                                             
                                             
                                             
                                             
                                             

Positions:
   0 Pd     0.000000    1.624086   10.000000    ( 0.0000,  0.0000,  0.0000)
   1 Ir     2.812999    1.624086   10.000000    ( 0.0000,  0.0000,  0.0000)
   2 Ru     5.625998    1.624086   10.000000    ( 0.0000,  0.0000,  0.0000)
   3 Ru     1.406500    4.060215   10.000000    ( 0.0000,  0.0000,  0.0000)
   4 Ir     4.219499    4.060215   10.000000    ( 0.0000,  0.0000,  0.0000)
   5 Pt     7.032498    4.060215   10.000000    ( 0.0000,  0.0000,  0.0000)
   6 Pd     2.812999    6.496343   10.000000    ( 0.0000,  0.0000,  0.0000)
   7 Pd     5.625998    6.496343   10.000000    ( 0.0000,  0.0000,  0.0000)
   8 Ru     8.438997    6.496343   10.000000    ( 0.0000,  0.0000,  0.0000)
   9 Ag     0.000000    0.000000   12.296804    ( 0.0000,  0.0000,  0.0000)
  10 Ag     2.812999    0.000000   12.296804    ( 0.0000,  0.0000,  0.0000)
  11 Ag     5.625998    0.000000   12.296804    ( 0.0000,  0.0000,  0.0000)
  12 Pt     1.406500    2.436129   12.296804    ( 0.0000,  0.0000,  0.0000)
  13 Pt     4.219499    2.436129   12.296804    ( 0.0000,  0.0000,  0.0000)
  14 Pt     7.032498    2.436129   12.296804    ( 0.0000,  0.0000,  0.0000)
  15 Ru     2.812999    4.872257   12.296804    ( 0.0000,  0.0000,  0.0000)
  16 Pt     5.625998    4.872257   12.296804    ( 0.0000,  0.0000,  0.0000)
  17 Ir     8.438997    4.872257   12.296804    ( 0.0000,  0.0000,  0.0000)
  18 Pt     1.333913    0.700233   14.706180    ( 0.0000,  0.0000,  0.0000)
  19 Ag     4.177278    0.767220   14.653102    ( 0.0000,  0.0000,  0.0000)
  20 Pd     7.000266    0.838624   14.628195    ( 0.0000,  0.0000,  0.0000)
  21 Ag     2.794345    3.156386   14.664204    ( 0.0000,  0.0000,  0.0000)
  22 Ru     5.651000    3.358055   14.467191    ( 0.0000,  0.0000,  0.0000)
  23 Pd     8.449552    3.188324   14.575695    ( 0.0000,  0.0000,  0.0000)
  24 Ir     4.218821    5.615803   14.596444    ( 0.0000,  0.0000,  0.0000)
[...]
  22 Ru     5.656642    3.363603   14.463445    ( 0.0000,  0.0000,  0.0000)
  23 Pd     8.449698    3.193811   14.572787    ( 0.0000,  0.0000,  0.0000)
  24 Ir     4.205225    5.604774   14.573354    ( 0.0000,  0.0000,  0.0000)
  25 Ir     7.026455    5.564802   14.576222    ( 0.0000,  0.0000,  0.0000)
  26 Pt     9.869803    5.654675   14.596053    ( 0.0000,  0.0000,  0.0000)
  27 Ir    -0.071569    1.499837   16.943824    ( 0.0000,  0.0000,  0.0000)
  28 Pd     2.764210    1.545797   17.030723    ( 0.0000,  0.0000,  0.0000)
  29 Ag     5.528870    1.577144   16.906586    ( 0.0000,  0.0000,  0.0000)
  30 Pd     1.407451    4.023977   16.963538    ( 0.0000,  0.0000,  0.0000)
  31 Pd     4.198575    4.100669   16.884677    ( 0.0000,  0.0000,  0.0000)
  32 Pd     7.012353    3.950377   16.739347    ( 0.0000,  0.0000,  0.0000)
  33 Ru     2.857991    6.530497   16.758310    ( 0.0000,  0.0000,  0.0000)
  34 Pd     5.710012    6.448222   16.836011    ( 0.0000,  0.0000,  0.0000)
  35 Ir     8.529928    6.355161   16.929097    ( 0.0000,  0.0000,  0.0000)
  36 Ir     0.049371   -0.081704   18.973127    ( 0.0000,  0.0000,  0.0000)
  37 Pt     2.845144   -0.065553   19.307274    ( 0.0000,  0.0000,  0.0000)
  38 Ag     5.700310    0.010093   19.382960    ( 0.0000,  0.0000,  0.0000)
  39 Pd     1.329382    2.372693   19.270217    ( 0.0000,  0.0000,  0.0000)
  40 Pd     4.327485    2.520389   19.242896    ( 0.0000,  0.0000,  0.0000)
  41 Ir     7.158053    2.503213   19.019463    ( 0.0000,  0.0000,  0.0000)
  42 Ag     2.790497    4.862197   19.383564    ( 0.0000,  0.0000,  0.0000)
  43 Ir     5.692432    4.912433   19.040210    ( 0.0000,  0.0000,  0.0000)
  44 Ir     8.278235    4.821686   18.998996    ( 0.0000,  0.0000,  0.0000)
  45 O      2.750955   -0.121635   21.337083    ( 0.0000,  0.0000,  0.0000)
  46 H      3.405196    0.537732   21.665188    ( 0.0000,  0.0000,  0.0000)

Unit cell:
           periodic     x           y           z      points  spacing
  1. axis:    yes    8.465341    0.000000    0.000000    35     0.2095
  2. axis:    yes    4.232670    7.331200    0.000000    35     0.2095
  3. axis:    no     0.000000    0.000000   29.187217   135     0.2162

  Lengths:   8.465341   8.465341  29.187217
  Angles:   90.000000  90.000000  60.000000

Effective grid spacing dv^(1/3) = 0.2221

                     log10-error:    total        iterations:
           time      wfs    density  energy       fermi  poisson
iter:   1  19:02:38  -3.54   +inf  -238.773774    3             
iter:   2  19:03:40  -3.37  -2.85  -240.502878    3             
iter:   3  19:04:42  -3.66  -2.04  -238.765552    3             
iter:   4  19:05:51  -4.50  -2.95  -238.735696    3             
iter:   5  19:07:04  -5.61  -3.32  -238.734508    3             
iter:   6  19:08:10  -6.00  -3.66  -238.733841    2             
iter:   7  19:09:12  -5.82  -3.74  -238.733370    2             
iter:   8  19:10:13  -5.90  -3.87  -238.733128    2             
iter:   9  19:11:15  -6.34  -4.02  -238.733120    2             
iter:  10  19:12:17  -6.66  -4.15  -238.732799    2             
iter:  11  19:13:19  -6.79  -4.07  -238.733902    2             
iter:  12  19:14:19  -7.01  -3.80  -238.733253    2             
iter:  13  19:15:20  -7.19  -4.17  -238.733000    2             
iter:  14  19:16:23  -7.41  -4.32  -238.733038    2             

Converged after 14 iterations.

Dipole moment: (28.720498, 21.988505, -0.118782) |e|*Ang

Energy contributions relative to reference atoms: (reference = -12877860.274276)

Kinetic:       -229.758073
Potential:     +104.330296
External:        +0.000000
XC:            -105.312840
Entropy (-ST):   -2.252461
Local:           -6.866190
--------------------------
Free energy:   -239.859269
Extrapolated:  -238.733038

Fermi level: 1.00812

Showing only first 2 kpts
 Kpt  Band  Eigenvalues  Occupancy
  0   360      1.00031    0.12987
  0   361      1.02173    0.11651
  0   362      1.04397    0.10283
  0   363      1.07262    0.08603

  1   360      0.91506    0.17930
  1   361      0.92223    0.17560
  1   362      0.97921    0.14294
  1   363      0.99313    0.13435



Forces in eV/Ang:
  0 Pd   -0.12392    0.32582   -0.35793
  1 Ir    0.95176    0.69350    0.61262
  2 Ru   -1.07597    0.29320    0.68402
  3 Ru    0.43575    0.30326    1.64374
  4 Ir   -0.56607   -0.78576    1.16489
  5 Pt    0.13989    0.15501    0.05600
  6 Pd   -0.49942   -0.41940   -0.24325
  7 Pd    0.38385   -0.26271   -0.57329
  8 Ru    0.35160   -0.15302    0.55470
  9 Ag   -0.21863   -0.08599    0.10800
 10 Ag   -0.04306   -0.11853    0.10054
 11 Ag    0.07131   -0.17528   -0.12379
 12 Pt    0.08819    0.73485   -0.52562
 13 Pt    0.09894    0.53886   -0.70596
 14 Pt   -0.09655    0.16604   -0.17530
 15 Ru   -0.41205   -0.76927   -0.94941
 16 Pt   -0.38264    0.17027   -0.09269
 17 Ir    0.86919   -0.10663   -1.01213
 18 Pt    0.00293   -0.01646   -0.01763
 19 Ag    0.00310   -0.01340   -0.01180
 20 Pd   -0.00440   -0.01924   -0.02144
 21 Ag    0.00773   -0.01885   -0.00222
 22 Ru   -0.00180   -0.01502   -0.00762
 23 Pd    0.01158   -0.00276   -0.01457
 24 Ir    0.01339   -0.01113   -0.00542
 25 Ir    0.00688   -0.00934   -0.02387
 26 Pt    0.00140   -0.01516   -0.02263
 27 Ir   -0.00918   -0.04389    0.10515
 28 Pd   -0.01851   -0.02426    0.01860
 29 Ag    0.03290   -0.00760    0.01109
 30 Pd    0.00773   -0.01675    0.02175
 31 Pd   -0.00780   -0.01118    0.00431
 32 Pd    0.00567   -0.01684    0.02035
 33 Ru    0.02808   -0.00576    0.03675
 34 Pd   -0.01625    0.00620    0.06728
 35 Ir   -0.00059   -0.03595    0.02448
 36 Ir   -0.00601   -0.01118   -0.07170
 37 Pt    0.02313    0.00950    0.00511
 38 Ag   -0.00399   -0.01706   -0.01150
 39 Pd   -0.01398   -0.04850   -0.01175
 40 Pd   -0.01408   -0.04468    0.01119
 41 Ir    0.00489   -0.06390   -0.04086
 42 Ag   -0.01584   -0.01851   -0.00415
 43 Ir   -0.00179   -0.00513   -0.02486
 44 Ir    0.01606    0.00054   -0.00642
 45 O    -0.13801   -0.12305   -0.04908
 46 H     0.06574    0.11078    0.03465

System changes: positions 

Initializing position-dependent things.

Density initialized from wave functions
                                             
                                             
                                             
                                             
                                             
                                             
                                             
                                             
              O HAg      Ir    Ir            
            Pd      Pd                       
                   Ru     PIr   Ir           
        Ir    Pt    PAg    Pd                
                                             
        Ir     Pd    IAg    Ir     Pt        
                Ag                           
                       Ru     Pd             
           Pt     Ag    PPd    Ir            
                                             
            Pt     Pt    PPt    Ru           
       Ag     Ag     Ag                      
              Ru    Ir     Pt                
         Pd    Ir     Ru                     
                                             
                                             
                                             
                                             
                                             

Positions:
   0 Pd     0.000000    1.624086   10.000000    ( 0.0000,  0.0000,  0.0000)
   1 Ir     2.812999    1.624086   10.000000    ( 0.0000,  0.0000,  0.0000)
   2 Ru     5.625998    1.624086   10.000000    ( 0.0000,  0.0000,  0.0000)
   3 Ru     1.406500    4.060215   10.000000    ( 0.0000,  0.0000,  0.0000)
   4 Ir     4.219499    4.060215   10.000000    ( 0.0000,  0.0000,  0.0000)
   5 Pt     7.032498    4.060215   10.000000    ( 0.0000,  0.0000,  0.0000)
   6 Pd     2.812999    6.496343   10.000000    ( 0.0000,  0.0000,  0.0000)
   7 Pd     5.625998    6.496343   10.000000    ( 0.0000,  0.0000,  0.0000)
   8 Ru     8.438997    6.496343   10.000000    ( 0.0000,  0.0000,  0.0000)
   9 Ag     0.000000    0.000000   12.296804    ( 0.0000,  0.0000,  0.0000)
  10 Ag     2.812999    0.000000   12.296804    ( 0.0000,  0.0000,  0.0000)
  11 Ag     5.625998    0.000000   12.296804    ( 0.0000,  0.0000,  0.0000)
  12 Pt     1.406500    2.436129   12.296804    ( 0.0000,  0.0000,  0.0000)
  13 Pt     4.219499    2.436129   12.296804    ( 0.0000,  0.0000,  0.0000)
  14 Pt     7.032498    2.436129   12.296804    ( 0.0000,  0.0000,  0.0000)
  15 Ru     2.812999    4.872257   12.296804    ( 0.0000,  0.0000,  0.0000)
  16 Pt     5.625998    4.872257   12.296804    ( 0.0000,  0.0000,  0.0000)
  17 Ir     8.438997    4.872257   12.296804    ( 0.0000,  0.0000,  0.0000)
  18 Pt     1.334649    0.717879   14.679880    ( 0.0000,  0.0000,  0.0000)
  19 Ag     4.176639    0.766456   14.649750    ( 0.0000,  0.0000,  0.0000)
  20 Pd     7.004329    0.841842   14.623900    ( 0.0000,  0.0000,  0.0000)
  21 Ag     2.800141    3.171863   14.656869    ( 0.0000,  0.0000,  0.0000)
  22 Ru     5.656670    3.359663   14.463485    ( 0.0000,  0.0000,  0.0000)
  23 Pd     8.450696    3.190216   14.572520    ( 0.0000,  0.0000,  0.0000)
  24 Ir     4.206156    5.600842   14.573652    ( 0.0000,  0.0000,  0.0000)
  25 Ir     7.026753    5.560743   14.575568    ( 0.0000,  0.0000,  0.0000)
  26 Pt     9.870827    5.650964   14.595413    ( 0.0000,  0.0000,  0.0000)
  27 Ir    -0.071956    1.494528   16.952528    ( 0.0000,  0.0000,  0.0000)
  28 Pd     2.766458    1.540994   17.035130    ( 0.0000,  0.0000,  0.0000)
  29 Ag     5.533757    1.572489   16.904339    ( 0.0000,  0.0000,  0.0000)
  30 Pd     1.409072    4.017812   16.963525    ( 0.0000,  0.0000,  0.0000)
  31 Pd     4.199331    4.097179   16.885251    ( 0.0000,  0.0000,  0.0000)
  32 Pd     7.014694    3.944949   16.740217    ( 0.0000,  0.0000,  0.0000)
  33 Ru     2.862729    6.525827   16.759257    ( 0.0000,  0.0000,  0.0000)
  34 Pd     5.711488    6.442977   16.836387    ( 0.0000,  0.0000,  0.0000)
  35 Ir     8.531882    6.350193   16.930644    ( 0.0000,  0.0000,  0.0000)
  36 Ir     0.050179   -0.091462   18.971826    ( 0.0000,  0.0000,  0.0000)
  37 Pt     2.845742   -0.072718   19.305243    ( 0.0000,  0.0000,  0.0000)
  38 Ag     5.702728    0.006498   19.379057    ( 0.0000,  0.0000,  0.0000)
  39 Pd     1.324323    2.365841   19.269808    ( 0.0000,  0.0000,  0.0000)
  40 Pd     4.329747    2.513795   19.242570    ( 0.0000,  0.0000,  0.0000)
  41 Ir     7.155188    2.499480   19.018879    ( 0.0000,  0.0000,  0.0000)
  42 Ag     2.786503    4.855407   19.384694    ( 0.0000,  0.0000,  0.0000)
  43 Ir     5.691021    4.910613   19.041492    ( 0.0000,  0.0000,  0.0000)
  44 Ir     8.278270    4.816973   18.999551    ( 0.0000,  0.0000,  0.0000)
  45 O      2.738073   -0.127162   21.335865    ( 0.0000,  0.0000,  0.0000)
  46 H      3.396502    0.539735   21.653430    ( 0.0000,  0.0000,  0.0000)

Unit cell:
           periodic     x           y           z      points  spacing
  1. axis:    yes    8.465341    0.000000    0.000000    35     0.2095
  2. axis:    yes    4.232670    7.331200    0.000000    35     0.2095
  3. axis:    no     0.000000    0.000000   29.187217   135     0.2162

  Lengths:   8.465341   8.465341  29.187217
  Angles:   90.000000  90.000000  60.000000

Effective grid spacing dv^(1/3) = 0.2221

                     log10-error:    total        iterations:
           time      wfs    density  energy       fermi  poisson
iter:   1  19:17:53  -3.40   +inf  -238.777711    3             
iter:   2  19:18:55  -3.48  -2.87  -240.027299    2             
iter:   3  19:19:58  -3.77  -2.10  -238.764640    3             
iter:   4  19:21:00  -4.61  -2.99  -238.740941    3             
iter:   5  19:22:03  -5.43  -3.32  -238.740736    2             
iter:   6  19:23:05  -5.70  -3.57  -238.738254    2             
iter:   7  19:24:07  -6.14  -3.73  -238.738141    2             
iter:   8  19:25:09  -6.33  -3.82  -238.738428    2             
iter:   9  19:26:11  -6.09  -3.82  -238.738986    2             
iter:  10  19:27:14  -6.30  -3.49  -238.737570    2             
iter:  11  19:28:16  -6.50  -3.86  -238.738364    2             
iter:  12  19:29:19  -6.65  -4.05  -238.737882    2             
iter:  13  19:30:21  -6.91  -3.94  -238.737911    2             
iter:  14  19:31:23  -7.05  -4.13  -238.738095    2             
iter:  15  19:32:26  -7.43  -4.29  -238.738003    2             

Converged after 15 iterations.

Dipole moment: (29.278869, 22.648549, -0.124926) |e|*Ang

Energy contributions relative to reference atoms: (reference = -12877860.274276)

Kinetic:       -229.313795
Potential:     +103.904665
External:        +0.000000
XC:            -105.338854
Entropy (-ST):   -2.250895
Local:           -6.864572
--------------------------
Free energy:   -239.863450
Extrapolated:  -238.738003

Fermi level: 1.00652

Showing only first 2 kpts
 Kpt  Band  Eigenvalues  Occupancy
  0   360      0.99905    0.12966
  0   361      1.02057    0.11623
  0   362      1.04222    0.10292
  0   363      1.07060    0.08626

  1   360      0.91319    0.17944
  1   361      0.92095    0.17544
  1   362      0.97701    0.14331
  1   363      0.99150    0.13437



Forces in eV/Ang:
  0 Pd   -0.12339    0.32602   -0.35398
  1 Ir    0.95224    0.69523    0.61939
  2 Ru   -1.07755    0.29369    0.69189
  3 Ru    0.43672    0.30206    1.64651
  4 Ir   -0.56631   -0.78645    1.16992
  5 Pt    0.14001    0.15517    0.06000
  6 Pd   -0.49973   -0.42072   -0.23982
  7 Pd    0.38363   -0.26240   -0.56915
  8 Ru    0.35159   -0.15360    0.56211
  9 Ag   -0.21664   -0.08799    0.11412
 10 Ag   -0.04808   -0.11843    0.10257
 11 Ag    0.07419   -0.17617   -0.11876
 12 Pt    0.09197    0.73062   -0.51486
 13 Pt    0.09301    0.53593   -0.69984
 14 Pt   -0.09126    0.15996   -0.17282
 15 Ru   -0.40672   -0.77864   -0.93876
 16 Pt   -0.38718    0.15960   -0.08964
 17 Ir    0.87068   -0.11407   -1.00909
 18 Pt   -0.01438    0.01241    0.00401
 19 Ag    0.01503   -0.00723    0.01098
 20 Pd    0.01002   -0.01392    0.00874
 21 Ag   -0.00446   -0.01380   -0.01271
 22 Ru    0.00703   -0.00746   -0.00035
 23 Pd    0.01282   -0.01924    0.00997
 24 Ir    0.00096   -0.00511   -0.00501
 25 Ir    0.01291   -0.01182    0.00232
 26 Pt    0.01113   -0.00548    0.01038
 27 Ir    0.03925    0.00492   -0.05777
 28 Pd   -0.00547   -0.01318   -0.03060
 29 Ag   -0.02271   -0.00841   -0.01658
 30 Pd   -0.00340   -0.01250    0.00038
 31 Pd    0.00320   -0.03819    0.00441
 32 Pd   -0.00459    0.00597   -0.01138
 33 Ru   -0.03636   -0.02646   -0.02889
 34 Pd    0.02040    0.00121    0.00170
 35 Ir    0.00589   -0.02294   -0.00740
 36 Ir    0.01148   -0.03994    0.03314
 37 Pt    0.02607    0.01518    0.02310
 38 Ag   -0.03028   -0.02489    0.02551
 39 Pd    0.01615   -0.03257    0.02516
 40 Pd   -0.01741   -0.02449    0.02331
 41 Ir   -0.02528    0.00320    0.03514
 42 Ag   -0.00799   -0.03284    0.00635
 43 Ir    0.01362   -0.05577   -0.01994
 44 Ir    0.00497   -0.01891    0.01518
 45 O     0.06872    0.04450   -0.00662
 46 H    -0.06854   -0.01988   -0.00471

Timing:                                      incl.     excl.
-------------------------------------------------------------------
Density initialized from wave functions:    36.938    36.937   0.2% |
 Symmetrize density:                         0.001     0.001   0.0% |
Forces:                                    195.076   195.076   1.0% |
Hamiltonian:                                31.159     0.152   0.0% |
 Atomic:                                     6.223     2.839   0.0% |
  XC Correction:                             3.384     3.384   0.0% |
 Calculate atomic Hamiltonians:             13.708    13.708   0.1% |
 Communicate:                                1.045     1.045   0.0% |
 Initialize Hamiltonian:                     0.001     0.001   0.0% |
 Poisson:                                    0.070     0.070   0.0% |
 XC 3D grid:                                 9.961     9.961   0.1% |
LCAO initialization:                        62.408     4.242   0.0% |
 LCAO eigensolver:                           5.998     0.004   0.0% |
  Calculate projections:                     0.054     0.054   0.0% |
  DenseAtomicCorrection:                     0.033     0.033   0.0% |
  Distribute overlap matrix:                 2.316     2.316   0.0% |
  Orbital Layouts:                           0.352     0.352   0.0% |
  Potential matrix:                          3.208     3.208   0.0% |
  Sum over cells:                            0.030     0.030   0.0% |
 LCAO to grid:                              50.241    50.241   0.3% |
 Set positions (LCAO WFS):                   1.927     0.737   0.0% |
  Basic WFS set positions:                   0.002     0.002   0.0% |
  Basis functions set positions:             0.000     0.000   0.0% |
  P tci:                                     0.557     0.557   0.0% |
  ST tci:                                    0.447     0.447   0.0% |
  mktci:                                     0.184     0.184   0.0% |
PWDescriptor:                                0.056     0.056   0.0% |
Redistribute:                                0.860     0.860   0.0% |
SCF-cycle:                               18942.337   897.907   4.6% |-|
 Davidson:                               16317.453  3748.557  19.4% |-------|
  Apply H:                                2893.609  2807.992  14.5% |-----|
   HMM T:                                   85.617    85.617   0.4% |
  Subspace diag:                          2367.004     0.109   0.0% |
   calc_h_matrix:                         1384.315   419.150   2.2% ||
    Apply H:                               965.165   936.399   4.8% |-|
     HMM T:                                 28.766    28.766   0.1% |
   diagonalize:                             81.045    81.045   0.4% |
   rotate_psi:                             901.535   901.535   4.7% |-|
  calc. matrices:                         4863.474  2974.135  15.4% |-----|
   Apply H:                               1889.339  1833.619   9.5% |---|
    HMM T:                                  55.719    55.719   0.3% |
  diagonalize:                             757.312   757.312   3.9% |-|
  rotate_psi:                             1687.496  1687.496   8.7% |--|
 Density:                                  924.112     0.021   0.0% |
  Atomic density matrices:                   5.930     5.930   0.0% |
  Mix:                                     378.093   378.093   2.0% ||
  Multipole moments:                         0.317     0.317   0.0% |
  Pseudo density:                          539.750   539.727   2.8% ||
   Symmetrize density:                       0.023     0.023   0.0% |
 Hamiltonian:                              736.810     3.341   0.0% |
  Atomic:                                  160.012    84.706   0.4% |
   XC Correction:                           75.306    75.306   0.4% |
  Calculate atomic Hamiltonians:           311.005   311.005   1.6% ||
  Communicate:                              21.330    21.330   0.1% |
  Poisson:                                   1.568     1.568   0.0% |
  XC 3D grid:                              239.554   239.554   1.2% |
 Orthonormalize:                            66.055     0.007   0.0% |
  calc_s_matrix:                             9.145     9.145   0.0% |
  inverse-cholesky:                          1.501     1.501   0.0% |
  projections:                              35.709    35.709   0.2% |
  rotate_psi_s:                             19.693    19.693   0.1% |
Set symmetry:                                0.002     0.002   0.0% |
Other:                                      98.181    98.181   0.5% |
-------------------------------------------------------------------
Total:                                             19367.015 100.0%

Date: Thu Mar  3 19:32:43 2022
