
  ___ ___ ___ _ _ _  
 |   |   |_  | | | | 
 | | | | | . | | | | 
 |__ |  _|___|_____|  1.5.1
 |___|_|             

User:   clausen@node424.cluster
Date:   Fri Mar  4 01:23:01 2022
Arch:   x86_64
Pid:    24355
Python: 3.6.12
gpaw:   /software/kemi/gpaw/1.5.1/gpaw
_gpaw:  /software/kemi/gpaw/1.5.1/bin/gpaw-python
ase:    /software/kemi/ase/3.17.0/ase (version 3.17.0)
numpy:  /opt/rh/rh-python36/root/usr/lib64/python3.6/site-packages/numpy (version 1.13.1)
scipy:  /opt/rh/rh-python36/root/usr/lib64/python3.6/site-packages/scipy (version 0.19.1)
units:  Angstrom and eV
cores:  16

Input parameters:
  kpts: [4 4 1]
  mode: {ecut: 400.0,
         gammacentered: False,
         name: pw}
  xc: RPBE

System changes: positions, numbers, cell, pbc, initial_charges, initial_magmoms 

Initialize ...

Pd-setup:
  name: Palladium
  id: 6da19bfba079f22767af9506641940b9
  Z: 46
  valence: 16
  core: 30
  charge: 0.0
  file: /software/kemi/gpaw-setups/0.9.20000/Pd.RPBE.gz
  cutoffs: 1.19(comp), 2.38(filt), 2.28(core), lmax=2
  valence states:
                energy  radius
    5s(0.00)    -3.225   1.228
    4p(6.00)   -51.131   1.360
    5p(0.00)    -0.373   1.360
    4d(10.00)    -3.964   1.228
    *s          23.987   1.228
    *d          23.247   1.228

  Using partial waves for Pd as LCAO basis

Ag-setup:
  name: Silver
  id: c05e55bab2c3858b3f9398f6d75cb77c
  Z: 47
  valence: 17
  core: 30
  charge: 0.0
  file: /software/kemi/gpaw-setups/0.9.20000/Ag.RPBE.gz
  cutoffs: 1.25(comp), 2.35(filt), 2.19(core), lmax=2
  valence states:
                energy  radius
    5s(1.00)    -4.277   1.286
    4p(6.00)   -58.523   1.328
    5p(0.00)    -0.755   1.328
    4d(10.00)    -7.386   1.180
    *s          22.934   1.286
    *d          19.826   1.180

  Using partial waves for Ag as LCAO basis

Pt-setup:
  name: Platinum
  id: f04f522592575c47ad794f6b4a415b4b
  Z: 78
  valence: 16
  core: 62
  charge: 0.0
  file: /software/kemi/gpaw-setups/0.9.20000/Pt.RPBE.gz
  cutoffs: 1.29(comp), 2.26(filt), 2.26(core), lmax=2
  valence states:
                energy  radius
    6s(1.00)    -5.516   1.307
    5p(6.00)   -55.971   1.371
    6p(0.00)    -0.856   1.371
    5d(9.00)    -6.087   1.307
    *s          21.695   1.307
    *d          21.125   1.307

  Using partial waves for Pt as LCAO basis

Ru-setup:
  name: Ruthenium
  id: 76477906e28f51dc1b29884d53556fe9
  Z: 44
  valence: 16
  core: 28
  charge: 0.0
  file: /software/kemi/gpaw-setups/0.9.20000/Ru.RPBE.gz
  cutoffs: 1.23(comp), 2.16(filt), 1.30(core), lmax=2
  valence states:
                energy  radius
    4s(2.00)   -76.255   1.281
    5s(1.00)    -4.126   1.281
    4p(6.00)   -46.371   1.286
    5p(0.00)    -0.913   1.286
    4d(7.00)    -5.146   1.254
    *d          22.066   1.254

  Using partial waves for Ru as LCAO basis

O-setup:
  name: Oxygen
  id: 08071ca1eed670e7821b24b7eb4d558c
  Z: 8
  valence: 6
  core: 2
  charge: 0.0
  file: /software/kemi/gpaw-setups/0.9.20000/O.RPBE.gz
  cutoffs: 0.67(comp), 1.17(filt), 0.83(core), lmax=2
  valence states:
                energy  radius
    2s(2.00)   -24.041   0.688
    2p(4.00)    -8.984   0.598
    *s           3.170   0.688
    *p          18.228   0.598
    *d           0.000   0.619

  Using partial waves for O as LCAO basis

Reference energy: -9073453.423555

Spin-paired calculation

Occupation numbers:
  Fermi-Dirac: width=0.1000 eV

Convergence criteria:
  Maximum total energy change: 0.0005 eV / electron
  Maximum integral of absolute density change: 0.0001 electrons
  Maximum integral of absolute eigenstate change: 4e-08 eV^2
  Maximum number of iterations: 333

Symmetries present (total): 1

  ( 1  0  0)
  ( 0  1  0)
  ( 0  0  1)

16 k-points: 4 x 4 x 1 Monkhorst-Pack grid
8 k-points in the irreducible part of the Brillouin zone
       k-points in crystal coordinates                weights
   0:     0.12500000   -0.37500000    0.00000000          2/16
   1:     0.12500000   -0.12500000    0.00000000          2/16
   2:     0.12500000    0.12500000    0.00000000          2/16
   3:     0.12500000    0.37500000    0.00000000          2/16
   4:     0.37500000   -0.37500000    0.00000000          2/16
   5:     0.37500000   -0.12500000    0.00000000          2/16
   6:     0.37500000    0.12500000    0.00000000          2/16
   7:     0.37500000    0.37500000    0.00000000          2/16

Wave functions: Plane wave expansion
  Cutoff energy: 400.000 eV
  Number of coefficients (min, max): 32266, 32339
  Pulay-stress correction: 0.000000 eV/Ang^3 (de/decut=0.000000)
  Using FFTW library
  ScaLapack parameters: grid=1x1, blocksize=None
  Wavefunction extrapolation:
    Improved wavefunction reuse through dual PAW basis 

Eigensolver
   Davidson(niter=2, smin=None, normalize=True) 

Densities:
  Coarse grid: 35*35*135 grid
  Fine grid: 70*70*270 grid
  Total Charge: 0.000000 

Density mixing:
  Method: separate
  Backend: pulay
  Linear mixing parameter: 0.05
  Mixing with 5 old densities
  Damping of long wave oscillations: 50 

Hamiltonian:
  XC and Coulomb potentials evaluated on a 70*70*270 grid
  Using the RPBE Exchange-Correlation functional
 

XC parameters: RPBE with 2 nearest neighbor stencil

Memory estimate:
  Process memory now: 153.07 MiB
  Calculator: 548.11 MiB
    Density: 48.38 MiB
      Arrays: 16.41 MiB
      Localized functions: 25.61 MiB
      Mixer: 6.36 MiB
    Hamiltonian: 11.51 MiB
      Arrays: 10.73 MiB
      XC: 0.00 MiB
      Poisson: 0.00 MiB
      vbar: 0.78 MiB
    Wavefunctions: 488.23 MiB
      Arrays psit_nG: 220.57 MiB
      Eigensolver: 253.54 MiB
      Projections: 2.81 MiB
      Projectors: 4.69 MiB
      PW-descriptor: 6.62 MiB

Total number of cores used: 16
Parallelization over k-points: 8
Domain decomposition: 1 x 1 x 2

Number of atoms: 46
Number of atomic orbitals: 551
Number of bands in calculation: 447
Bands to converge: occupied states only
Number of valence electrons: 738

... initialized

Initializing position-dependent things.

Density initialized from atomic densities
Creating initial wave functions:
  447 bands from LCAO basis set

                                             
                                             
                                             
                                             
                      O                      
                                             
                         Pd                  
                 Pt            Ru            
            Pt    APd    PPd    Ru           
                                             
        Pd    Ru     Pd    Pt                
                                             
        Pt     Pd    PPd    Pd     Ag        
                Ag     Ag     Ag             
                                             
           Ag    PAg    APt    Pd            
                                             
            Pd     Ru     Ag     Pd          
       Ag     Ru     Ru                      
             Pd     Pd     Pt                
        Pd     Ag     Pt                     
                                             
                                             
                                             
                                             
                                             

Positions:
   0 Pd     0.000000    1.633958   10.000000    ( 0.0000,  0.0000,  0.0000)
   1 Ag     2.830098    1.633958   10.000000    ( 0.0000,  0.0000,  0.0000)
   2 Pt     5.660196    1.633958   10.000000    ( 0.0000,  0.0000,  0.0000)
   3 Pd     1.415049    4.084895   10.000000    ( 0.0000,  0.0000,  0.0000)
   4 Pd     4.245147    4.084895   10.000000    ( 0.0000,  0.0000,  0.0000)
   5 Pt     7.075245    4.084895   10.000000    ( 0.0000,  0.0000,  0.0000)
   6 Pd     2.830098    6.535832   10.000000    ( 0.0000,  0.0000,  0.0000)
   7 Ag     5.660196    6.535832   10.000000    ( 0.0000,  0.0000,  0.0000)
   8 Pd     8.490294    6.535832   10.000000    ( 0.0000,  0.0000,  0.0000)
   9 Ag     0.000000    0.000000   12.310765    ( 0.0000,  0.0000,  0.0000)
  10 Ru     2.830098    0.000000   12.310765    ( 0.0000,  0.0000,  0.0000)
  11 Ru     5.660196    0.000000   12.310765    ( 0.0000,  0.0000,  0.0000)
  12 Pd     1.415049    2.450937   12.310765    ( 0.0000,  0.0000,  0.0000)
  13 Ru     4.245147    2.450937   12.310765    ( 0.0000,  0.0000,  0.0000)
  14 Ag     7.075245    2.450937   12.310765    ( 0.0000,  0.0000,  0.0000)
  15 Pd     2.830098    4.901874   12.310765    ( 0.0000,  0.0000,  0.0000)
  16 Ag     5.660196    4.901874   12.310765    ( 0.0000,  0.0000,  0.0000)
  17 Pd     8.490294    4.901874   12.310765    ( 0.0000,  0.0000,  0.0000)
  18 Ag     1.422839    0.836358   14.687202    ( 0.0000,  0.0000,  0.0000)
  19 Ag     4.228290    0.834029   14.668537    ( 0.0000,  0.0000,  0.0000)
  20 Pt     7.000876    0.833422   14.677349    ( 0.0000,  0.0000,  0.0000)
  21 Ag     2.849410    3.275055   14.697646    ( 0.0000,  0.0000,  0.0000)
  22 Ag     5.607020    3.276035   14.715763    ( 0.0000,  0.0000,  0.0000)
  23 Ag     8.407636    3.278571   14.701685    ( 0.0000,  0.0000,  0.0000)
  24 Pd     4.226650    5.664441   14.783889    ( 0.0000,  0.0000,  0.0000)
  25 Pd     7.021524    5.717496   14.695770    ( 0.0000,  0.0000,  0.0000)
  26 Ag     9.810161    5.688371   14.690489    ( 0.0000,  0.0000,  0.0000)
  27 Pt     0.030364    1.654579   17.054310    ( 0.0000,  0.0000,  0.0000)
  28 Pd     2.863636    1.668211   17.080253    ( 0.0000,  0.0000,  0.0000)
  29 Pd     5.584811    1.668389   17.077768    ( 0.0000,  0.0000,  0.0000)
  30 Pd     1.451673    4.084780   17.054426    ( 0.0000,  0.0000,  0.0000)
  31 Ru     4.287216    4.070209   17.299465    ( 0.0000,  0.0000,  0.0000)
  32 Pt     6.976254    4.091014   17.095978    ( 0.0000,  0.0000,  0.0000)
  33 Ag     2.791829    6.501265   17.070936    ( 0.0000,  0.0000,  0.0000)
  34 Pt     5.617052    6.449501   17.092744    ( 0.0000,  0.0000,  0.0000)
  35 Ru     8.289070    6.444709   17.186717    ( 0.0000,  0.0000,  0.0000)
  36 Pd     0.109969    0.038419   19.432145    ( 0.0000,  0.0000,  0.0000)
  37 Ru     2.913932   -0.060119   19.211827    ( 0.0000,  0.0000,  0.0000)
  38 Pd     5.607656    0.003198   19.432032    ( 0.0000,  0.0000,  0.0000)
  39 Pt     1.441354    2.458850   19.369405    ( 0.0000,  0.0000,  0.0000)
  40 Pd     4.211433    2.427374   19.463642    ( 0.0000,  0.0000,  0.0000)
  41 Pd     7.082631    2.483306   19.414916    ( 0.0000,  0.0000,  0.0000)
  42 Pt     2.814800    4.836018   19.384744    ( 0.0000,  0.0000,  0.0000)
  43 Pd     5.686541    4.887569   19.522731    ( 0.0000,  0.0000,  0.0000)
  44 Ru     8.428363    4.985817   19.203811    ( 0.0000,  0.0000,  0.0000)
  45 O      4.267019    5.672955   20.822731    ( 0.0000,  0.0000,  0.0000)

Unit cell:
           periodic     x           y           z      points  spacing
  1. axis:    yes    8.379498    0.000000    0.000000    35     0.2073
  2. axis:    yes    4.189749    7.256858    0.000000    35     0.2073
  3. axis:    no     0.000000    0.000000   29.243062   135     0.2166

  Lengths:   8.379498   8.379498  29.243062
  Angles:   90.000000  90.000000  60.000000

Effective grid spacing dv^(1/3) = 0.2207

                     log10-error:    total        iterations:
           time      wfs    density  energy       fermi  poisson
iter:   1  01:25:38  +0.49   +inf  -239.011861    2             
iter:   2  01:26:54  -1.06  -1.20  -211.067612    3             
iter:   3  01:28:10  -1.32  -1.31  -246.194412    3             
iter:   4  01:29:27  -1.29  -1.24  -244.856588    3             
iter:   5  01:30:43  -1.47  -1.24  -195.875923    37            
iter:   6  01:31:58  -1.91  -1.48  -189.236952    35            
iter:   7  01:33:13  -2.29  -1.58  -186.931142    4             
iter:   8  01:34:31  -2.51  -1.66  -184.303276    3             
iter:   9  01:35:51  -1.96  -1.77  -182.396573    4             
iter:  10  01:37:08  -2.69  -2.04  -182.184365    3             
iter:  11  01:38:23  -3.13  -2.12  -182.240782    3             
iter:  12  01:39:41  -2.99  -2.12  -184.161368    3             
iter:  13  01:41:00  -3.45  -1.94  -182.009823    3             
iter:  14  01:42:17  -3.33  -2.22  -181.744173    3             
iter:  15  01:43:34  -3.46  -2.38  -181.690172    3             
iter:  16  01:44:50  -3.81  -2.48  -181.719849    2             
iter:  17  01:46:06  -3.89  -2.49  -181.598206    3             
iter:  18  01:47:24  -3.52  -2.66  -181.643968    3             
iter:  19  01:48:41  -4.21  -2.62  -181.585143    3             
iter:  20  01:49:56  -4.05  -2.69  -181.529495    3             
iter:  21  01:51:12  -4.53  -3.02  -181.537107    2             
iter:  22  01:52:23  -4.58  -3.02  -181.529123    2             
iter:  23  01:53:36  -5.08  -3.07  -181.526528    2             
iter:  24  01:54:52  -5.10  -3.20  -181.524353    2             
iter:  25  01:56:09  -4.90  -3.29  -181.523204    2             
iter:  26  01:57:26  -5.67  -3.46  -181.522694    2             
iter:  27  01:58:45  -5.68  -3.48  -181.523619    2             
iter:  28  02:00:02  -5.95  -3.66  -181.523106    2             
iter:  29  02:01:21  -5.80  -3.58  -181.525924    2             
iter:  30  02:02:38  -6.25  -3.53  -181.523051    2             
iter:  31  02:03:56  -6.63  -3.80  -181.523180    2             
iter:  32  02:05:14  -6.43  -3.99  -181.522957    2             
iter:  33  02:06:30  -6.70  -4.07  -181.523637    2             
iter:  34  02:07:49  -7.35  -4.03  -181.523096    2             
iter:  35  02:09:07  -7.30  -4.21  -181.523185    2             
iter:  36  02:10:26  -6.80  -4.24  -181.522809    2             
iter:  37  02:11:44  -7.20  -4.12  -181.523048    2             
iter:  38  02:13:02  -7.62  -4.41  -181.522903    2             

Converged after 38 iterations.

Dipole moment: (24.021618, 21.528308, -0.289000) |e|*Ang

Energy contributions relative to reference atoms: (reference = -9073453.423555)

Kinetic:       -177.086057
Potential:      +31.321577
External:        +0.000000
XC:             -30.377696
Entropy (-ST):   -2.039072
Local:           -4.361190
--------------------------
Free energy:   -182.542439
Extrapolated:  -181.522903

Fermi level: 0.79974

Showing only first 2 kpts
 Kpt  Band  Eigenvalues  Occupancy
  0   367      0.78276    0.13559
  0   368      0.80863    0.11945
  0   369      0.82727    0.10790
  0   370      0.88611    0.07414

  1   367      0.68898    0.18792
  1   368      0.71675    0.17408
  1   369      0.73748    0.16270
  1   370      0.77854    0.13820



Forces in eV/Ang:
  0 Pd    0.09317    0.51409   -0.42464
  1 Ag    0.11400    0.49199   -0.51491
  2 Pt   -0.23626    0.50662    0.82536
  3 Pd    0.09149    0.03606   -0.08044
  4 Pd    0.11239   -0.38036    0.19361
  5 Pt   -0.12629   -0.30006   -0.08760
  6 Pd   -0.17988   -0.38509   -0.05959
  7 Ag   -0.12247   -0.45601   -0.71423
  8 Pd   -0.24439   -0.30183    0.26994
  9 Ag    0.51871    0.21049    0.43214
 10 Ru    2.19934    1.28371    0.38288
 11 Ru   -1.85194    0.87733   -0.35867
 12 Pd    1.11764   -0.24506    0.01238
 13 Ru   -0.52372   -1.48408   -0.86916
 14 Ag   -0.44443    0.13305    0.28818
 15 Pd    0.19327   -0.57521    0.07715
 16 Ag   -0.18854   -0.37932    0.33641
 17 Pd   -0.37118    0.54282   -0.01165
 18 Ag   -0.01861   -0.00347    0.00030
 19 Ag   -0.01667   -0.00877    0.02166
 20 Pt    0.02192   -0.01428   -0.02714
 21 Ag    0.00267    0.01415    0.01681
 22 Ag    0.00441   -0.00536    0.01252
 23 Ag   -0.01113    0.00425   -0.01973
 24 Pd    0.02037    0.02543    0.04788
 25 Pd    0.05376    0.00212    0.02636
 26 Ag   -0.00843   -0.01364    0.02293
 27 Pt    0.00087   -0.07560    0.28629
 28 Pd    0.01036   -0.02112    0.03121
 29 Pd   -0.00583   -0.06931   -0.00982
 30 Pd    0.09693    0.03898    0.32289
 31 Ru    0.02181   -0.16286   -0.64427
 32 Pt   -0.03053    0.00274    0.23103
 33 Ag   -0.03249    0.05920   -0.10104
 34 Pt    0.04317    0.04471   -0.32356
 35 Ru    0.02065    0.03849    0.02712
 36 Pd   -0.02445    0.30933    0.30184
 37 Ru    0.25988    0.22951    0.02775
 38 Pd   -0.19117    0.10913   -0.02628
 39 Pt   -0.04317   -0.00583   -0.06876
 40 Pd   -0.03712   -0.24400   -0.06304
 41 Pd    0.03459    0.05115   -0.00380
 42 Pt    0.01584    0.04160    0.90705
 43 Pd    0.29935   -0.30669    0.20296
 44 Ru   -0.02294   -0.10420    0.05589
 45 O    -0.61052    0.00325   -1.10027

System changes: positions 

Initializing position-dependent things.

Density initialized from wave functions
                                            
                                            
                                            
                                            
                     O                      
                                            
                 Pt     Pd     Ru           
                   Pd     Pd                
            Pt    Ag     Pt    Ru           
       Pd    PRu    RPd    Pt               
                                            
        Pt     Pd    PPd    Pd    Ag        
                                            
                Ag     Ag     Ag            
           Ag     Ag     Pt                 
                 Pd     Ag     Pd           
            Pd     Ru     Ag                
                  Pd     Ag     Pd          
       Ag    PRu    PRu    Pt               
        Pd     Ag     Pt                    
                                            
                                            
                                            
                                            
                                            

Positions:
   0 Pd     0.000000    1.633958   10.000000    ( 0.0000,  0.0000,  0.0000)
   1 Ag     2.830098    1.633958   10.000000    ( 0.0000,  0.0000,  0.0000)
   2 Pt     5.660196    1.633958   10.000000    ( 0.0000,  0.0000,  0.0000)
   3 Pd     1.415049    4.084895   10.000000    ( 0.0000,  0.0000,  0.0000)
   4 Pd     4.245147    4.084895   10.000000    ( 0.0000,  0.0000,  0.0000)
   5 Pt     7.075245    4.084895   10.000000    ( 0.0000,  0.0000,  0.0000)
   6 Pd     2.830098    6.535832   10.000000    ( 0.0000,  0.0000,  0.0000)
   7 Ag     5.660196    6.535832   10.000000    ( 0.0000,  0.0000,  0.0000)
   8 Pd     8.490294    6.535832   10.000000    ( 0.0000,  0.0000,  0.0000)
   9 Ag     0.000000    0.000000   12.310765    ( 0.0000,  0.0000,  0.0000)
  10 Ru     2.830098    0.000000   12.310765    ( 0.0000,  0.0000,  0.0000)
  11 Ru     5.660196    0.000000   12.310765    ( 0.0000,  0.0000,  0.0000)
  12 Pd     1.415049    2.450937   12.310765    ( 0.0000,  0.0000,  0.0000)
  13 Ru     4.245147    2.450937   12.310765    ( 0.0000,  0.0000,  0.0000)
  14 Ag     7.075245    2.450937   12.310765    ( 0.0000,  0.0000,  0.0000)
  15 Pd     2.830098    4.901874   12.310765    ( 0.0000,  0.0000,  0.0000)
  16 Ag     5.660196    4.901874   12.310765    ( 0.0000,  0.0000,  0.0000)
  17 Pd     8.490294    4.901874   12.310765    ( 0.0000,  0.0000,  0.0000)
  18 Ag     1.420978    0.836012   14.687232    ( 0.0000,  0.0000,  0.0000)
  19 Ag     4.226624    0.833152   14.670703    ( 0.0000,  0.0000,  0.0000)
  20 Pt     7.003068    0.831993   14.674635    ( 0.0000,  0.0000,  0.0000)
  21 Ag     2.849677    3.276469   14.699327    ( 0.0000,  0.0000,  0.0000)
  22 Ag     5.607461    3.275499   14.717015    ( 0.0000,  0.0000,  0.0000)
  23 Ag     8.406523    3.278996   14.699712    ( 0.0000,  0.0000,  0.0000)
  24 Pd     4.228687    5.666984   14.788678    ( 0.0000,  0.0000,  0.0000)
  25 Pd     7.026900    5.717708   14.698407    ( 0.0000,  0.0000,  0.0000)
  26 Ag     9.809318    5.687007   14.692782    ( 0.0000,  0.0000,  0.0000)
  27 Pt     0.030451    1.647019   17.082938    ( 0.0000,  0.0000,  0.0000)
  28 Pd     2.864672    1.666099   17.083373    ( 0.0000,  0.0000,  0.0000)
  29 Pd     5.584228    1.661457   17.076786    ( 0.0000,  0.0000,  0.0000)
  30 Pd     1.461366    4.088678   17.086716    ( 0.0000,  0.0000,  0.0000)
  31 Ru     4.289396    4.053923   17.235037    ( 0.0000,  0.0000,  0.0000)
  32 Pt     6.973201    4.091288   17.119082    ( 0.0000,  0.0000,  0.0000)
  33 Ag     2.788580    6.507184   17.060832    ( 0.0000,  0.0000,  0.0000)
  34 Pt     5.621369    6.453972   17.060388    ( 0.0000,  0.0000,  0.0000)
  35 Ru     8.291136    6.448558   17.189429    ( 0.0000,  0.0000,  0.0000)
  36 Pd     0.107524    0.069352   19.462329    ( 0.0000,  0.0000,  0.0000)
  37 Ru     2.939920   -0.037168   19.214601    ( 0.0000,  0.0000,  0.0000)
  38 Pd     5.588539    0.014112   19.429404    ( 0.0000,  0.0000,  0.0000)
  39 Pt     1.437037    2.458266   19.362529    ( 0.0000,  0.0000,  0.0000)
  40 Pd     4.207721    2.402974   19.457338    ( 0.0000,  0.0000,  0.0000)
  41 Pd     7.086090    2.488421   19.414536    ( 0.0000,  0.0000,  0.0000)
  42 Pt     2.816384    4.840178   19.475449    ( 0.0000,  0.0000,  0.0000)
  43 Pd     5.716476    4.856900   19.543027    ( 0.0000,  0.0000,  0.0000)
  44 Ru     8.426069    4.975396   19.209400    ( 0.0000,  0.0000,  0.0000)
  45 O      4.205967    5.673280   20.712704    ( 0.0000,  0.0000,  0.0000)

Unit cell:
           periodic     x           y           z      points  spacing
  1. axis:    yes    8.379498    0.000000    0.000000    35     0.2073
  2. axis:    yes    4.189749    7.256858    0.000000    35     0.2073
  3. axis:    no     0.000000    0.000000   29.243062   135     0.2166

  Lengths:   8.379498   8.379498  29.243062
  Angles:   90.000000  90.000000  60.000000

Effective grid spacing dv^(1/3) = 0.2207

                     log10-error:    total        iterations:
           time      wfs    density  energy       fermi  poisson
iter:   1  02:14:54  -1.98   +inf  -183.350181    4             
iter:   2  02:16:13  -2.08  -2.15  -203.036124    36            
iter:   3  02:17:31  -2.15  -1.59  -189.574763    3             
iter:   4  02:18:49  -3.23  -1.81  -183.372057    4             
iter:   5  02:20:08  -3.51  -2.16  -182.225850    3             
iter:   6  02:21:26  -3.63  -2.42  -181.864145    3             
iter:   7  02:22:45  -4.20  -2.65  -181.896407    3             
iter:   8  02:24:03  -3.91  -2.63  -181.772172    3             
iter:   9  02:25:21  -4.60  -2.82  -181.792084    3             
iter:  10  02:26:39  -4.30  -2.80  -181.791083    3             
iter:  11  02:27:57  -4.81  -2.75  -181.761001    2             
iter:  12  02:29:13  -4.67  -2.86  -181.733026    2             
iter:  13  02:30:32  -4.98  -3.19  -181.727221    2             
iter:  14  02:31:49  -5.60  -3.35  -181.726999    2             
iter:  15  02:33:06  -5.39  -3.32  -181.728865    2             
iter:  16  02:34:23  -5.82  -3.34  -181.726347    2             
iter:  17  02:35:39  -5.55  -3.56  -181.724189    2             
iter:  18  02:36:57  -5.91  -3.56  -181.726673    2             
iter:  19  02:38:17  -6.03  -3.59  -181.724739    2             
iter:  20  02:39:36  -6.19  -3.89  -181.724867    2             
iter:  21  02:40:56  -6.54  -3.90  -181.724392    2             
iter:  22  02:42:15  -6.53  -3.94  -181.725303    2             
iter:  23  02:43:32  -6.76  -3.99  -181.724548    2             
iter:  24  02:44:51  -7.09  -3.79  -181.724687    2             
iter:  25  02:46:10  -7.21  -4.03  -181.724526    2             
iter:  26  02:47:30  -7.17  -4.05  -181.724668    2             
iter:  27  02:48:51  -7.24  -4.20  -181.724294    2             
iter:  28  02:50:10  -6.95  -4.09  -181.724681    2             
iter:  29  02:51:28  -7.39  -4.40  -181.724456    2             
iter:  30  02:52:48  -6.97  -4.41  -181.724332    2             
iter:  31  02:54:05  -7.68  -4.58  -181.724506    2             

Converged after 31 iterations.

Dipole moment: (23.373854, 19.035486, -0.224422) |e|*Ang

Energy contributions relative to reference atoms: (reference = -9073453.423555)

Kinetic:       -174.948185
Potential:      +29.370960
External:        +0.000000
XC:             -30.748697
Entropy (-ST):   -2.035719
Local:           -4.380725
--------------------------
Free energy:   -182.742366
Extrapolated:  -181.724506

Fermi level: 0.83394

Showing only first 2 kpts
 Kpt  Band  Eigenvalues  Occupancy
  0   367      0.81811    0.13487
  0   368      0.83967    0.12142
  0   369      0.86849    0.10362
  0   370      0.91467    0.07712

  1   367      0.72438    0.18736
  1   368      0.74450    0.17745
  1   369      0.77167    0.16271
  1   370      0.81117    0.13917



Forces in eV/Ang:
  0 Pd    0.09938    0.50624   -0.42083
  1 Ag    0.10713    0.49090   -0.51185
  2 Pt   -0.24076    0.50782    0.83150
  3 Pd    0.09669    0.03340   -0.07714
  4 Pd    0.10855   -0.37520    0.20112
  5 Pt   -0.12833   -0.29489   -0.08115
  6 Pd   -0.17339   -0.38808   -0.05195
  7 Ag   -0.12542   -0.45203   -0.70878
  8 Pd   -0.24825   -0.30002    0.27576
  9 Ag    0.52326    0.20997    0.42736
 10 Ru    2.19955    1.27875    0.39019
 11 Ru   -1.85442    0.87041   -0.36062
 12 Pd    1.11884   -0.24528    0.03087
 13 Ru   -0.52779   -1.48423   -0.86292
 14 Ag   -0.44099    0.13869    0.29341
 15 Pd    0.19771   -0.57694    0.09268
 16 Ag   -0.18568   -0.37637    0.35479
 17 Pd   -0.37069    0.54488    0.00265
 18 Ag   -0.01230    0.05664   -0.01433
 19 Ag    0.00334    0.00523    0.00794
 20 Pt   -0.00718    0.01372   -0.01946
 21 Ag   -0.03008    0.00976    0.02421
 22 Ag    0.03943   -0.01770   -0.01026
 23 Ag    0.00358   -0.01333    0.10274
 24 Pd   -0.01403   -0.01696   -0.04962
 25 Pd    0.04133   -0.02337   -0.01247
 26 Ag    0.00695   -0.03684    0.03940
 27 Pt    0.02840   -0.01265    0.04191
 28 Pd   -0.00883    0.02124   -0.05965
 29 Pd    0.02816   -0.03608   -0.03064
 30 Pd    0.12888    0.04694    0.17219
 31 Ru   -0.08907    0.04754   -0.13310
 32 Pt    0.01163    0.02181    0.05642
 33 Ag    0.04357   -0.09178    0.13934
 34 Pt    0.01062   -0.01440    0.06858
 35 Ru   -0.00314   -0.06449    0.03232
 36 Pd    0.06859    0.29440   -0.14745
 37 Ru   -0.01965    0.02921   -0.02844
 38 Pd    0.01947    0.01069   -0.00567
 39 Pt    0.08644    0.09692    0.04211
 40 Pd   -0.05686    0.01400   -0.11299
 41 Pd    0.00128   -0.02842    0.07225
 42 Pt   -0.28523   -0.27153   -0.00913
 43 Pd    0.18640   -0.07040   -0.12366
 44 Ru    0.01200   -0.01165    0.01359
 45 O    -0.43994   -0.14296    0.30803

System changes: positions 

Initializing position-dependent things.

Density initialized from wave functions
                                            
                                            
                                            
                                            
                    O                       
                                            
                 Pt     Pd     Ru           
                   Pd     Pd                
            Pt    Ag     Pt    Ru           
       Pd    PRu    RPd    Pt               
                                            
        Pt     Pd    PPd    Pd    Ag        
                                            
                Ag     Ag     Ag            
           Ag     Ag     Pt                 
                 Pd     Ag     Pd           
            Pd     Ru     Ag                
                  Pd     Ag     Pd          
       Ag    PRu    PRu    Pt               
        Pd     Ag     Pt                    
                                            
                                            
                                            
                                            
                                            

Positions:
   0 Pd     0.000000    1.633958   10.000000    ( 0.0000,  0.0000,  0.0000)
   1 Ag     2.830098    1.633958   10.000000    ( 0.0000,  0.0000,  0.0000)
   2 Pt     5.660196    1.633958   10.000000    ( 0.0000,  0.0000,  0.0000)
   3 Pd     1.415049    4.084895   10.000000    ( 0.0000,  0.0000,  0.0000)
   4 Pd     4.245147    4.084895   10.000000    ( 0.0000,  0.0000,  0.0000)
   5 Pt     7.075245    4.084895   10.000000    ( 0.0000,  0.0000,  0.0000)
   6 Pd     2.830098    6.535832   10.000000    ( 0.0000,  0.0000,  0.0000)
   7 Ag     5.660196    6.535832   10.000000    ( 0.0000,  0.0000,  0.0000)
   8 Pd     8.490294    6.535832   10.000000    ( 0.0000,  0.0000,  0.0000)
   9 Ag     0.000000    0.000000   12.310765    ( 0.0000,  0.0000,  0.0000)
  10 Ru     2.830098    0.000000   12.310765    ( 0.0000,  0.0000,  0.0000)
  11 Ru     5.660196    0.000000   12.310765    ( 0.0000,  0.0000,  0.0000)
  12 Pd     1.415049    2.450937   12.310765    ( 0.0000,  0.0000,  0.0000)
  13 Ru     4.245147    2.450937   12.310765    ( 0.0000,  0.0000,  0.0000)
  14 Ag     7.075245    2.450937   12.310765    ( 0.0000,  0.0000,  0.0000)
  15 Pd     2.830098    4.901874   12.310765    ( 0.0000,  0.0000,  0.0000)
  16 Ag     5.660196    4.901874   12.310765    ( 0.0000,  0.0000,  0.0000)
  17 Pd     8.490294    4.901874   12.310765    ( 0.0000,  0.0000,  0.0000)
  18 Ag     1.419287    0.841784   14.685759    ( 0.0000,  0.0000,  0.0000)
  19 Ag     4.226593    0.833495   14.672011    ( 0.0000,  0.0000,  0.0000)
  20 Pt     7.002821    0.833089   14.672014    ( 0.0000,  0.0000,  0.0000)
  21 Ag     2.846631    3.277796   14.702207    ( 0.0000,  0.0000,  0.0000)
  22 Ag     5.611633    3.273549   14.716237    ( 0.0000,  0.0000,  0.0000)
  23 Ag     8.406642    3.277715   14.709880    ( 0.0000,  0.0000,  0.0000)
  24 Pd     4.227697    5.665806   14.784632    ( 0.0000,  0.0000,  0.0000)
  25 Pd     7.032381    5.715342   14.697713    ( 0.0000,  0.0000,  0.0000)
  26 Ag     9.809846    5.682894   14.697369    ( 0.0000,  0.0000,  0.0000)
  27 Pt     0.033404    1.644009   17.093722    ( 0.0000,  0.0000,  0.0000)
  28 Pd     2.863993    1.667817   17.077915    ( 0.0000,  0.0000,  0.0000)
  29 Pd     5.587006    1.656168   17.073400    ( 0.0000,  0.0000,  0.0000)
  30 Pd     1.476864    4.094405   17.111780    ( 0.0000,  0.0000,  0.0000)
  31 Ru     4.280688    4.055162   17.206765    ( 0.0000,  0.0000,  0.0000)
  32 Pt     6.973714    4.093602   17.130118    ( 0.0000,  0.0000,  0.0000)
  33 Ag     2.792348    6.499039   17.072948    ( 0.0000,  0.0000,  0.0000)
  34 Pt     5.623440    6.453492   17.060178    ( 0.0000,  0.0000,  0.0000)
  35 Ru     8.291277    6.442764   17.193379    ( 0.0000,  0.0000,  0.0000)
  36 Pd     0.114057    0.106735   19.453902    ( 0.0000,  0.0000,  0.0000)
  37 Ru     2.943749   -0.028977   19.212289    ( 0.0000,  0.0000,  0.0000)
  38 Pd     5.586240    0.017676   19.428225    ( 0.0000,  0.0000,  0.0000)
  39 Pt     1.444993    2.468147   19.365328    ( 0.0000,  0.0000,  0.0000)
  40 Pd     4.201011    2.398920   19.444246    ( 0.0000,  0.0000,  0.0000)
  41 Pd     7.087002    2.486638   19.421914    ( 0.0000,  0.0000,  0.0000)
  42 Pt     2.787278    4.813068   19.494953    ( 0.0000,  0.0000,  0.0000)
  43 Pd     5.742478    4.842714   19.534828    ( 0.0000,  0.0000,  0.0000)
  44 Ru     8.426791    4.971844   19.212063    ( 0.0000,  0.0000,  0.0000)
  45 O      4.146761    5.658586   20.719718    ( 0.0000,  0.0000,  0.0000)

Unit cell:
           periodic     x           y           z      points  spacing
  1. axis:    yes    8.379498    0.000000    0.000000    35     0.2073
  2. axis:    yes    4.189749    7.256858    0.000000    35     0.2073
  3. axis:    no     0.000000    0.000000   29.243062   135     0.2166

  Lengths:   8.379498   8.379498  29.243062
  Angles:   90.000000  90.000000  60.000000

Effective grid spacing dv^(1/3) = 0.2207

                     log10-error:    total        iterations:
           time      wfs    density  energy       fermi  poisson
iter:   1  02:55:57  -2.41   +inf  -182.519450    3             
iter:   2  02:57:15  -2.34  -2.30  -199.424147    4             
iter:   3  02:58:33  -2.70  -1.62  -182.074673    3             
iter:   4  02:59:52  -3.43  -2.53  -181.920382    3             
iter:   5  03:01:10  -4.08  -2.58  -181.778209    2             
iter:   6  03:02:31  -4.62  -2.94  -181.790818    3             
iter:   7  03:03:50  -4.83  -2.91  -181.782274    2             
iter:   8  03:05:12  -4.84  -2.99  -181.763244    2             
iter:   9  03:06:31  -4.72  -3.23  -181.764030    2             
iter:  10  03:07:52  -5.21  -3.29  -181.759536    2             
iter:  11  03:09:12  -5.57  -3.56  -181.757763    2             
iter:  12  03:10:31  -5.86  -3.61  -181.759033    2             
iter:  13  03:11:51  -5.94  -3.58  -181.759791    2             
iter:  14  03:13:11  -5.91  -3.66  -181.758055    2             
iter:  15  03:14:31  -6.49  -3.51  -181.757584    2             
iter:  16  03:15:51  -6.35  -3.90  -181.757957    2             
iter:  17  03:17:12  -6.67  -3.97  -181.758015    2             
iter:  18  03:18:33  -6.84  -4.08  -181.757578    2             
iter:  19  03:19:53  -6.76  -4.00  -181.758192    2             
iter:  20  03:21:13  -7.08  -4.22  -181.757939    2             
iter:  21  03:22:33  -6.92  -4.21  -181.757571    2             
iter:  22  03:23:54  -7.19  -4.32  -181.757980    2             
iter:  23  03:25:14  -7.34  -4.37  -181.758026    2             
iter:  24  03:26:36  -7.52  -4.38  -181.757743    2             

Converged after 24 iterations.

Dipole moment: (23.237663, 16.942557, -0.238828) |e|*Ang

Energy contributions relative to reference atoms: (reference = -9073453.423555)

Kinetic:       -175.166503
Potential:      +29.466296
External:        +0.000000
XC:             -30.658847
Entropy (-ST):   -2.038761
Local:           -4.379309
--------------------------
Free energy:   -182.777123
Extrapolated:  -181.757743

Fermi level: 0.82580

Showing only first 2 kpts
 Kpt  Band  Eigenvalues  Occupancy
  0   367      0.81047    0.13457
  0   368      0.83146    0.12147
  0   369      0.86341    0.10177
  0   370      0.90674    0.07701

  1   367      0.71535    0.18778
  1   368      0.73682    0.17721
  1   369      0.76420    0.16233
  1   370      0.80349    0.13889



Forces in eV/Ang:
  0 Pd    0.09744    0.50787   -0.42378
  1 Ag    0.10681    0.49171   -0.51350
  2 Pt   -0.23891    0.50770    0.82957
  3 Pd    0.09645    0.03491   -0.08074
  4 Pd    0.10830   -0.37464    0.19723
  5 Pt   -0.12658   -0.29582   -0.08548
  6 Pd   -0.17394   -0.38817   -0.05510
  7 Ag   -0.12567   -0.45238   -0.71114
  8 Pd   -0.24427   -0.30206    0.27411
  9 Ag    0.52429    0.21036    0.41677
 10 Ru    2.19819    1.27602    0.38835
 11 Ru   -1.85388    0.86243   -0.35628
 12 Pd    1.11334   -0.23467    0.03159
 13 Ru   -0.53012   -1.48058   -0.86008
 14 Ag   -0.43190    0.14557    0.29016
 15 Pd    0.19432   -0.57783    0.09209
 16 Ag   -0.18516   -0.37685    0.35223
 17 Pd   -0.36430    0.53753    0.00787
 18 Ag   -0.00012   -0.01058    0.00314
 19 Ag    0.00203   -0.00429   -0.00424
 20 Pt   -0.00931   -0.04299    0.01774
 21 Ag   -0.00610    0.00160   -0.00255
 22 Ag    0.00690    0.00116   -0.00974
 23 Ag    0.01345    0.00111    0.11949
 24 Pd    0.00536    0.01305   -0.03632
 25 Pd   -0.01035    0.00455    0.00555
 26 Ag    0.02274    0.00052    0.04703
 27 Pt    0.01201    0.06035   -0.05652
 28 Pd    0.00795   -0.01683   -0.07712
 29 Pd    0.03819   -0.01589   -0.01955
 30 Pd    0.02438   -0.01984   -0.01171
 31 Ru   -0.01152    0.05733    0.03151
 32 Pt    0.02313   -0.06010   -0.04790
 33 Ag    0.06793   -0.01529    0.10344
 34 Pt   -0.01005   -0.02439    0.07210
 35 Ru    0.01081   -0.00386   -0.00616
 36 Pd    0.04004   -0.26559    0.10381
 37 Ru   -0.08512   -0.02162   -0.01870
 38 Pd    0.07606   -0.01961    0.01994
 39 Pt   -0.01350   -0.01716    0.08917
 40 Pd    0.02929    0.05764   -0.09208
 41 Pd   -0.00425   -0.05414    0.07607
 42 Pt   -0.05134   -0.00348    0.00263
 43 Pd   -0.30117    0.22993    0.08794
 44 Ru    0.01184    0.02375    0.06185
 45 O     0.06114    0.05091   -0.11235

System changes: positions 

Initializing position-dependent things.

Density initialized from wave functions
                                            
                                            
                                            
                                            
                    O                       
                                            
                 Pt     Pd     Ru           
                   Pd     Pd                
            Pt    Ag     Pt    Ru           
       Pd    PRu    RPd    Pt               
                                            
        Pt     Pd    PPd    Pd    Ag        
                                            
                Ag     Ag     Ag            
           Ag     Ag     Pt                 
                 Pd     Ag     Pd           
            Pd     Ru     Ag                
                  Pd     Ag     Pd          
       Ag    PRu    PRu    Pt               
        Pd     Ag     Pt                    
                                            
                                            
                                            
                                            
                                            

Positions:
   0 Pd     0.000000    1.633958   10.000000    ( 0.0000,  0.0000,  0.0000)
   1 Ag     2.830098    1.633958   10.000000    ( 0.0000,  0.0000,  0.0000)
   2 Pt     5.660196    1.633958   10.000000    ( 0.0000,  0.0000,  0.0000)
   3 Pd     1.415049    4.084895   10.000000    ( 0.0000,  0.0000,  0.0000)
   4 Pd     4.245147    4.084895   10.000000    ( 0.0000,  0.0000,  0.0000)
   5 Pt     7.075245    4.084895   10.000000    ( 0.0000,  0.0000,  0.0000)
   6 Pd     2.830098    6.535832   10.000000    ( 0.0000,  0.0000,  0.0000)
   7 Ag     5.660196    6.535832   10.000000    ( 0.0000,  0.0000,  0.0000)
   8 Pd     8.490294    6.535832   10.000000    ( 0.0000,  0.0000,  0.0000)
   9 Ag     0.000000    0.000000   12.310765    ( 0.0000,  0.0000,  0.0000)
  10 Ru     2.830098    0.000000   12.310765    ( 0.0000,  0.0000,  0.0000)
  11 Ru     5.660196    0.000000   12.310765    ( 0.0000,  0.0000,  0.0000)
  12 Pd     1.415049    2.450937   12.310765    ( 0.0000,  0.0000,  0.0000)
  13 Ru     4.245147    2.450937   12.310765    ( 0.0000,  0.0000,  0.0000)
  14 Ag     7.075245    2.450937   12.310765    ( 0.0000,  0.0000,  0.0000)
  15 Pd     2.830098    4.901874   12.310765    ( 0.0000,  0.0000,  0.0000)
  16 Ag     5.660196    4.901874   12.310765    ( 0.0000,  0.0000,  0.0000)
  17 Pd     8.490294    4.901874   12.310765    ( 0.0000,  0.0000,  0.0000)
  18 Ag     1.419030    0.842019   14.685735    ( 0.0000,  0.0000,  0.0000)
  19 Ag     4.226803    0.833248   14.671844    ( 0.0000,  0.0000,  0.0000)
  20 Pt     7.001968    0.829941   14.673024    ( 0.0000,  0.0000,  0.0000)
  21 Ag     2.845581    3.278120   14.702478    ( 0.0000,  0.0000,  0.0000)
  22 Ag     5.612929    3.273302   14.715284    ( 0.0000,  0.0000,  0.0000)
  23 Ag     8.407763    3.277554   14.721250    ( 0.0000,  0.0000,  0.0000)
  24 Pd     4.227871    5.666536   14.780861    ( 0.0000,  0.0000,  0.0000)
  25 Pd     7.032390    5.715260   14.697936    ( 0.0000,  0.0000,  0.0000)
  26 Ag     9.811767    5.682225   14.701850    ( 0.0000,  0.0000,  0.0000)
  27 Pt     0.034891    1.648474   17.090286    ( 0.0000,  0.0000,  0.0000)
  28 Pd     2.864462    1.666873   17.070717    ( 0.0000,  0.0000,  0.0000)
  29 Pd     5.590551    1.654172   17.071267    ( 0.0000,  0.0000,  0.0000)
  30 Pd     1.481312    4.093760   17.114383    ( 0.0000,  0.0000,  0.0000)
  31 Ru     4.278107    4.060458   17.206205    ( 0.0000,  0.0000,  0.0000)
  32 Pt     6.975736    4.089271   17.127593    ( 0.0000,  0.0000,  0.0000)
  33 Ag     2.798513    6.496140   17.083677    ( 0.0000,  0.0000,  0.0000)
  34 Pt     5.622883    6.451329   17.066909    ( 0.0000,  0.0000,  0.0000)
  35 Ru     8.292088    6.441268   17.193527    ( 0.0000,  0.0000,  0.0000)
  36 Pd     0.118499    0.091589   19.459554    ( 0.0000,  0.0000,  0.0000)
  37 Ru     2.936866   -0.029943   19.210295    ( 0.0000,  0.0000,  0.0000)
  38 Pd     5.592461    0.016419   19.429671    ( 0.0000,  0.0000,  0.0000)
  39 Pt     1.445530    2.468624   19.373114    ( 0.0000,  0.0000,  0.0000)
  40 Pd     4.202216    2.403539   19.434779    ( 0.0000,  0.0000,  0.0000)
  41 Pd     7.086719    2.481864   19.429288    ( 0.0000,  0.0000,  0.0000)
  42 Pt     2.777830    4.807681   19.495728    ( 0.0000,  0.0000,  0.0000)
  43 Pd     5.722467    4.859291   19.539596    ( 0.0000,  0.0000,  0.0000)
  44 Ru     8.427935    4.973414   19.217252    ( 0.0000,  0.0000,  0.0000)
  45 O      4.142753    5.659901   20.715785    ( 0.0000,  0.0000,  0.0000)

Unit cell:
           periodic     x           y           z      points  spacing
  1. axis:    yes    8.379498    0.000000    0.000000    35     0.2073
  2. axis:    yes    4.189749    7.256858    0.000000    35     0.2073
  3. axis:    no     0.000000    0.000000   29.243062   135     0.2166

  Lengths:   8.379498   8.379498  29.243062
  Angles:   90.000000  90.000000  60.000000

Effective grid spacing dv^(1/3) = 0.2207

                     log10-error:    total        iterations:
           time      wfs    density  energy       fermi  poisson
iter:   1  03:28:29  -3.03   +inf  -181.967793    3             
iter:   2  03:29:50  -2.83  -2.59  -189.829168    4             
iter:   3  03:31:10  -3.01  -1.75  -181.872824    3             
iter:   4  03:32:29  -4.35  -2.81  -181.782228    3             
iter:   5  03:33:49  -4.87  -3.35  -181.774346    2             
iter:   6  03:35:09  -5.49  -3.43  -181.775709    2             
iter:   7  03:36:27  -5.72  -3.54  -181.775862    2             
iter:   8  03:37:45  -5.97  -3.47  -181.773836    2             
iter:   9  03:39:03  -5.85  -3.57  -181.777629    2             
iter:  10  03:40:21  -5.70  -3.44  -181.773624    2             
iter:  11  03:41:40  -6.09  -3.93  -181.773478    2             
iter:  12  03:43:00  -6.75  -3.99  -181.773735    2             
iter:  13  03:44:17  -6.82  -4.03  -181.773748    2             
iter:  14  03:45:35  -6.82  -4.10  -181.773346    2             
iter:  15  03:46:53  -6.55  -4.10  -181.773883    2             
iter:  16  03:48:11  -7.06  -4.03  -181.773478    2             
iter:  17  03:49:29  -7.27  -4.38  -181.773412    1             
iter:  18  03:50:47  -7.51  -4.46  -181.773495    2             

Converged after 18 iterations.

Dipole moment: (23.359058, 17.469381, -0.234081) |e|*Ang

Energy contributions relative to reference atoms: (reference = -9073453.423555)

Kinetic:       -175.783863
Potential:      +29.987391
External:        +0.000000
XC:             -30.583601
Entropy (-ST):   -2.038140
Local:           -4.374353
--------------------------
Free energy:   -182.792565
Extrapolated:  -181.773495

Fermi level: 0.82799

Showing only first 2 kpts
 Kpt  Band  Eigenvalues  Occupancy
  0   367      0.81182    0.13508
  0   368      0.83343    0.12160
  0   369      0.86524    0.10198
  0   370      0.90942    0.07674

  1   367      0.71775    0.18768
  1   368      0.73835    0.17755
  1   369      0.76693    0.16202
  1   370      0.80393    0.13996



Forces in eV/Ang:
  0 Pd    0.09902    0.50472   -0.42657
  1 Ag    0.10639    0.49095   -0.51378
  2 Pt   -0.24070    0.50667    0.82713
  3 Pd    0.09719    0.03476   -0.08211
  4 Pd    0.10906   -0.37325    0.19891
  5 Pt   -0.12904   -0.29229   -0.08847
  6 Pd   -0.17151   -0.38837   -0.05520
  7 Ag   -0.12586   -0.45258   -0.71115
  8 Pd   -0.24636   -0.30210    0.27310
  9 Ag    0.52701    0.21355    0.41145
 10 Ru    2.19792    1.27665    0.39126
 11 Ru   -1.85913    0.85365   -0.34814
 12 Pd    1.10895   -0.22960    0.05022
 13 Ru   -0.53643   -1.48025   -0.85759
 14 Ag   -0.41947    0.14937    0.31674
 15 Pd    0.18827   -0.57978    0.09549
 16 Ag   -0.18293   -0.37621    0.34877
 17 Pd   -0.35859    0.53285    0.03630
 18 Ag   -0.00303   -0.02456    0.00322
 19 Ag    0.00126   -0.00729   -0.00789
 20 Pt    0.00968   -0.02154    0.02461
 21 Ag    0.01324    0.00111   -0.01680
 22 Ag   -0.00712    0.00249   -0.00436
 23 Ag    0.00747    0.00359    0.03302
 24 Pd    0.01486    0.01516    0.00521
 25 Pd   -0.00984    0.00486    0.01478
 26 Ag    0.00419    0.00395    0.03885
 27 Pt    0.01453   -0.00241    0.03604
 28 Pd   -0.00060   -0.02568   -0.02027
 29 Pd    0.02674   -0.01245    0.00291
 30 Pd   -0.01162   -0.01827   -0.01114
 31 Ru    0.03831    0.00715    0.01349
 32 Pt   -0.00766   -0.00498    0.06326
 33 Ag    0.04726    0.03322    0.03528
 34 Pt    0.00428   -0.02671    0.00338
 35 Ru    0.01167   -0.01791    0.03498
 36 Pd   -0.00388   -0.03114    0.01673
 37 Ru    0.01389   -0.00116   -0.00503
 38 Pd   -0.00892    0.00366    0.01035
 39 Pt   -0.05472   -0.11574    0.02690
 40 Pd    0.03774    0.02589   -0.08242
 41 Pd   -0.01997    0.02491    0.02128
 42 Pt   -0.01018    0.03640    0.03281
 43 Pd   -0.06570    0.01116   -0.03470
 44 Ru   -0.08175    0.02817    0.00165
 45 O    -0.14635   -0.04038    0.15326

System changes: positions 

Initializing position-dependent things.

Density initialized from wave functions
                                            
                                            
                                            
                                            
                    O                       
                                            
                 Pt     Pd     Ru           
                          Pd                
            Pt    APd    Pt    Ru           
       Pd    PRu    RPd    Pt               
                                            
        Pt     Pd    PPd    Pd    Ag        
                                            
                Ag     Ag     Ag            
           Ag     Ag     Pt                 
                 Pd     Ag     Pd           
            Pd     Ru     Ag                
                  Pd     Ag     Pd          
       Ag    PRu    PRu    Pt               
        Pd     Ag     Pt                    
                                            
                                            
                                            
                                            
                                            

Positions:
   0 Pd     0.000000    1.633958   10.000000    ( 0.0000,  0.0000,  0.0000)
   1 Ag     2.830098    1.633958   10.000000    ( 0.0000,  0.0000,  0.0000)
   2 Pt     5.660196    1.633958   10.000000    ( 0.0000,  0.0000,  0.0000)
   3 Pd     1.415049    4.084895   10.000000    ( 0.0000,  0.0000,  0.0000)
   4 Pd     4.245147    4.084895   10.000000    ( 0.0000,  0.0000,  0.0000)
   5 Pt     7.075245    4.084895   10.000000    ( 0.0000,  0.0000,  0.0000)
   6 Pd     2.830098    6.535832   10.000000    ( 0.0000,  0.0000,  0.0000)
   7 Ag     5.660196    6.535832   10.000000    ( 0.0000,  0.0000,  0.0000)
   8 Pd     8.490294    6.535832   10.000000    ( 0.0000,  0.0000,  0.0000)
   9 Ag     0.000000    0.000000   12.310765    ( 0.0000,  0.0000,  0.0000)
  10 Ru     2.830098    0.000000   12.310765    ( 0.0000,  0.0000,  0.0000)
  11 Ru     5.660196    0.000000   12.310765    ( 0.0000,  0.0000,  0.0000)
  12 Pd     1.415049    2.450937   12.310765    ( 0.0000,  0.0000,  0.0000)
  13 Ru     4.245147    2.450937   12.310765    ( 0.0000,  0.0000,  0.0000)
  14 Ag     7.075245    2.450937   12.310765    ( 0.0000,  0.0000,  0.0000)
  15 Pd     2.830098    4.901874   12.310765    ( 0.0000,  0.0000,  0.0000)
  16 Ag     5.660196    4.901874   12.310765    ( 0.0000,  0.0000,  0.0000)
  17 Pd     8.490294    4.901874   12.310765    ( 0.0000,  0.0000,  0.0000)
  18 Ag     1.418403    0.839442   14.686059    ( 0.0000,  0.0000,  0.0000)
  19 Ag     4.227047    0.832211   14.670899    ( 0.0000,  0.0000,  0.0000)
  20 Pt     7.002575    0.825259   14.676456    ( 0.0000,  0.0000,  0.0000)
  21 Ag     2.846344    3.278544   14.700813    ( 0.0000,  0.0000,  0.0000)
  22 Ag     5.613101    3.273359   14.714136    ( 0.0000,  0.0000,  0.0000)
  23 Ag     8.409376    3.277842   14.733090    ( 0.0000,  0.0000,  0.0000)
  24 Pd     4.229763    5.668851   14.778926    ( 0.0000,  0.0000,  0.0000)
  25 Pd     7.031536    5.715718   14.699875    ( 0.0000,  0.0000,  0.0000)
  26 Ag     9.813559    5.682086   14.709646    ( 0.0000,  0.0000,  0.0000)
  27 Pt     0.037691    1.650948   17.093243    ( 0.0000,  0.0000,  0.0000)
  28 Pd     2.864721    1.663205   17.063374    ( 0.0000,  0.0000,  0.0000)
  29 Pd     5.596163    1.651021   17.070039    ( 0.0000,  0.0000,  0.0000)
  30 Pd     1.483657    4.091435   17.116399    ( 0.0000,  0.0000,  0.0000)
  31 Ru     4.280672    4.064495   17.204893    ( 0.0000,  0.0000,  0.0000)
  32 Pt     6.976146    4.085804   17.134220    ( 0.0000,  0.0000,  0.0000)
  33 Ag     2.808272    6.498007   17.095174    ( 0.0000,  0.0000,  0.0000)
  34 Pt     5.623179    6.446830   17.071003    ( 0.0000,  0.0000,  0.0000)
  35 Ru     8.294070    6.438097   17.197912    ( 0.0000,  0.0000,  0.0000)
  36 Pd     0.121179    0.079456   19.465967    ( 0.0000,  0.0000,  0.0000)
  37 Ru     2.934617   -0.029893   19.208360    ( 0.0000,  0.0000,  0.0000)
  38 Pd     5.595071    0.016385   19.431768    ( 0.0000,  0.0000,  0.0000)
  39 Pt     1.439570    2.455616   19.381462    ( 0.0000,  0.0000,  0.0000)
  40 Pd     4.207185    2.408950   19.418136    ( 0.0000,  0.0000,  0.0000)
  41 Pd     7.084302    2.481627   19.436997    ( 0.0000,  0.0000,  0.0000)
  42 Pt     2.769464    4.807671   19.503103    ( 0.0000,  0.0000,  0.0000)
  43 Pd     5.702632    4.870681   19.539109    ( 0.0000,  0.0000,  0.0000)
  44 Ru     8.419080    4.977411   19.221205    ( 0.0000,  0.0000,  0.0000)
  45 O      4.119603    5.655675   20.728271    ( 0.0000,  0.0000,  0.0000)

Unit cell:
           periodic     x           y           z      points  spacing
  1. axis:    yes    8.379498    0.000000    0.000000    35     0.2073
  2. axis:    yes    4.189749    7.256858    0.000000    35     0.2073
  3. axis:    no     0.000000    0.000000   29.243062   135     0.2166

  Lengths:   8.379498   8.379498  29.243062
  Angles:   90.000000  90.000000  60.000000

Effective grid spacing dv^(1/3) = 0.2207

                     log10-error:    total        iterations:
           time      wfs    density  energy       fermi  poisson
iter:   1  03:52:39  -2.98   +inf  -181.817525    2             
iter:   2  03:53:56  -3.73  -2.95  -182.402724    3             
iter:   3  03:55:13  -4.09  -2.30  -181.792355    2             
iter:   4  03:56:32  -4.79  -3.24  -181.788178    2             
iter:   5  03:57:49  -5.11  -3.15  -181.785233    2             
iter:   6  03:59:05  -5.41  -3.44  -181.781308    2             
iter:   7  04:00:23  -5.67  -3.59  -181.780792    2             
iter:   8  04:01:42  -5.78  -3.71  -181.781716    2             
iter:   9  04:03:01  -5.88  -3.80  -181.781660    2             
iter:  10  04:04:18  -6.19  -3.88  -181.782166    2             
iter:  11  04:05:36  -6.31  -3.57  -181.781515    2             
iter:  12  04:06:53  -6.74  -3.95  -181.781576    2             
iter:  13  04:08:12  -6.92  -4.08  -181.781250    2             
iter:  14  04:09:30  -7.07  -4.13  -181.781404    2             
iter:  15  04:10:48  -7.13  -4.22  -181.781418    2             
iter:  16  04:12:06  -7.06  -4.28  -181.781210    2             
iter:  17  04:13:23  -7.54  -4.04  -181.781249    2             

Converged after 17 iterations.

Dipole moment: (23.499560, 17.732619, -0.234480) |e|*Ang

Energy contributions relative to reference atoms: (reference = -9073453.423555)

Kinetic:       -175.974510
Potential:      +30.143160
External:        +0.000000
XC:             -30.552478
Entropy (-ST):   -2.037952
Local:           -4.378445
--------------------------
Free energy:   -182.800225
Extrapolated:  -181.781249

Fermi level: 0.82761

Showing only first 2 kpts
 Kpt  Band  Eigenvalues  Occupancy
  0   367      0.81172    0.13491
  0   368      0.83360    0.12126
  0   369      0.86395    0.10253
  0   370      0.90939    0.07655

  1   367      0.71846    0.18716
  1   368      0.73770    0.17769
  1   369      0.76740    0.16153
  1   370      0.80288    0.14038



Forces in eV/Ang:
  0 Pd    0.09838    0.50690   -0.42354
  1 Ag    0.10586    0.49083   -0.51275
  2 Pt   -0.23956    0.50601    0.82878
  3 Pd    0.09593    0.03522   -0.07889
  4 Pd    0.10789   -0.37396    0.19679
  5 Pt   -0.12631   -0.29304   -0.08628
  6 Pd   -0.17271   -0.38879   -0.05737
  7 Ag   -0.12506   -0.45203   -0.71250
  8 Pd   -0.24542   -0.30323    0.27495
  9 Ag    0.52160    0.22242    0.40723
 10 Ru    2.19860    1.27237    0.38822
 11 Ru   -1.85765    0.84217   -0.33227
 12 Pd    1.09252   -0.22464    0.06085
 13 Ru   -0.53114   -1.48334   -0.86606
 14 Ag   -0.40664    0.14857    0.34677
 15 Pd    0.17473   -0.57212    0.09985
 16 Ag   -0.17475   -0.37741    0.34828
 17 Pd   -0.35098    0.52901    0.06669
 18 Ag   -0.00100   -0.00161    0.00021
 19 Ag    0.01042   -0.00758   -0.00874
 20 Pt    0.01014    0.03017    0.00301
 21 Ag    0.01566    0.00034   -0.01381
 22 Ag    0.00986   -0.00795    0.00553
 23 Ag   -0.01732   -0.00461   -0.03783
 24 Pd   -0.00005   -0.00616    0.01157
 25 Pd    0.01616   -0.01623    0.01498
 26 Ag   -0.00951    0.00495    0.01141
 27 Pt    0.01451   -0.02770    0.05260
 28 Pd    0.01020   -0.00090    0.01899
 29 Pd   -0.00310   -0.01147   -0.00874
 30 Pd    0.00896   -0.00669    0.09065
 31 Ru   -0.01989   -0.05397    0.00369
 32 Pt   -0.00317   -0.00413    0.03642
 33 Ag   -0.01961   -0.00055   -0.01299
 34 Pt    0.04438    0.01682   -0.05532
 35 Ru    0.03056    0.00825   -0.03237
 36 Pd   -0.04731    0.04189    0.05012
 37 Ru    0.03038    0.05428    0.04218
 38 Pd   -0.06016    0.02871    0.01140
 39 Pt    0.05144    0.00764   -0.04024
 40 Pd   -0.02633    0.00665   -0.04939
 41 Pd   -0.03408    0.04442    0.01191
 42 Pt   -0.11205   -0.09599   -0.04856
 43 Pd    0.00003   -0.07143    0.01643
 44 Ru   -0.00367   -0.04065    0.01667
 45 O     0.06012    0.04096    0.15291

System changes: positions 

Initializing position-dependent things.

Density initialized from wave functions
                                            
                                            
                                            
                                            
                    O                       
                                            
                 Pt     Pd     Ru           
                          Pd                
            Pt    APd    Pt    Ru           
       Pd    PRu    RPd    Pt               
                                            
        Pt     Pd    PPd    Pd    Ag        
                                            
                Ag     Ag     Ag            
           Ag     Ag     Pt                 
                 Pd     Ag     Pd           
            Pd     Ru     Ag                
                  Pd     Ag     Pd          
       Ag    PRu    PRu    Pt               
        Pd     Ag     Pt                    
                                            
                                            
                                            
                                            
                                            

Positions:
   0 Pd     0.000000    1.633958   10.000000    ( 0.0000,  0.0000,  0.0000)
   1 Ag     2.830098    1.633958   10.000000    ( 0.0000,  0.0000,  0.0000)
   2 Pt     5.660196    1.633958   10.000000    ( 0.0000,  0.0000,  0.0000)
   3 Pd     1.415049    4.084895   10.000000    ( 0.0000,  0.0000,  0.0000)
   4 Pd     4.245147    4.084895   10.000000    ( 0.0000,  0.0000,  0.0000)
   5 Pt     7.075245    4.084895   10.000000    ( 0.0000,  0.0000,  0.0000)
   6 Pd     2.830098    6.535832   10.000000    ( 0.0000,  0.0000,  0.0000)
   7 Ag     5.660196    6.535832   10.000000    ( 0.0000,  0.0000,  0.0000)
   8 Pd     8.490294    6.535832   10.000000    ( 0.0000,  0.0000,  0.0000)
   9 Ag     0.000000    0.000000   12.310765    ( 0.0000,  0.0000,  0.0000)
  10 Ru     2.830098    0.000000   12.310765    ( 0.0000,  0.0000,  0.0000)
  11 Ru     5.660196    0.000000   12.310765    ( 0.0000,  0.0000,  0.0000)
  12 Pd     1.415049    2.450937   12.310765    ( 0.0000,  0.0000,  0.0000)
  13 Ru     4.245147    2.450937   12.310765    ( 0.0000,  0.0000,  0.0000)
  14 Ag     7.075245    2.450937   12.310765    ( 0.0000,  0.0000,  0.0000)
  15 Pd     2.830098    4.901874   12.310765    ( 0.0000,  0.0000,  0.0000)
  16 Ag     5.660196    4.901874   12.310765    ( 0.0000,  0.0000,  0.0000)
  17 Pd     8.490294    4.901874   12.310765    ( 0.0000,  0.0000,  0.0000)
  18 Ag     1.418040    0.837852   14.686299    ( 0.0000,  0.0000,  0.0000)
  19 Ag     4.228102    0.830977   14.669633    ( 0.0000,  0.0000,  0.0000)
  20 Pt     7.003741    0.825437   14.678479    ( 0.0000,  0.0000,  0.0000)
  21 Ag     2.848162    3.278771   14.698717    ( 0.0000,  0.0000,  0.0000)
  22 Ag     5.614038    3.272713   14.714078    ( 0.0000,  0.0000,  0.0000)
  23 Ag     8.408621    3.277605   14.735790    ( 0.0000,  0.0000,  0.0000)
  24 Pd     4.230734    5.669542   14.778974    ( 0.0000,  0.0000,  0.0000)
  25 Pd     7.032478    5.714552   14.702253    ( 0.0000,  0.0000,  0.0000)
  26 Ag     9.813683    5.682575   14.714585    ( 0.0000,  0.0000,  0.0000)
  27 Pt     0.040320    1.650048   17.099107    ( 0.0000,  0.0000,  0.0000)
  28 Pd     2.865892    1.661210   17.061272    ( 0.0000,  0.0000,  0.0000)
  29 Pd     5.598692    1.648408   17.068572    ( 0.0000,  0.0000,  0.0000)
  30 Pd     1.485514    4.089486   17.125421    ( 0.0000,  0.0000,  0.0000)
  31 Ru     4.280189    4.061564   17.204508    ( 0.0000,  0.0000,  0.0000)
  32 Pt     6.976189    4.083214   17.140225    ( 0.0000,  0.0000,  0.0000)
  33 Ag     2.811366    6.499005   17.099629    ( 0.0000,  0.0000,  0.0000)
  34 Pt     5.627314    6.446207   17.067846    ( 0.0000,  0.0000,  0.0000)
  35 Ru     8.297913    6.437629   17.196799    ( 0.0000,  0.0000,  0.0000)
  36 Pd     0.118195    0.074759   19.475311    ( 0.0000,  0.0000,  0.0000)
  37 Ru     2.935962   -0.024886   19.211300    ( 0.0000,  0.0000,  0.0000)
  38 Pd     5.591156    0.018925   19.433938    ( 0.0000,  0.0000,  0.0000)
  39 Pt     1.441152    2.449974   19.382188    ( 0.0000,  0.0000,  0.0000)
  40 Pd     4.207419    2.412205   19.405446    ( 0.0000,  0.0000,  0.0000)
  41 Pd     7.080081    2.485225   19.442089    ( 0.0000,  0.0000,  0.0000)
  42 Pt     2.755779    4.799692   19.503210    ( 0.0000,  0.0000,  0.0000)
  43 Pd     5.690579    4.871312   19.541887    ( 0.0000,  0.0000,  0.0000)
  44 Ru     8.414789    4.975615   19.225153    ( 0.0000,  0.0000,  0.0000)
  45 O      4.115787    5.658455   20.744503    ( 0.0000,  0.0000,  0.0000)

Unit cell:
           periodic     x           y           z      points  spacing
  1. axis:    yes    8.379498    0.000000    0.000000    35     0.2073
  2. axis:    yes    4.189749    7.256858    0.000000    35     0.2073
  3. axis:    no     0.000000    0.000000   29.243062   135     0.2166

  Lengths:   8.379498   8.379498  29.243062
  Angles:   90.000000  90.000000  60.000000

Effective grid spacing dv^(1/3) = 0.2207

                     log10-error:    total        iterations:
           time      wfs    density  energy       fermi  poisson
iter:   1  04:15:12  -3.25   +inf  -181.809516    2             
iter:   2  04:16:28  -4.23  -3.07  -181.788519    2             
iter:   3  04:17:47  -4.56  -3.31  -181.824631    3             
iter:   4  04:19:06  -4.53  -2.89  -181.852095    2             
iter:   5  04:20:23  -5.00  -2.74  -181.785573    2             
iter:   6  04:21:39  -5.77  -3.53  -181.783433    2             
iter:   7  04:22:56  -6.02  -3.64  -181.784028    2             
iter:   8  04:24:12  -5.81  -3.63  -181.784166    2             
iter:   9  04:25:28  -5.84  -3.69  -181.782226    2             
iter:  10  04:26:46  -6.17  -3.97  -181.783877    2             
iter:  11  04:28:03  -6.32  -3.76  -181.783686    2             
iter:  12  04:29:19  -6.55  -3.96  -181.782698    2             
iter:  13  04:30:35  -7.20  -4.09  -181.782547    2             
iter:  14  04:31:53  -7.36  -4.23  -181.782765    2             
iter:  15  04:33:10  -7.30  -4.33  -181.782654    2             
iter:  16  04:34:27  -7.62  -4.22  -181.782725    2             

Converged after 16 iterations.

Dipole moment: (23.715310, 17.529547, -0.242325) |e|*Ang

Energy contributions relative to reference atoms: (reference = -9073453.423555)

Kinetic:       -177.200145
Potential:      +31.170177
External:        +0.000000
XC:             -30.339777
Entropy (-ST):   -2.040208
Local:           -4.392875
--------------------------
Free energy:   -182.802829
Extrapolated:  -181.782725

Fermi level: 0.82359

Showing only first 2 kpts
 Kpt  Band  Eigenvalues  Occupancy
  0   367      0.80822    0.13459
  0   368      0.82951    0.12130
  0   369      0.86061    0.10212
  0   370      0.90491    0.07680

  1   367      0.71534    0.18674
  1   368      0.73379    0.17763
  1   369      0.76379    0.16130
  1   370      0.79891    0.14034



Forces in eV/Ang:
  0 Pd    0.09795    0.50778   -0.42285
  1 Ag    0.10631    0.49075   -0.51266
  2 Pt   -0.23970    0.50661    0.83078
  3 Pd    0.09558    0.03483   -0.07895
  4 Pd    0.10844   -0.37515    0.19731
  5 Pt   -0.12675   -0.29425   -0.08450
  6 Pd   -0.17367   -0.38867   -0.05687
  7 Ag   -0.12488   -0.45198   -0.71225
  8 Pd   -0.24457   -0.30222    0.27642
  9 Ag    0.51907    0.21897    0.41082
 10 Ru    2.19624    1.26957    0.39042
 11 Ru   -1.85251    0.83759   -0.32804
 12 Pd    1.09336   -0.22451    0.06678
 13 Ru   -0.52841   -1.48345   -0.86800
 14 Ag   -0.40786    0.14720    0.34527
 15 Pd    0.17311   -0.56521    0.10965
 16 Ag   -0.17546   -0.37534    0.35257
 17 Pd   -0.34721    0.53092    0.07769
 18 Ag    0.00527    0.02728   -0.00347
 19 Ag    0.00265    0.00158   -0.01533
 20 Pt    0.01286    0.01963   -0.00295
 21 Ag   -0.01222    0.00084    0.00265
 22 Ag    0.00592    0.00204    0.01290
 23 Ag    0.01148   -0.00539   -0.01766
 24 Pd   -0.01657   -0.01936    0.01984
 25 Pd    0.01611   -0.02078   -0.00164
 26 Ag    0.00628   -0.01538   -0.00174
 27 Pt   -0.00376   -0.03599    0.02955
 28 Pd   -0.00325   -0.01769   -0.01934
 29 Pd    0.00759   -0.00793   -0.01762
 30 Pd   -0.02598    0.00674   -0.02707
 31 Ru    0.01452    0.02316   -0.01716
 32 Pt   -0.01060    0.02672    0.01737
 33 Ag    0.00661   -0.02551   -0.00661
 34 Pt    0.01391   -0.00901    0.04147
 35 Ru   -0.02008   -0.01336    0.05237
 36 Pd   -0.06851    0.03184    0.00407
 37 Ru   -0.01319   -0.04004   -0.03294
 38 Pd   -0.01157   -0.02805    0.01277
 39 Pt   -0.01390   -0.07903   -0.00633
 40 Pd   -0.00692    0.00911    0.03816
 41 Pd    0.00358    0.00621    0.00278
 42 Pt    0.15195    0.13807    0.13767
 43 Pd    0.01199   -0.03704   -0.01825
 44 Ru   -0.05469    0.04841   -0.00599
 45 O    -0.09259   -0.06133   -0.08212

System changes: positions 

Initializing position-dependent things.

Density initialized from wave functions
                                            
                                            
                                            
                                            
                    O                       
                                            
                 Pt     Pd     Ru           
                          Pd                
            Pt    APd    Pt    Ru           
       Pd    PRu    RPd    Pt               
                                            
        Pt     Pd    PPd    Pd    Ag        
                                            
                Ag     Ag     Ag            
           Ag     Ag     Pt                 
                 Pd     Ag     Pd           
            Pd     Ru     Ag                
                  Pd     Ag     Pd          
       Ag    PRu    PRu    Pt               
        Pd     Ag     Pt                    
                                            
                                            
                                            
                                            
                                            

Positions:
   0 Pd     0.000000    1.633958   10.000000    ( 0.0000,  0.0000,  0.0000)
   1 Ag     2.830098    1.633958   10.000000    ( 0.0000,  0.0000,  0.0000)
   2 Pt     5.660196    1.633958   10.000000    ( 0.0000,  0.0000,  0.0000)
   3 Pd     1.415049    4.084895   10.000000    ( 0.0000,  0.0000,  0.0000)
   4 Pd     4.245147    4.084895   10.000000    ( 0.0000,  0.0000,  0.0000)
   5 Pt     7.075245    4.084895   10.000000    ( 0.0000,  0.0000,  0.0000)
   6 Pd     2.830098    6.535832   10.000000    ( 0.0000,  0.0000,  0.0000)
   7 Ag     5.660196    6.535832   10.000000    ( 0.0000,  0.0000,  0.0000)
   8 Pd     8.490294    6.535832   10.000000    ( 0.0000,  0.0000,  0.0000)
   9 Ag     0.000000    0.000000   12.310765    ( 0.0000,  0.0000,  0.0000)
  10 Ru     2.830098    0.000000   12.310765    ( 0.0000,  0.0000,  0.0000)
  11 Ru     5.660196    0.000000   12.310765    ( 0.0000,  0.0000,  0.0000)
  12 Pd     1.415049    2.450937   12.310765    ( 0.0000,  0.0000,  0.0000)
  13 Ru     4.245147    2.450937   12.310765    ( 0.0000,  0.0000,  0.0000)
  14 Ag     7.075245    2.450937   12.310765    ( 0.0000,  0.0000,  0.0000)
  15 Pd     2.830098    4.901874   12.310765    ( 0.0000,  0.0000,  0.0000)
  16 Ag     5.660196    4.901874   12.310765    ( 0.0000,  0.0000,  0.0000)
  17 Pd     8.490294    4.901874   12.310765    ( 0.0000,  0.0000,  0.0000)
  18 Ag     1.418167    0.838411   14.686215    ( 0.0000,  0.0000,  0.0000)
  19 Ag     4.227731    0.831411   14.670079    ( 0.0000,  0.0000,  0.0000)
  20 Pt     7.003331    0.825374   14.677767    ( 0.0000,  0.0000,  0.0000)
  21 Ag     2.847523    3.278691   14.699455    ( 0.0000,  0.0000,  0.0000)
  22 Ag     5.613708    3.272940   14.714098    ( 0.0000,  0.0000,  0.0000)
  23 Ag     8.408887    3.277688   14.734840    ( 0.0000,  0.0000,  0.0000)
  24 Pd     4.230392    5.669299   14.778957    ( 0.0000,  0.0000,  0.0000)
  25 Pd     7.032146    5.714962   14.701416    ( 0.0000,  0.0000,  0.0000)
  26 Ag     9.813639    5.682403   14.712847    ( 0.0000,  0.0000,  0.0000)
  27 Pt     0.039395    1.650364   17.097043    ( 0.0000,  0.0000,  0.0000)
  28 Pd     2.865480    1.661912   17.062012    ( 0.0000,  0.0000,  0.0000)
  29 Pd     5.597802    1.649327   17.069088    ( 0.0000,  0.0000,  0.0000)
  30 Pd     1.484860    4.090172   17.122246    ( 0.0000,  0.0000,  0.0000)
  31 Ru     4.280359    4.062596   17.204644    ( 0.0000,  0.0000,  0.0000)
  32 Pt     6.976174    4.084125   17.138112    ( 0.0000,  0.0000,  0.0000)
  33 Ag     2.810277    6.498654   17.098061    ( 0.0000,  0.0000,  0.0000)
  34 Pt     5.625859    6.446426   17.068957    ( 0.0000,  0.0000,  0.0000)
  35 Ru     8.296561    6.437794   17.197191    ( 0.0000,  0.0000,  0.0000)
  36 Pd     0.119245    0.076412   19.472023    ( 0.0000,  0.0000,  0.0000)
  37 Ru     2.935488   -0.026648   19.210265    ( 0.0000,  0.0000,  0.0000)
  38 Pd     5.592534    0.018031   19.433174    ( 0.0000,  0.0000,  0.0000)
  39 Pt     1.440596    2.451959   19.381933    ( 0.0000,  0.0000,  0.0000)
  40 Pd     4.207337    2.411059   19.409912    ( 0.0000,  0.0000,  0.0000)
  41 Pd     7.081567    2.483959   19.440297    ( 0.0000,  0.0000,  0.0000)
  42 Pt     2.760595    4.802500   19.503173    ( 0.0000,  0.0000,  0.0000)
  43 Pd     5.694820    4.871090   19.540909    ( 0.0000,  0.0000,  0.0000)
  44 Ru     8.416299    4.976247   19.223764    ( 0.0000,  0.0000,  0.0000)
  45 O      4.117130    5.657477   20.738791    ( 0.0000,  0.0000,  0.0000)

Unit cell:
           periodic     x           y           z      points  spacing
  1. axis:    yes    8.379498    0.000000    0.000000    35     0.2073
  2. axis:    yes    4.189749    7.256858    0.000000    35     0.2073
  3. axis:    no     0.000000    0.000000   29.243062   135     0.2166

  Lengths:   8.379498   8.379498  29.243062
  Angles:   90.000000  90.000000  60.000000

Effective grid spacing dv^(1/3) = 0.2207

                     log10-error:    total        iterations:
           time      wfs    density  energy       fermi  poisson
iter:   1  04:36:16  -4.17   +inf  -181.792309    2             
iter:   2  04:37:34  -4.65  -3.39  -181.861857    2             
iter:   3  04:38:52  -4.71  -2.72  -181.803411    2             
iter:   4  04:40:08  -5.44  -3.07  -181.790393    3             
iter:   5  04:41:25  -5.92  -3.39  -181.784181    2             
iter:   6  04:42:42  -6.45  -3.98  -181.783013    2             
iter:   7  04:43:59  -7.02  -4.02  -181.783463    2             
iter:   8  04:45:18  -6.96  -4.26  -181.783363    2             
iter:   9  04:46:37  -7.06  -4.24  -181.783008    2             
iter:  10  04:47:54  -6.88  -4.31  -181.783387    2             
iter:  11  04:49:13  -7.54  -4.50  -181.783402    2             

Converged after 11 iterations.

Dipole moment: (23.639830, 17.604076, -0.239982) |e|*Ang

Energy contributions relative to reference atoms: (reference = -9073453.423555)

Kinetic:       -176.774025
Potential:      +30.801315
External:        +0.000000
XC:             -30.416168
Entropy (-ST):   -2.039201
Local:           -4.374924
--------------------------
Free energy:   -182.803003
Extrapolated:  -181.783402

Fermi level: 0.82490

Showing only first 2 kpts
 Kpt  Band  Eigenvalues  Occupancy
  0   367      0.80933    0.13471
  0   368      0.83087    0.12127
  0   369      0.86167    0.10227
  0   370      0.90646    0.07668

  1   367      0.71633    0.18690
  1   368      0.73505    0.17766
  1   369      0.76503    0.16134
  1   370      0.80032    0.14029



Forces in eV/Ang:
  0 Pd    0.09841    0.50750   -0.42110
  1 Ag    0.10690    0.49059   -0.51198
  2 Pt   -0.24086    0.50634    0.83333
  3 Pd    0.09592    0.03431   -0.07716
  4 Pd    0.10856   -0.37581    0.19897
  5 Pt   -0.12718   -0.29474   -0.08250
  6 Pd   -0.17357   -0.38818   -0.05476
  7 Ag   -0.12479   -0.45147   -0.71145
  8 Pd   -0.24471   -0.30076    0.27658
  9 Ag    0.52155    0.21851    0.41051
 10 Ru    2.19502    1.27221    0.39186
 11 Ru   -1.85510    0.84383   -0.33462
 12 Pd    1.09772   -0.22883    0.05476
 13 Ru   -0.52843   -1.48264   -0.86665
 14 Ag   -0.41165    0.14688    0.33861
 15 Pd    0.18066   -0.56864    0.09969
 16 Ag   -0.17713   -0.37609    0.35146
 17 Pd   -0.35291    0.53254    0.06168
 18 Ag    0.00875    0.00722   -0.00337
 19 Ag    0.00554   -0.00282   -0.01089
 20 Pt    0.00726    0.02209    0.00352
 21 Ag    0.00642   -0.00504   -0.00425
 22 Ag    0.00393   -0.00581    0.00894
 23 Ag   -0.00088   -0.00752   -0.01995
 24 Pd   -0.00128   -0.01028    0.01412
 25 Pd    0.01102   -0.00710    0.00573
 26 Ag   -0.00004    0.00131    0.00852
 27 Pt    0.00894   -0.03442    0.05412
 28 Pd    0.01069   -0.01083   -0.00334
 29 Pd   -0.00209   -0.00905   -0.01404
 30 Pd   -0.01141   -0.00680    0.03281
 31 Ru    0.00793   -0.01995   -0.00454
 32 Pt   -0.02168    0.00588    0.04833
 33 Ag   -0.00889   -0.01520   -0.00767
 34 Pt    0.02482    0.00173   -0.00020
 35 Ru    0.01075    0.00423    0.01115
 36 Pd   -0.05179    0.06155    0.04384
 37 Ru   -0.00978    0.00752    0.01114
 38 Pd   -0.04081   -0.00158    0.01463
 39 Pt    0.01432   -0.06858   -0.00735
 40 Pd   -0.02111   -0.00191   -0.01964
 41 Pd   -0.01991    0.03168    0.01559
 42 Pt   -0.00235    0.02921    0.04679
 43 Pd    0.03039   -0.05969   -0.00216
 44 Ru   -0.04486    0.01152    0.02860
 45 O    -0.04206   -0.01318    0.02386

Timing:                                      incl.     excl.
-------------------------------------------------------------------
Density initialized from wave functions:    18.970    18.970   0.2% |
 Symmetrize density:                         0.000     0.000   0.0% |
Forces:                                    118.634   118.634   1.0% |
Hamiltonian:                                20.656     0.057   0.0% |
 Atomic:                                     7.134     4.171   0.0% |
  XC Correction:                             2.963     2.963   0.0% |
 Calculate atomic Hamiltonians:              5.144     5.144   0.0% |
 Communicate:                                0.079     0.079   0.0% |
 Initialize Hamiltonian:                     0.000     0.000   0.0% |
 Poisson:                                    0.041     0.041   0.0% |
 XC 3D grid:                                 8.201     8.201   0.1% |
LCAO initialization:                        65.838     4.062   0.0% |
 LCAO eigensolver:                           7.803     0.002   0.0% |
  Calculate projections:                     0.074     0.074   0.0% |
  DenseAtomicCorrection:                     0.063     0.063   0.0% |
  Distribute overlap matrix:                 0.561     0.561   0.0% |
  Orbital Layouts:                           0.532     0.532   0.0% |
  Potential matrix:                          6.520     6.520   0.1% |
  Sum over cells:                            0.051     0.051   0.0% |
 LCAO to grid:                              50.938    50.938   0.4% |
 Set positions (LCAO WFS):                   3.035     1.255   0.0% |
  Basic WFS set positions:                   0.003     0.003   0.0% |
  Basis functions set positions:             0.001     0.001   0.0% |
  P tci:                                     0.700     0.700   0.0% |
  ST tci:                                    0.813     0.813   0.0% |
  mktci:                                     0.263     0.263   0.0% |
PWDescriptor:                                0.046     0.046   0.0% |
Redistribute:                                0.033     0.033   0.0% |
SCF-cycle:                               12099.723   880.103   7.1% |--|
 Davidson:                               10267.117  2395.088  19.3% |-------|
  Apply H:                                1536.096  1494.223  12.1% |----|
   HMM T:                                   41.873    41.873   0.3% |
  Subspace diag:                          1460.417     0.049   0.0% |
   calc_h_matrix:                          831.951   320.177   2.6% ||
    Apply H:                               511.775   497.806   4.0% |-|
     HMM T:                                 13.969    13.969   0.1% |
   diagonalize:                             27.493    27.493   0.2% |
   rotate_psi:                             600.924   600.924   4.9% |-|
  calc. matrices:                         3220.427  2199.212  17.8% |------|
   Apply H:                               1021.215   993.325   8.0% |--|
    HMM T:                                  27.890    27.890   0.2% |
  diagonalize:                             445.654   445.654   3.6% ||
  rotate_psi:                             1209.435  1209.435   9.8% |---|
 Density:                                  485.508     0.008   0.0% |
  Atomic density matrices:                   2.841     2.841   0.0% |
  Mix:                                     132.314   132.314   1.1% |
  Multipole moments:                         0.243     0.243   0.0% |
  Pseudo density:                          350.103   350.093   2.8% ||
   Symmetrize density:                       0.009     0.009   0.0% |
 Hamiltonian:                              418.857     1.199   0.0% |
  Atomic:                                  128.716    68.041   0.5% |
   XC Correction:                           60.675    60.675   0.5% |
  Calculate atomic Hamiltonians:           106.685   106.685   0.9% |
  Communicate:                               8.278     8.278   0.1% |
  Poisson:                                   0.816     0.816   0.0% |
  XC 3D grid:                              173.163   173.163   1.4% ||
 Orthonormalize:                            48.138     0.003   0.0% |
  calc_s_matrix:                             7.313     7.313   0.1% |
  inverse-cholesky:                          0.698     0.698   0.0% |
  projections:                              26.165    26.165   0.2% |
  rotate_psi_s:                             13.959    13.959   0.1% |
Set symmetry:                                0.003     0.003   0.0% |
Other:                                      64.656    64.656   0.5% |
-------------------------------------------------------------------
Total:                                             12388.559 100.0%

Date: Fri Mar  4 04:49:30 2022
