
  ___ ___ ___ _ _ _  
 |   |   |_  | | | | 
 | | | | | . | | | | 
 |__ |  _|___|_____|  1.5.1
 |___|_|             

User:   clausen@node498.cluster
Date:   Fri Mar  4 01:23:59 2022
Arch:   x86_64
Pid:    2496
Python: 3.6.12
gpaw:   /software/kemi/gpaw/1.5.1/gpaw
_gpaw:  /software/kemi/gpaw/1.5.1/bin/gpaw-python
ase:    /software/kemi/ase/3.17.0/ase (version 3.17.0)
numpy:  /opt/rh/rh-python36/root/usr/lib64/python3.6/site-packages/numpy (version 1.13.1)
scipy:  /opt/rh/rh-python36/root/usr/lib64/python3.6/site-packages/scipy (version 0.19.1)
units:  Angstrom and eV
cores:  16

Input parameters:
  kpts: [4 4 1]
  mode: {ecut: 400.0,
         gammacentered: False,
         name: pw}
  xc: RPBE

System changes: positions, numbers, cell, pbc, initial_charges, initial_magmoms 

Initialize ...

Pd-setup:
  name: Palladium
  id: 6da19bfba079f22767af9506641940b9
  Z: 46
  valence: 16
  core: 30
  charge: 0.0
  file: /software/kemi/gpaw-setups/0.9.20000/Pd.RPBE.gz
  cutoffs: 1.19(comp), 2.38(filt), 2.28(core), lmax=2
  valence states:
                energy  radius
    5s(0.00)    -3.225   1.228
    4p(6.00)   -51.131   1.360
    5p(0.00)    -0.373   1.360
    4d(10.00)    -3.964   1.228
    *s          23.987   1.228
    *d          23.247   1.228

  Using partial waves for Pd as LCAO basis

Ag-setup:
  name: Silver
  id: c05e55bab2c3858b3f9398f6d75cb77c
  Z: 47
  valence: 17
  core: 30
  charge: 0.0
  file: /software/kemi/gpaw-setups/0.9.20000/Ag.RPBE.gz
  cutoffs: 1.25(comp), 2.35(filt), 2.19(core), lmax=2
  valence states:
                energy  radius
    5s(1.00)    -4.277   1.286
    4p(6.00)   -58.523   1.328
    5p(0.00)    -0.755   1.328
    4d(10.00)    -7.386   1.180
    *s          22.934   1.286
    *d          19.826   1.180

  Using partial waves for Ag as LCAO basis

Pt-setup:
  name: Platinum
  id: f04f522592575c47ad794f6b4a415b4b
  Z: 78
  valence: 16
  core: 62
  charge: 0.0
  file: /software/kemi/gpaw-setups/0.9.20000/Pt.RPBE.gz
  cutoffs: 1.29(comp), 2.26(filt), 2.26(core), lmax=2
  valence states:
                energy  radius
    6s(1.00)    -5.516   1.307
    5p(6.00)   -55.971   1.371
    6p(0.00)    -0.856   1.371
    5d(9.00)    -6.087   1.307
    *s          21.695   1.307
    *d          21.125   1.307

  Using partial waves for Pt as LCAO basis

Ru-setup:
  name: Ruthenium
  id: 76477906e28f51dc1b29884d53556fe9
  Z: 44
  valence: 16
  core: 28
  charge: 0.0
  file: /software/kemi/gpaw-setups/0.9.20000/Ru.RPBE.gz
  cutoffs: 1.23(comp), 2.16(filt), 1.30(core), lmax=2
  valence states:
                energy  radius
    4s(2.00)   -76.255   1.281
    5s(1.00)    -4.126   1.281
    4p(6.00)   -46.371   1.286
    5p(0.00)    -0.913   1.286
    4d(7.00)    -5.146   1.254
    *d          22.066   1.254

  Using partial waves for Ru as LCAO basis

O-setup:
  name: Oxygen
  id: 08071ca1eed670e7821b24b7eb4d558c
  Z: 8
  valence: 6
  core: 2
  charge: 0.0
  file: /software/kemi/gpaw-setups/0.9.20000/O.RPBE.gz
  cutoffs: 0.67(comp), 1.17(filt), 0.83(core), lmax=2
  valence states:
                energy  radius
    2s(2.00)   -24.041   0.688
    2p(4.00)    -8.984   0.598
    *s           3.170   0.688
    *p          18.228   0.598
    *d           0.000   0.619

  Using partial waves for O as LCAO basis

Reference energy: -9073453.423555

Spin-paired calculation

Occupation numbers:
  Fermi-Dirac: width=0.1000 eV

Convergence criteria:
  Maximum total energy change: 0.0005 eV / electron
  Maximum integral of absolute density change: 0.0001 electrons
  Maximum integral of absolute eigenstate change: 4e-08 eV^2
  Maximum number of iterations: 333

Symmetries present (total): 1

  ( 1  0  0)
  ( 0  1  0)
  ( 0  0  1)

16 k-points: 4 x 4 x 1 Monkhorst-Pack grid
8 k-points in the irreducible part of the Brillouin zone
       k-points in crystal coordinates                weights
   0:     0.12500000   -0.37500000    0.00000000          2/16
   1:     0.12500000   -0.12500000    0.00000000          2/16
   2:     0.12500000    0.12500000    0.00000000          2/16
   3:     0.12500000    0.37500000    0.00000000          2/16
   4:     0.37500000   -0.37500000    0.00000000          2/16
   5:     0.37500000   -0.12500000    0.00000000          2/16
   6:     0.37500000    0.12500000    0.00000000          2/16
   7:     0.37500000    0.37500000    0.00000000          2/16

Wave functions: Plane wave expansion
  Cutoff energy: 400.000 eV
  Number of coefficients (min, max): 32266, 32339
  Pulay-stress correction: 0.000000 eV/Ang^3 (de/decut=0.000000)
  Using FFTW library
  ScaLapack parameters: grid=1x1, blocksize=None
  Wavefunction extrapolation:
    Improved wavefunction reuse through dual PAW basis 

Eigensolver
   Davidson(niter=2, smin=None, normalize=True) 

Densities:
  Coarse grid: 35*35*135 grid
  Fine grid: 70*70*270 grid
  Total Charge: 0.000000 

Density mixing:
  Method: separate
  Backend: pulay
  Linear mixing parameter: 0.05
  Mixing with 5 old densities
  Damping of long wave oscillations: 50 

Hamiltonian:
  XC and Coulomb potentials evaluated on a 70*70*270 grid
  Using the RPBE Exchange-Correlation functional
 

XC parameters: RPBE with 2 nearest neighbor stencil

Memory estimate:
  Process memory now: 157.04 MiB
  Calculator: 548.11 MiB
    Density: 48.38 MiB
      Arrays: 16.41 MiB
      Localized functions: 25.61 MiB
      Mixer: 6.36 MiB
    Hamiltonian: 11.51 MiB
      Arrays: 10.73 MiB
      XC: 0.00 MiB
      Poisson: 0.00 MiB
      vbar: 0.78 MiB
    Wavefunctions: 488.23 MiB
      Arrays psit_nG: 220.57 MiB
      Eigensolver: 253.54 MiB
      Projections: 2.81 MiB
      Projectors: 4.69 MiB
      PW-descriptor: 6.62 MiB

Total number of cores used: 16
Parallelization over k-points: 8
Domain decomposition: 1 x 1 x 2

Number of atoms: 46
Number of atomic orbitals: 551
Number of bands in calculation: 447
Bands to converge: occupied states only
Number of valence electrons: 738

... initialized

Initializing position-dependent things.

Density initialized from atomic densities
Creating initial wave functions:
  447 bands from LCAO basis set

                                             
                                             
                                             
                                             
                                   O         
                                             
                         Pd                  
                 Pt            Ru            
            Pt    APd    PPd    Ru           
                                             
        Pd    Ru     Pd    Pt                
                                             
        Pt     Pd    PPd    Pd     Ag        
                Ag     Ag     Ag             
                                             
           Ag    PAg    APt    Pd            
                                             
            Pd     Ru     Ag     Pd          
       Ag     Ru     Ru                      
             Pd     Pd     Pt                
        Pd     Ag     Pt                     
                                             
                                             
                                             
                                             
                                             

Positions:
   0 Pd     0.000000    1.633958   10.000000    ( 0.0000,  0.0000,  0.0000)
   1 Ag     2.830098    1.633958   10.000000    ( 0.0000,  0.0000,  0.0000)
   2 Pt     5.660196    1.633958   10.000000    ( 0.0000,  0.0000,  0.0000)
   3 Pd     1.415049    4.084895   10.000000    ( 0.0000,  0.0000,  0.0000)
   4 Pd     4.245147    4.084895   10.000000    ( 0.0000,  0.0000,  0.0000)
   5 Pt     7.075245    4.084895   10.000000    ( 0.0000,  0.0000,  0.0000)
   6 Pd     2.830098    6.535832   10.000000    ( 0.0000,  0.0000,  0.0000)
   7 Ag     5.660196    6.535832   10.000000    ( 0.0000,  0.0000,  0.0000)
   8 Pd     8.490294    6.535832   10.000000    ( 0.0000,  0.0000,  0.0000)
   9 Ag     0.000000    0.000000   12.310765    ( 0.0000,  0.0000,  0.0000)
  10 Ru     2.830098    0.000000   12.310765    ( 0.0000,  0.0000,  0.0000)
  11 Ru     5.660196    0.000000   12.310765    ( 0.0000,  0.0000,  0.0000)
  12 Pd     1.415049    2.450937   12.310765    ( 0.0000,  0.0000,  0.0000)
  13 Ru     4.245147    2.450937   12.310765    ( 0.0000,  0.0000,  0.0000)
  14 Ag     7.075245    2.450937   12.310765    ( 0.0000,  0.0000,  0.0000)
  15 Pd     2.830098    4.901874   12.310765    ( 0.0000,  0.0000,  0.0000)
  16 Ag     5.660196    4.901874   12.310765    ( 0.0000,  0.0000,  0.0000)
  17 Pd     8.490294    4.901874   12.310765    ( 0.0000,  0.0000,  0.0000)
  18 Ag     1.422839    0.836358   14.687202    ( 0.0000,  0.0000,  0.0000)
  19 Ag     4.228290    0.834029   14.668537    ( 0.0000,  0.0000,  0.0000)
  20 Pt     7.000876    0.833422   14.677349    ( 0.0000,  0.0000,  0.0000)
  21 Ag     2.849410    3.275055   14.697646    ( 0.0000,  0.0000,  0.0000)
  22 Ag     5.607020    3.276035   14.715763    ( 0.0000,  0.0000,  0.0000)
  23 Ag     8.407636    3.278571   14.701685    ( 0.0000,  0.0000,  0.0000)
  24 Pd     4.226650    5.664441   14.783889    ( 0.0000,  0.0000,  0.0000)
  25 Pd     7.021524    5.717496   14.695770    ( 0.0000,  0.0000,  0.0000)
  26 Ag     9.810161    5.688371   14.690489    ( 0.0000,  0.0000,  0.0000)
  27 Pt     0.030364    1.654579   17.054310    ( 0.0000,  0.0000,  0.0000)
  28 Pd     2.863636    1.668211   17.080253    ( 0.0000,  0.0000,  0.0000)
  29 Pd     5.584811    1.668389   17.077768    ( 0.0000,  0.0000,  0.0000)
  30 Pd     1.451673    4.084780   17.054426    ( 0.0000,  0.0000,  0.0000)
  31 Ru     4.287216    4.070209   17.299465    ( 0.0000,  0.0000,  0.0000)
  32 Pt     6.976254    4.091014   17.095978    ( 0.0000,  0.0000,  0.0000)
  33 Ag     2.791829    6.501265   17.070936    ( 0.0000,  0.0000,  0.0000)
  34 Pt     5.617052    6.449501   17.092744    ( 0.0000,  0.0000,  0.0000)
  35 Ru     8.289070    6.444709   17.186717    ( 0.0000,  0.0000,  0.0000)
  36 Pd     0.109969    0.038419   19.432145    ( 0.0000,  0.0000,  0.0000)
  37 Ru     2.913932   -0.060119   19.211827    ( 0.0000,  0.0000,  0.0000)
  38 Pd     5.607656    0.003198   19.432032    ( 0.0000,  0.0000,  0.0000)
  39 Pt     1.441354    2.458850   19.369405    ( 0.0000,  0.0000,  0.0000)
  40 Pd     4.211433    2.427374   19.463642    ( 0.0000,  0.0000,  0.0000)
  41 Pd     7.082631    2.483306   19.414916    ( 0.0000,  0.0000,  0.0000)
  42 Pt     2.814800    4.836018   19.384744    ( 0.0000,  0.0000,  0.0000)
  43 Pd     5.686541    4.887569   19.522731    ( 0.0000,  0.0000,  0.0000)
  44 Ru     8.428363    4.985817   19.203811    ( 0.0000,  0.0000,  0.0000)
  45 O      9.806689    5.693964   20.822731    ( 0.0000,  0.0000,  0.0000)

Unit cell:
           periodic     x           y           z      points  spacing
  1. axis:    yes    8.379498    0.000000    0.000000    35     0.2073
  2. axis:    yes    4.189749    7.256858    0.000000    35     0.2073
  3. axis:    no     0.000000    0.000000   29.243062   135     0.2166

  Lengths:   8.379498   8.379498  29.243062
  Angles:   90.000000  90.000000  60.000000

Effective grid spacing dv^(1/3) = 0.2207

                     log10-error:    total        iterations:
           time      wfs    density  energy       fermi  poisson
iter:   1  01:26:18  +0.49   +inf  -238.516564    2             
iter:   2  01:27:26  -1.07  -1.21  -210.689642    3             
iter:   3  01:28:35  -1.35  -1.32  -237.250934    36            
iter:   4  01:29:42  -1.30  -1.26  -250.524922    2             
iter:   5  01:30:50  -1.48  -1.23  -194.560676    37            
iter:   6  01:32:22  -1.89  -1.49  -188.327114    37            
iter:   7  01:33:52  -2.31  -1.61  -186.540071    4             
iter:   8  01:35:23  -2.44  -1.68  -184.322841    3             
iter:   9  01:36:54  -2.03  -1.80  -183.046971    4             
iter:  10  01:38:24  -2.51  -2.02  -187.340502    3             
iter:  11  01:39:55  -3.09  -1.81  -182.553730    3             
iter:  12  01:41:26  -3.31  -2.13  -182.315442    3             
iter:  13  01:42:57  -3.17  -2.20  -182.204766    3             
iter:  14  01:44:27  -3.32  -2.30  -182.177849    3             
iter:  15  01:45:58  -3.64  -2.39  -182.104741    3             
iter:  16  01:47:28  -3.76  -2.49  -182.056544    3             
iter:  17  01:48:59  -3.90  -2.54  -181.982572    3             
iter:  18  01:50:19  -3.99  -2.72  -181.952289    3             
iter:  19  01:51:30  -4.27  -2.85  -181.954753    3             
iter:  20  01:52:41  -4.52  -2.88  -181.964190    3             
iter:  21  01:53:55  -4.58  -2.88  -181.939396    3             
iter:  22  01:55:08  -4.70  -3.04  -181.934927    3             
iter:  23  01:56:21  -5.31  -3.11  -181.935611    2             
iter:  24  01:57:34  -5.25  -3.19  -181.935014    2             
iter:  25  01:58:44  -5.17  -3.16  -181.935498    2             
iter:  26  01:59:52  -5.52  -3.22  -181.932782    2             
iter:  27  02:01:03  -5.63  -3.32  -181.933142    2             
iter:  28  02:02:12  -5.86  -3.42  -181.933166    2             
iter:  29  02:03:24  -5.91  -3.38  -181.933814    2             
iter:  30  02:04:34  -6.30  -3.51  -181.932269    2             
iter:  31  02:05:42  -6.28  -3.58  -181.932281    2             
iter:  32  02:06:53  -5.83  -3.67  -181.931030    2             
iter:  33  02:08:04  -6.29  -3.76  -181.932753    2             
iter:  34  02:09:14  -6.28  -3.76  -181.931418    2             
iter:  35  02:10:25  -6.57  -3.92  -181.931329    2             
iter:  36  02:11:36  -6.74  -3.94  -181.931603    2             
iter:  37  02:12:45  -6.91  -3.84  -181.931364    2             
iter:  38  02:14:18  -7.35  -4.07  -181.931164    2             
iter:  39  02:15:49  -7.07  -4.17  -181.931771    2             
iter:  40  02:17:20  -7.50  -3.99  -181.931390    2             
iter:  41  02:18:51  -7.70  -4.29  -181.931251    2             

Converged after 41 iterations.

Dipole moment: (24.592991, 21.478212, -0.334245) |e|*Ang

Energy contributions relative to reference atoms: (reference = -9073453.423555)

Kinetic:       -178.344173
Potential:      +32.241175
External:        +0.000000
XC:             -30.392020
Entropy (-ST):   -2.027124
Local:           -4.422673
--------------------------
Free energy:   -182.944813
Extrapolated:  -181.931251

Fermi level: 0.77063

Showing only first 2 kpts
 Kpt  Band  Eigenvalues  Occupancy
  0   367      0.75080    0.13735
  0   368      0.78760    0.11442
  0   369      0.80640    0.10288
  0   370      0.83937    0.08365

  1   367      0.65152    0.19173
  1   368      0.69047    0.17258
  1   369      0.71673    0.15789
  1   370      0.72938    0.15042



Forces in eV/Ang:
  0 Pd    0.08545    0.51125   -0.42123
  1 Ag    0.11328    0.49167   -0.50170
  2 Pt   -0.22604    0.51704    0.82205
  3 Pd    0.08933    0.03200   -0.08023
  4 Pd    0.12216   -0.37595    0.20777
  5 Pt   -0.13511   -0.30476   -0.09293
  6 Pd   -0.17269   -0.37931   -0.04971
  7 Ag   -0.12262   -0.45540   -0.70584
  8 Pd   -0.24782   -0.30160    0.27702
  9 Ag    0.51303    0.21541    0.43520
 10 Ru    2.20545    1.28378    0.41373
 11 Ru   -1.85195    0.87337   -0.35503
 12 Pd    1.11698   -0.24384    0.00688
 13 Ru   -0.55040   -1.50811   -0.88132
 14 Ag   -0.44267    0.12219    0.29054
 15 Pd    0.18294   -0.57506    0.07468
 16 Ag   -0.18516   -0.38274    0.34557
 17 Pd   -0.36394    0.54859   -0.02764
 18 Ag   -0.02355   -0.00542    0.00992
 19 Ag   -0.01477   -0.00843    0.01759
 20 Pt   -0.02436   -0.00931   -0.02532
 21 Ag    0.00940    0.01826    0.02877
 22 Ag    0.02580   -0.01975   -0.08738
 23 Ag   -0.01425    0.00361    0.03404
 24 Pd    0.00167   -0.00635    0.06357
 25 Pd    0.02664    0.01544    0.06422
 26 Ag    0.00348   -0.01049    0.04163
 27 Pt    0.03996    0.01361    0.02243
 28 Pd   -0.01149   -0.00286    0.04259
 29 Pd    0.02879   -0.09149    0.23146
 30 Pd   -0.02651   -0.06021   -0.08597
 31 Ru   -0.17449    0.01448   -0.00159
 32 Pt    0.13525    0.02020    0.12743
 33 Ag    0.04506    0.03700   -0.09030
 34 Pt   -0.04071    0.00198   -0.01162
 35 Ru   -0.21388   -0.01042   -0.24718
 36 Pd    0.20594    0.08404   -0.02807
 37 Ru   -0.35460    0.23929   -0.12936
 38 Pd   -0.00764    0.47629    0.21805
 39 Pt   -0.05778   -0.28322   -0.02790
 40 Pd   -0.03725   -0.00310   -0.08583
 41 Pd    0.01991    0.05907   -0.04566
 42 Pt    0.15946   -0.04074    0.46248
 43 Pd    0.01661   -0.01212   -0.12571
 44 Ru    0.59719    0.27248    1.39678
 45 O    -0.37588   -0.66690   -1.62915

System changes: positions 

Initializing position-dependent things.

Density initialized from wave functions
                                            
                                            
                                            
                                            
                                  O         
                                            
                 Pt     Pd     Ru           
                   Pd     Pd                
            Pt    Ag     Pt    Ru           
       Pd    PRu    RPd    Pt               
                                            
        Pt     Pd    PPd    Pd    Ag        
                                            
                Ag     Ag     Ag            
           Ag     Ag     Pt                 
                 Pd     Ag     Pd           
            Pd     Ru     Ag                
                  Pd     Ag     Pd          
       Ag    PRu    PRu    Pt               
        Pd     Ag     Pt                    
                                            
                                            
                                            
                                            
                                            

Positions:
   0 Pd     0.000000    1.633958   10.000000    ( 0.0000,  0.0000,  0.0000)
   1 Ag     2.830098    1.633958   10.000000    ( 0.0000,  0.0000,  0.0000)
   2 Pt     5.660196    1.633958   10.000000    ( 0.0000,  0.0000,  0.0000)
   3 Pd     1.415049    4.084895   10.000000    ( 0.0000,  0.0000,  0.0000)
   4 Pd     4.245147    4.084895   10.000000    ( 0.0000,  0.0000,  0.0000)
   5 Pt     7.075245    4.084895   10.000000    ( 0.0000,  0.0000,  0.0000)
   6 Pd     2.830098    6.535832   10.000000    ( 0.0000,  0.0000,  0.0000)
   7 Ag     5.660196    6.535832   10.000000    ( 0.0000,  0.0000,  0.0000)
   8 Pd     8.490294    6.535832   10.000000    ( 0.0000,  0.0000,  0.0000)
   9 Ag     0.000000    0.000000   12.310765    ( 0.0000,  0.0000,  0.0000)
  10 Ru     2.830098    0.000000   12.310765    ( 0.0000,  0.0000,  0.0000)
  11 Ru     5.660196    0.000000   12.310765    ( 0.0000,  0.0000,  0.0000)
  12 Pd     1.415049    2.450937   12.310765    ( 0.0000,  0.0000,  0.0000)
  13 Ru     4.245147    2.450937   12.310765    ( 0.0000,  0.0000,  0.0000)
  14 Ag     7.075245    2.450937   12.310765    ( 0.0000,  0.0000,  0.0000)
  15 Pd     2.830098    4.901874   12.310765    ( 0.0000,  0.0000,  0.0000)
  16 Ag     5.660196    4.901874   12.310765    ( 0.0000,  0.0000,  0.0000)
  17 Pd     8.490294    4.901874   12.310765    ( 0.0000,  0.0000,  0.0000)
  18 Ag     1.420483    0.835816   14.688194    ( 0.0000,  0.0000,  0.0000)
  19 Ag     4.226813    0.833186   14.670296    ( 0.0000,  0.0000,  0.0000)
  20 Pt     6.998440    0.832491   14.674817    ( 0.0000,  0.0000,  0.0000)
  21 Ag     2.850350    3.276881   14.700523    ( 0.0000,  0.0000,  0.0000)
  22 Ag     5.609600    3.274060   14.707024    ( 0.0000,  0.0000,  0.0000)
  23 Ag     8.406211    3.278932   14.705089    ( 0.0000,  0.0000,  0.0000)
  24 Pd     4.226817    5.663806   14.790246    ( 0.0000,  0.0000,  0.0000)
  25 Pd     7.024188    5.719040   14.702192    ( 0.0000,  0.0000,  0.0000)
  26 Ag     9.810509    5.687322   14.694652    ( 0.0000,  0.0000,  0.0000)
  27 Pt     0.034360    1.655940   17.056552    ( 0.0000,  0.0000,  0.0000)
  28 Pd     2.862487    1.667924   17.084512    ( 0.0000,  0.0000,  0.0000)
  29 Pd     5.587690    1.659240   17.100915    ( 0.0000,  0.0000,  0.0000)
  30 Pd     1.449022    4.078759   17.045829    ( 0.0000,  0.0000,  0.0000)
  31 Ru     4.269767    4.071656   17.299306    ( 0.0000,  0.0000,  0.0000)
  32 Pt     6.989779    4.093034   17.108721    ( 0.0000,  0.0000,  0.0000)
  33 Ag     2.796335    6.504964   17.061906    ( 0.0000,  0.0000,  0.0000)
  34 Pt     5.612982    6.449699   17.091582    ( 0.0000,  0.0000,  0.0000)
  35 Ru     8.267682    6.443667   17.161998    ( 0.0000,  0.0000,  0.0000)
  36 Pd     0.130563    0.046823   19.429338    ( 0.0000,  0.0000,  0.0000)
  37 Ru     2.878472   -0.036190   19.198890    ( 0.0000,  0.0000,  0.0000)
  38 Pd     5.606893    0.050827   19.453837    ( 0.0000,  0.0000,  0.0000)
  39 Pt     1.435577    2.430527   19.366615    ( 0.0000,  0.0000,  0.0000)
  40 Pd     4.207708    2.427064   19.455059    ( 0.0000,  0.0000,  0.0000)
  41 Pd     7.084622    2.489213   19.410350    ( 0.0000,  0.0000,  0.0000)
  42 Pt     2.830745    4.831944   19.430992    ( 0.0000,  0.0000,  0.0000)
  43 Pd     5.688201    4.886357   19.510160    ( 0.0000,  0.0000,  0.0000)
  44 Ru     8.488082    5.013065   19.343489    ( 0.0000,  0.0000,  0.0000)
  45 O      9.769100    5.627273   20.659816    ( 0.0000,  0.0000,  0.0000)

Unit cell:
           periodic     x           y           z      points  spacing
  1. axis:    yes    8.379498    0.000000    0.000000    35     0.2073
  2. axis:    yes    4.189749    7.256858    0.000000    35     0.2073
  3. axis:    no     0.000000    0.000000   29.243062   135     0.2166

  Lengths:   8.379498   8.379498  29.243062
  Angles:   90.000000  90.000000  60.000000

Effective grid spacing dv^(1/3) = 0.2207

                     log10-error:    total        iterations:
           time      wfs    density  energy       fermi  poisson
iter:   1  02:21:01  -1.76   +inf  -186.794644    4             
iter:   2  02:22:32  -1.61  -1.94  -228.000545    37            
iter:   3  02:24:02  -1.69  -1.47  -201.394123    3             
iter:   4  02:25:33  -2.86  -1.65  -185.319603    34            
iter:   5  02:27:04  -3.17  -2.08  -183.643528    4             
iter:   6  02:28:35  -3.05  -2.23  -182.523338    3             
iter:   7  02:30:06  -3.70  -2.51  -182.639916    3             
iter:   8  02:31:36  -3.91  -2.42  -182.329831    2             
iter:   9  02:32:51  -4.41  -2.80  -182.311359    3             
iter:  10  02:34:04  -4.24  -2.92  -182.394828    2             
iter:  11  02:35:16  -4.35  -2.62  -182.277839    2             
iter:  12  02:36:29  -4.25  -3.13  -182.272594    3             
iter:  13  02:37:42  -4.86  -3.22  -182.287510    3             
iter:  14  02:38:54  -5.20  -2.96  -182.266200    2             
iter:  15  02:40:07  -5.65  -3.36  -182.267476    2             
iter:  16  02:41:20  -5.74  -3.41  -182.266530    2             
iter:  17  02:42:32  -5.53  -3.43  -182.264852    3             
iter:  18  02:43:45  -6.05  -3.57  -182.266263    2             
iter:  19  02:44:55  -5.93  -3.60  -182.265866    2             
iter:  20  02:46:06  -5.96  -3.66  -182.264432    2             
iter:  21  02:47:15  -5.90  -3.76  -182.266281    2             
iter:  22  02:48:27  -6.34  -3.68  -182.265376    2             
iter:  23  02:49:37  -6.83  -3.95  -182.265083    2             
iter:  24  02:50:48  -6.43  -4.00  -182.265978    2             
iter:  25  02:51:59  -6.84  -3.84  -182.265316    2             
iter:  26  02:53:11  -7.08  -4.20  -182.264964    2             
iter:  27  02:54:23  -7.49  -4.21  -182.265125    2             

Converged after 27 iterations.

Dipole moment: (21.076448, 18.242179, -0.209866) |e|*Ang

Energy contributions relative to reference atoms: (reference = -9073453.423555)

Kinetic:       -170.673814
Potential:      +25.457263
External:        +0.000000
XC:             -31.621161
Entropy (-ST):   -2.037781
Local:           -4.408523
--------------------------
Free energy:   -183.284016
Extrapolated:  -182.265125

Fermi level: 0.83432

Showing only first 2 kpts
 Kpt  Band  Eigenvalues  Occupancy
  0   367      0.81437    0.13743
  0   368      0.85407    0.11270
  0   369      0.87655    0.09899
  0   370      0.90600    0.08202

  1   367      0.73815    0.18087
  1   368      0.76142    0.16865
  1   369      0.77071    0.16347
  1   370      0.78826    0.15329



Forces in eV/Ang:
  0 Pd    0.09793    0.51151   -0.41987
  1 Ag    0.09851    0.49860   -0.50822
  2 Pt   -0.22002    0.51070    0.82134
  3 Pd    0.10156    0.03026   -0.08386
  4 Pd    0.10286   -0.36533    0.20635
  5 Pt   -0.12854   -0.29881   -0.08284
  6 Pd   -0.16714   -0.39652   -0.05315
  7 Ag   -0.12899   -0.45628   -0.70557
  8 Pd   -0.24537   -0.30928    0.26479
  9 Ag    0.52219    0.20756    0.43675
 10 Ru    2.18899    1.27727    0.42770
 11 Ru   -1.85187    0.86333   -0.34427
 12 Pd    1.10833   -0.23465    0.01444
 13 Ru   -0.56425   -1.50280   -0.85606
 14 Ag   -0.41756    0.13543    0.28486
 15 Pd    0.18571   -0.57779    0.08162
 16 Ag   -0.18584   -0.37035    0.35457
 17 Pd   -0.36571    0.53457   -0.00346
 18 Ag   -0.00994    0.00975   -0.00577
 19 Ag   -0.00014    0.01503    0.05890
 20 Pt   -0.00686    0.01335   -0.02223
 21 Ag   -0.00136   -0.00388    0.01177
 22 Ag    0.02138   -0.01451    0.02717
 23 Ag   -0.01081   -0.00431   -0.00501
 24 Pd    0.01077   -0.02132   -0.00429
 25 Pd    0.00757   -0.02366    0.03554
 26 Ag   -0.00381   -0.01449   -0.00949
 27 Pt   -0.05098    0.00128   -0.03818
 28 Pd    0.03337    0.05530   -0.05958
 29 Pd    0.01827    0.01505    0.07377
 30 Pd   -0.04053    0.09929    0.11339
 31 Ru   -0.04805   -0.00879    0.00940
 32 Pt    0.05182    0.04979    0.11200
 33 Ag   -0.08889   -0.04188    0.12857
 34 Pt   -0.07392   -0.09858   -0.08696
 35 Ru   -0.04191   -0.12343    0.29236
 36 Pd    0.02541   -0.02317    0.00394
 37 Ru   -0.07028    0.04920   -0.18090
 38 Pd    0.13409    0.85224   -0.30666
 39 Pt    0.07558   -0.12700    0.02881
 40 Pd   -0.03247    0.11077   -0.02803
 41 Pd    0.04679    0.12627    0.01024
 42 Pt    0.82131   -0.39568   -0.41401
 43 Pd    0.09575   -0.01982   -0.09742
 44 Ru   -0.50061   -0.01207   -0.11934
 45 O    -0.58657   -0.51094    0.56145

System changes: positions 

Initializing position-dependent things.

Density initialized from wave functions
                                            
                                            
                                            
                                            
                                  O         
                                            
                 Pt     Pd     Ru           
                   Pd     Pd                
            Pt    Ag     Pt    Ru           
       Pd    PRu    RPd    Pt               
                                            
        Pt     Pd    PPd    Pd    Ag        
                                            
                Ag     Ag     Ag            
           Ag     Ag     Pt                 
                 Pd     Ag     Pd           
            Pd     Ru     Ag                
                  Pd     Ag     Pd          
       Ag    PRu    PRu    Pt               
        Pd     Ag     Pt                    
                                            
                                            
                                            
                                            
                                            

Positions:
   0 Pd     0.000000    1.633958   10.000000    ( 0.0000,  0.0000,  0.0000)
   1 Ag     2.830098    1.633958   10.000000    ( 0.0000,  0.0000,  0.0000)
   2 Pt     5.660196    1.633958   10.000000    ( 0.0000,  0.0000,  0.0000)
   3 Pd     1.415049    4.084895   10.000000    ( 0.0000,  0.0000,  0.0000)
   4 Pd     4.245147    4.084895   10.000000    ( 0.0000,  0.0000,  0.0000)
   5 Pt     7.075245    4.084895   10.000000    ( 0.0000,  0.0000,  0.0000)
   6 Pd     2.830098    6.535832   10.000000    ( 0.0000,  0.0000,  0.0000)
   7 Ag     5.660196    6.535832   10.000000    ( 0.0000,  0.0000,  0.0000)
   8 Pd     8.490294    6.535832   10.000000    ( 0.0000,  0.0000,  0.0000)
   9 Ag     0.000000    0.000000   12.310765    ( 0.0000,  0.0000,  0.0000)
  10 Ru     2.830098    0.000000   12.310765    ( 0.0000,  0.0000,  0.0000)
  11 Ru     5.660196    0.000000   12.310765    ( 0.0000,  0.0000,  0.0000)
  12 Pd     1.415049    2.450937   12.310765    ( 0.0000,  0.0000,  0.0000)
  13 Ru     4.245147    2.450937   12.310765    ( 0.0000,  0.0000,  0.0000)
  14 Ag     7.075245    2.450937   12.310765    ( 0.0000,  0.0000,  0.0000)
  15 Pd     2.830098    4.901874   12.310765    ( 0.0000,  0.0000,  0.0000)
  16 Ag     5.660196    4.901874   12.310765    ( 0.0000,  0.0000,  0.0000)
  17 Pd     8.490294    4.901874   12.310765    ( 0.0000,  0.0000,  0.0000)
  18 Ag     1.418537    0.836496   14.688080    ( 0.0000,  0.0000,  0.0000)
  19 Ag     4.226163    0.834231   14.676573    ( 0.0000,  0.0000,  0.0000)
  20 Pt     6.996747    0.833341   14.671643    ( 0.0000,  0.0000,  0.0000)
  21 Ag     2.850628    3.277304   14.702866    ( 0.0000,  0.0000,  0.0000)
  22 Ag     5.612715    3.271848   14.705805    ( 0.0000,  0.0000,  0.0000)
  23 Ag     8.404584    3.278685   14.706087    ( 0.0000,  0.0000,  0.0000)
  24 Pd     4.227897    5.661534   14.792584    ( 0.0000,  0.0000,  0.0000)
  25 Pd     7.026045    5.717488   14.708289    ( 0.0000,  0.0000,  0.0000)
  26 Ag     9.810302    5.685512   14.695557    ( 0.0000,  0.0000,  0.0000)
  27 Pt     0.031305    1.656647   17.053941    ( 0.0000,  0.0000,  0.0000)
  28 Pd     2.865118    1.672983   17.080765    ( 0.0000,  0.0000,  0.0000)
  29 Pd     5.590642    1.656707   17.117802    ( 0.0000,  0.0000,  0.0000)
  30 Pd     1.444082    4.085468   17.052749    ( 0.0000,  0.0000,  0.0000)
  31 Ru     4.257745    4.071457   17.300119    ( 0.0000,  0.0000,  0.0000)
  32 Pt     7.000464    4.098570   17.124707    ( 0.0000,  0.0000,  0.0000)
  33 Ag     2.789947    6.502634   17.070062    ( 0.0000,  0.0000,  0.0000)
  34 Pt     5.604301    6.440546   17.082933    ( 0.0000,  0.0000,  0.0000)
  35 Ru     8.254539    6.431652   17.178741    ( 0.0000,  0.0000,  0.0000)
  36 Pd     0.141819    0.048274   19.428498    ( 0.0000,  0.0000,  0.0000)
  37 Ru     2.856606   -0.021268   19.176365    ( 0.0000,  0.0000,  0.0000)
  38 Pd     5.619128    0.151209   19.434499    ( 0.0000,  0.0000,  0.0000)
  39 Pt     1.440169    2.406422   19.368112    ( 0.0000,  0.0000,  0.0000)
  40 Pd     4.203061    2.437309   19.448734    ( 0.0000,  0.0000,  0.0000)
  41 Pd     7.089864    2.503591   19.409341    ( 0.0000,  0.0000,  0.0000)
  42 Pt     2.914575    4.793113   19.412129    ( 0.0000,  0.0000,  0.0000)
  43 Pd     5.697889    4.883978   19.495614    ( 0.0000,  0.0000,  0.0000)
  44 Ru     8.466908    5.023677   19.392498    ( 0.0000,  0.0000,  0.0000)
  45 O      9.697940    5.550658   20.642220    ( 0.0000,  0.0000,  0.0000)

Unit cell:
           periodic     x           y           z      points  spacing
  1. axis:    yes    8.379498    0.000000    0.000000    35     0.2073
  2. axis:    yes    4.189749    7.256858    0.000000    35     0.2073
  3. axis:    no     0.000000    0.000000   29.243062   135     0.2166

  Lengths:   8.379498   8.379498  29.243062
  Angles:   90.000000  90.000000  60.000000

Effective grid spacing dv^(1/3) = 0.2207

                     log10-error:    total        iterations:
           time      wfs    density  energy       fermi  poisson
iter:   1  02:56:03  -1.84   +inf  -184.942404    3             
iter:   2  02:57:14  -1.66  -1.99  -248.162176    37            
iter:   3  02:58:25  -2.07  -1.39  -184.282411    28            
iter:   4  02:59:35  -2.86  -2.13  -182.827249    3             
iter:   5  03:00:46  -3.34  -2.39  -182.741640    3             
iter:   6  03:01:58  -4.08  -2.36  -182.511969    2             
iter:   7  03:03:07  -3.92  -2.58  -182.591008    2             
iter:   8  03:04:18  -4.04  -2.54  -182.386584    3             
iter:   9  03:05:30  -4.19  -2.93  -182.381788    3             
iter:  10  03:06:41  -4.58  -2.91  -182.366054    3             
iter:  11  03:07:51  -4.89  -3.13  -182.363378    3             
iter:  12  03:09:23  -5.00  -3.07  -182.353496    2             
iter:  13  03:10:54  -5.11  -3.30  -182.354835    2             
iter:  14  03:12:25  -5.35  -3.43  -182.355597    2             
iter:  15  03:13:56  -5.72  -3.26  -182.350763    2             
iter:  16  03:15:27  -6.05  -3.66  -182.351957    2             
iter:  17  03:16:58  -5.81  -3.69  -182.351163    2             
iter:  18  03:18:29  -6.05  -3.80  -182.350444    2             
iter:  19  03:20:00  -6.08  -3.80  -182.350529    2             
iter:  20  03:21:30  -6.53  -3.97  -182.350705    2             
iter:  21  03:23:01  -6.75  -4.07  -182.350249    2             
iter:  22  03:24:32  -6.38  -4.13  -182.351416    2             
iter:  23  03:26:03  -6.79  -3.82  -182.350475    2             
iter:  24  03:27:33  -6.99  -4.26  -182.350416    2             
iter:  25  03:28:44  -7.35  -4.40  -182.350390    2             
iter:  26  03:29:57  -7.48  -4.37  -182.350490    2             

Converged after 26 iterations.

Dipole moment: (12.643220, 13.491185, -0.199625) |e|*Ang

Energy contributions relative to reference atoms: (reference = -9073453.423555)

Kinetic:       -166.883947
Potential:      +22.203983
External:        +0.000000
XC:             -32.182450
Entropy (-ST):   -2.038546
Local:           -4.468803
--------------------------
Free energy:   -183.369762
Extrapolated:  -182.350490

Fermi level: 0.83928

Showing only first 2 kpts
 Kpt  Band  Eigenvalues  Occupancy
  0   367      0.81791    0.13831
  0   368      0.86088    0.11156
  0   369      0.88301    0.09810
  0   370      0.91364    0.08056

  1   367      0.74054    0.18215
  1   368      0.77521    0.16373
  1   369      0.77679    0.16283
  1   370      0.81005    0.14314



Forces in eV/Ang:
  0 Pd    0.09946    0.50975   -0.41929
  1 Ag    0.10145    0.49570   -0.50718
  2 Pt   -0.22657    0.50805    0.82622
  3 Pd    0.10256    0.02797   -0.08555
  4 Pd    0.10452   -0.36938    0.20758
  5 Pt   -0.13176   -0.29656   -0.08353
  6 Pd   -0.16728   -0.39343   -0.05022
  7 Ag   -0.12678   -0.45548   -0.70548
  8 Pd   -0.24819   -0.30184    0.26885
  9 Ag    0.52403    0.20313    0.43497
 10 Ru    2.19927    1.27932    0.43857
 11 Ru   -1.87031    0.86363   -0.33034
 12 Pd    1.11426   -0.23516    0.01802
 13 Ru   -0.56436   -1.51175   -0.84424
 14 Ag   -0.41790    0.13767    0.27442
 15 Pd    0.18553   -0.57941    0.08390
 16 Ag   -0.18098   -0.36553    0.36148
 17 Pd   -0.36825    0.54236    0.00468
 18 Ag    0.00404   -0.00263   -0.02035
 19 Ag    0.01202    0.00036    0.04467
 20 Pt   -0.00302   -0.01558    0.01242
 21 Ag   -0.00576   -0.00264   -0.00416
 22 Ag   -0.00195   -0.00782    0.08914
 23 Ag    0.00644    0.00112    0.00088
 24 Pd   -0.01528   -0.01383   -0.03156
 25 Pd   -0.00176   -0.02153    0.01098
 26 Ag   -0.00033    0.01028    0.00001
 27 Pt   -0.04411   -0.02051   -0.05429
 28 Pd    0.01548    0.04641   -0.13196
 29 Pd    0.02483    0.14148   -0.19046
 30 Pd   -0.08271    0.08882    0.15793
 31 Ru    0.14855   -0.06087   -0.23523
 32 Pt   -0.04807   -0.07425   -0.08203
 33 Ag   -0.10762   -0.01764    0.11140
 34 Pt   -0.08506   -0.03957   -0.12669
 35 Ru    0.13866   -0.05634    0.24051
 36 Pd   -0.13758   -0.11884   -0.00243
 37 Ru    0.08741   -0.01794    0.00199
 38 Pd    0.03951   -0.34827    0.04686
 39 Pt    0.13904    0.01439   -0.01774
 40 Pd    0.03672    0.05499    0.07510
 41 Pd    0.15187    0.17602    0.06248
 42 Pt   -0.25202    0.22260    0.00101
 43 Pd    0.16023    0.02069    0.03853
 44 Ru   -0.63996    0.08574   -0.64455
 45 O     0.39189    0.03124    0.47527

System changes: positions 

Initializing position-dependent things.

Density initialized from wave functions
                                            
                                            
                                            
                                            
                                  O         
                                            
                 Pt     Pd     Ru           
                   Pd     Pd                
            Pt    Ag     Pt    Ru           
       Pd    PRu    RPd    Pt               
                                            
        Pt     Pd    PPd    Pd    Ag        
                                            
                Ag     Ag     Ag            
           Ag     Ag     Pt                 
                 Pd     Ag     Pd           
            Pd     Ru     Ag                
                  Pd     Ag     Pd          
       Ag    PRu    PRu    Pt               
        Pd     Ag     Pt                    
                                            
                                            
                                            
                                            
                                            

Positions:
   0 Pd     0.000000    1.633958   10.000000    ( 0.0000,  0.0000,  0.0000)
   1 Ag     2.830098    1.633958   10.000000    ( 0.0000,  0.0000,  0.0000)
   2 Pt     5.660196    1.633958   10.000000    ( 0.0000,  0.0000,  0.0000)
   3 Pd     1.415049    4.084895   10.000000    ( 0.0000,  0.0000,  0.0000)
   4 Pd     4.245147    4.084895   10.000000    ( 0.0000,  0.0000,  0.0000)
   5 Pt     7.075245    4.084895   10.000000    ( 0.0000,  0.0000,  0.0000)
   6 Pd     2.830098    6.535832   10.000000    ( 0.0000,  0.0000,  0.0000)
   7 Ag     5.660196    6.535832   10.000000    ( 0.0000,  0.0000,  0.0000)
   8 Pd     8.490294    6.535832   10.000000    ( 0.0000,  0.0000,  0.0000)
   9 Ag     0.000000    0.000000   12.310765    ( 0.0000,  0.0000,  0.0000)
  10 Ru     2.830098    0.000000   12.310765    ( 0.0000,  0.0000,  0.0000)
  11 Ru     5.660196    0.000000   12.310765    ( 0.0000,  0.0000,  0.0000)
  12 Pd     1.415049    2.450937   12.310765    ( 0.0000,  0.0000,  0.0000)
  13 Ru     4.245147    2.450937   12.310765    ( 0.0000,  0.0000,  0.0000)
  14 Ag     7.075245    2.450937   12.310765    ( 0.0000,  0.0000,  0.0000)
  15 Pd     2.830098    4.901874   12.310765    ( 0.0000,  0.0000,  0.0000)
  16 Ag     5.660196    4.901874   12.310765    ( 0.0000,  0.0000,  0.0000)
  17 Pd     8.490294    4.901874   12.310765    ( 0.0000,  0.0000,  0.0000)
  18 Ag     1.418742    0.836363   14.686600    ( 0.0000,  0.0000,  0.0000)
  19 Ag     4.227007    0.834342   14.680142    ( 0.0000,  0.0000,  0.0000)
  20 Pt     6.996466    0.832302   14.672370    ( 0.0000,  0.0000,  0.0000)
  21 Ag     2.850217    3.277108   14.702668    ( 0.0000,  0.0000,  0.0000)
  22 Ag     5.612731    3.271182   14.712256    ( 0.0000,  0.0000,  0.0000)
  23 Ag     8.404964    3.278741   14.706151    ( 0.0000,  0.0000,  0.0000)
  24 Pd     4.226874    5.660410   14.790363    ( 0.0000,  0.0000,  0.0000)
  25 Pd     7.025991    5.715820   14.709352    ( 0.0000,  0.0000,  0.0000)
  26 Ag     9.810258    5.686147   14.695538    ( 0.0000,  0.0000,  0.0000)
  27 Pt     0.027879    1.655202   17.049850    ( 0.0000,  0.0000,  0.0000)
  28 Pd     2.866417    1.676635   17.071015    ( 0.0000,  0.0000,  0.0000)
  29 Pd     5.592555    1.666819   17.104868    ( 0.0000,  0.0000,  0.0000)
  30 Pd     1.437901    4.092364   17.064644    ( 0.0000,  0.0000,  0.0000)
  31 Ru     4.267897    4.067069   17.283373    ( 0.0000,  0.0000,  0.0000)
  32 Pt     6.997475    4.093591   17.119655    ( 0.0000,  0.0000,  0.0000)
  33 Ag     2.781757    6.501153   17.078722    ( 0.0000,  0.0000,  0.0000)
  34 Pt     5.597734    6.437117   17.073339    ( 0.0000,  0.0000,  0.0000)
  35 Ru     8.263985    6.426861   17.197481    ( 0.0000,  0.0000,  0.0000)
  36 Pd     0.132341    0.039722   19.428322    ( 0.0000,  0.0000,  0.0000)
  37 Ru     2.862085   -0.022023   19.175276    ( 0.0000,  0.0000,  0.0000)
  38 Pd     5.622766    0.132009   19.436169    ( 0.0000,  0.0000,  0.0000)
  39 Pt     1.450510    2.406405   19.366995    ( 0.0000,  0.0000,  0.0000)
  40 Pd     4.205449    2.441914   19.453846    ( 0.0000,  0.0000,  0.0000)
  41 Pd     7.101018    2.516993   19.413824    ( 0.0000,  0.0000,  0.0000)
  42 Pt     2.901762    4.806547   19.410097    ( 0.0000,  0.0000,  0.0000)
  43 Pd     5.709936    4.885323   19.497651    ( 0.0000,  0.0000,  0.0000)
  44 Ru     8.418688    5.029983   19.347041    ( 0.0000,  0.0000,  0.0000)
  45 O      9.721980    5.549129   20.678079    ( 0.0000,  0.0000,  0.0000)

Unit cell:
           periodic     x           y           z      points  spacing
  1. axis:    yes    8.379498    0.000000    0.000000    35     0.2073
  2. axis:    yes    4.189749    7.256858    0.000000    35     0.2073
  3. axis:    no     0.000000    0.000000   29.243062   135     0.2166

  Lengths:   8.379498   8.379498  29.243062
  Angles:   90.000000  90.000000  60.000000

Effective grid spacing dv^(1/3) = 0.2207

                     log10-error:    total        iterations:
           time      wfs    density  energy       fermi  poisson
iter:   1  03:31:41  -2.35   +inf  -183.585314    3             
iter:   2  03:32:53  -2.26  -2.23  -203.250815    3             
iter:   3  03:34:07  -2.34  -1.63  -184.201757    37            
iter:   4  03:35:20  -3.24  -2.06  -183.087455    3             
iter:   5  03:36:31  -3.73  -2.33  -182.511726    3             
iter:   6  03:37:43  -4.01  -2.74  -182.446779    3             
iter:   7  03:38:53  -4.88  -2.80  -182.409195    2             
iter:   8  03:40:04  -4.70  -3.13  -182.420252    3             
iter:   9  03:41:14  -5.07  -2.99  -182.400855    2             
iter:  10  03:42:24  -4.82  -3.30  -182.392282    2             
iter:  11  03:43:34  -5.08  -3.44  -182.405317    3             
iter:  12  03:44:46  -5.50  -3.11  -182.392475    2             
iter:  13  03:45:59  -5.95  -3.55  -182.391714    2             
iter:  14  03:47:10  -6.13  -3.57  -182.391497    2             
iter:  15  03:48:23  -6.17  -3.65  -182.392144    2             
iter:  16  03:49:36  -6.38  -3.72  -182.390906    2             
iter:  17  03:50:48  -6.78  -3.80  -182.391194    2             
iter:  18  03:52:20  -6.27  -3.80  -182.391472    2             
iter:  19  03:53:51  -6.51  -4.02  -182.391140    2             
iter:  20  03:55:22  -6.76  -4.01  -182.391147    2             
iter:  21  03:56:53  -7.05  -4.05  -182.391319    2             
iter:  22  03:58:24  -7.26  -4.24  -182.391142    2             
iter:  23  03:59:54  -6.96  -4.06  -182.390894    2             
iter:  24  04:01:25  -7.51  -4.35  -182.391203    2             

Converged after 24 iterations.

Dipole moment: (13.295884, 14.318206, -0.245385) |e|*Ang

Energy contributions relative to reference atoms: (reference = -9073453.423555)

Kinetic:       -172.209180
Potential:      +26.736753
External:        +0.000000
XC:             -31.473877
Entropy (-ST):   -2.034673
Local:           -4.427563
--------------------------
Free energy:   -183.408540
Extrapolated:  -182.391203

Fermi level: 0.81568

Showing only first 2 kpts
 Kpt  Band  Eigenvalues  Occupancy
  0   367      0.79762    0.13626
  0   368      0.83817    0.11100
  0   369      0.85426    0.10118
  0   370      0.88756    0.08192

  1   367      0.72042    0.18041
  1   368      0.74774    0.16590
  1   369      0.75394    0.16241
  1   370      0.77604    0.14946



Forces in eV/Ang:
  0 Pd    0.09555    0.51231   -0.42267
  1 Ag    0.10346    0.49664   -0.50836
  2 Pt   -0.22626    0.50943    0.82402
  3 Pd    0.10043    0.03101   -0.08726
  4 Pd    0.10418   -0.36941    0.20476
  5 Pt   -0.12827   -0.29984   -0.08654
  6 Pd   -0.17058   -0.39421   -0.05445
  7 Ag   -0.12731   -0.45557   -0.70890
  8 Pd   -0.24445   -0.30430    0.26770
  9 Ag    0.52066    0.20500    0.43457
 10 Ru    2.20811    1.28192    0.44197
 11 Ru   -1.87414    0.86208   -0.33367
 12 Pd    1.11279   -0.23304    0.01780
 13 Ru   -0.56254   -1.51315   -0.84470
 14 Ag   -0.42087    0.13673    0.28208
 15 Pd    0.18145   -0.57986    0.08199
 16 Ag   -0.17961   -0.37143    0.37094
 17 Pd   -0.36386    0.54331    0.00136
 18 Ag    0.00016   -0.00765   -0.02697
 19 Ag   -0.00242   -0.01494    0.00813
 20 Pt    0.00985   -0.01901    0.01151
 21 Ag   -0.01884    0.00943   -0.00265
 22 Ag   -0.00126    0.00211    0.00411
 23 Ag    0.01719    0.00050    0.00261
 24 Pd   -0.02800   -0.00561   -0.02291
 25 Pd   -0.00005   -0.00372   -0.00017
 26 Ag   -0.00225   -0.00065    0.02375
 27 Pt    0.01764   -0.03009   -0.00442
 28 Pd   -0.00406    0.00798   -0.05912
 29 Pd    0.00686    0.04064   -0.03330
 30 Pd   -0.05228    0.00128    0.09401
 31 Ru    0.03203    0.00282   -0.08013
 32 Pt   -0.01741   -0.02424   -0.07108
 33 Ag   -0.04786    0.01035    0.01875
 34 Pt    0.01123    0.02245   -0.02859
 35 Ru    0.04937    0.00645   -0.04337
 36 Pd   -0.08414   -0.03616    0.01177
 37 Ru   -0.04375    0.08660    0.04525
 38 Pd   -0.00115   -0.34164    0.13481
 39 Pt    0.09020   -0.04100   -0.03363
 40 Pd    0.06721    0.03008    0.00304
 41 Pd    0.09581    0.01871    0.03907
 42 Pt   -0.31158    0.15666    0.09940
 43 Pd   -0.03494    0.03243    0.01803
 44 Ru    0.47949    0.35270    0.42893
 45 O    -0.38424   -0.27550   -0.48091

System changes: positions 

Initializing position-dependent things.

Density initialized from wave functions
                                            
                                            
                                            
                                            
                                  O         
                                            
                 Pt     Pd     Ru           
                   Pd     Pd                
            Pt    Ag     Pt    Ru           
       Pd    PRu    RPd    Pt               
                                            
        Pt     Pd    PPd    Pd    Ag        
                                            
                Ag     Ag     Ag            
           Ag     Ag     Pt                 
                 Pd     Ag     Pd           
            Pd     Ru     Ag                
                  Pd     Ag     Pd          
       Ag    PRu    PRu    Pt               
        Pd     Ag     Pt                    
                                            
                                            
                                            
                                            
                                            

Positions:
   0 Pd     0.000000    1.633958   10.000000    ( 0.0000,  0.0000,  0.0000)
   1 Ag     2.830098    1.633958   10.000000    ( 0.0000,  0.0000,  0.0000)
   2 Pt     5.660196    1.633958   10.000000    ( 0.0000,  0.0000,  0.0000)
   3 Pd     1.415049    4.084895   10.000000    ( 0.0000,  0.0000,  0.0000)
   4 Pd     4.245147    4.084895   10.000000    ( 0.0000,  0.0000,  0.0000)
   5 Pt     7.075245    4.084895   10.000000    ( 0.0000,  0.0000,  0.0000)
   6 Pd     2.830098    6.535832   10.000000    ( 0.0000,  0.0000,  0.0000)
   7 Ag     5.660196    6.535832   10.000000    ( 0.0000,  0.0000,  0.0000)
   8 Pd     8.490294    6.535832   10.000000    ( 0.0000,  0.0000,  0.0000)
   9 Ag     0.000000    0.000000   12.310765    ( 0.0000,  0.0000,  0.0000)
  10 Ru     2.830098    0.000000   12.310765    ( 0.0000,  0.0000,  0.0000)
  11 Ru     5.660196    0.000000   12.310765    ( 0.0000,  0.0000,  0.0000)
  12 Pd     1.415049    2.450937   12.310765    ( 0.0000,  0.0000,  0.0000)
  13 Ru     4.245147    2.450937   12.310765    ( 0.0000,  0.0000,  0.0000)
  14 Ag     7.075245    2.450937   12.310765    ( 0.0000,  0.0000,  0.0000)
  15 Pd     2.830098    4.901874   12.310765    ( 0.0000,  0.0000,  0.0000)
  16 Ag     5.660196    4.901874   12.310765    ( 0.0000,  0.0000,  0.0000)
  17 Pd     8.490294    4.901874   12.310765    ( 0.0000,  0.0000,  0.0000)
  18 Ag     1.418834    0.835840   14.683865    ( 0.0000,  0.0000,  0.0000)
  19 Ag     4.227226    0.833430   14.682711    ( 0.0000,  0.0000,  0.0000)
  20 Pt     6.997119    0.830595   14.673427    ( 0.0000,  0.0000,  0.0000)
  21 Ag     2.848579    3.277636   14.702390    ( 0.0000,  0.0000,  0.0000)
  22 Ag     5.612746    3.271003   14.715807    ( 0.0000,  0.0000,  0.0000)
  23 Ag     8.406370    3.278749   14.706203    ( 0.0000,  0.0000,  0.0000)
  24 Pd     4.224432    5.659348   14.787444    ( 0.0000,  0.0000,  0.0000)
  25 Pd     7.025938    5.714575   14.709872    ( 0.0000,  0.0000,  0.0000)
  26 Ag     9.810023    5.686266   14.697081    ( 0.0000,  0.0000,  0.0000)
  27 Pt     0.027175    1.652297   17.047389    ( 0.0000,  0.0000,  0.0000)
  28 Pd     2.866998    1.679268   17.061815    ( 0.0000,  0.0000,  0.0000)
  29 Pd     5.593927    1.674542   17.096836    ( 0.0000,  0.0000,  0.0000)
  30 Pd     1.431124    4.096452   17.078016    ( 0.0000,  0.0000,  0.0000)
  31 Ru     4.274710    4.065331   17.270492    ( 0.0000,  0.0000,  0.0000)
  32 Pt     6.994909    4.090087   17.112770    ( 0.0000,  0.0000,  0.0000)
  33 Ag     2.773774    6.500798   17.085237    ( 0.0000,  0.0000,  0.0000)
  34 Pt     5.595329    6.436474   17.066452    ( 0.0000,  0.0000,  0.0000)
  35 Ru     8.272014    6.424264   17.205568    ( 0.0000,  0.0000,  0.0000)
  36 Pd     0.121554    0.032935   19.429275    ( 0.0000,  0.0000,  0.0000)
  37 Ru     2.861703   -0.016227   19.177042    ( 0.0000,  0.0000,  0.0000)
  38 Pd     5.625449    0.104415   19.443402    ( 0.0000,  0.0000,  0.0000)
  39 Pt     1.462499    2.403171   19.364366    ( 0.0000,  0.0000,  0.0000)
  40 Pd     4.211342    2.447121   19.456247    ( 0.0000,  0.0000,  0.0000)
  41 Pd     7.113218    2.524901   19.418887    ( 0.0000,  0.0000,  0.0000)
  42 Pt     2.879953    4.820422   19.411242    ( 0.0000,  0.0000,  0.0000)
  43 Pd     5.713112    4.888187   19.499415    ( 0.0000,  0.0000,  0.0000)
  44 Ru     8.428081    5.058081   19.354356    ( 0.0000,  0.0000,  0.0000)
  45 O      9.698928    5.525451   20.667797    ( 0.0000,  0.0000,  0.0000)

Unit cell:
           periodic     x           y           z      points  spacing
  1. axis:    yes    8.379498    0.000000    0.000000    35     0.2073
  2. axis:    yes    4.189749    7.256858    0.000000    35     0.2073
  3. axis:    no     0.000000    0.000000   29.243062   135     0.2166

  Lengths:   8.379498   8.379498  29.243062
  Angles:   90.000000  90.000000  60.000000

Effective grid spacing dv^(1/3) = 0.2207

                     log10-error:    total        iterations:
           time      wfs    density  energy       fermi  poisson
iter:   1  04:03:35  -2.64   +inf  -182.977559    2             
iter:   2  04:05:06  -2.53  -2.36  -193.797349    4             
iter:   3  04:06:36  -2.86  -1.75  -182.576301    3             
iter:   4  04:08:07  -3.64  -2.68  -182.474049    3             
iter:   5  04:09:37  -4.40  -2.88  -182.440297    3             
iter:   6  04:11:07  -4.71  -3.13  -182.445661    2             
iter:   7  04:12:20  -5.01  -3.00  -182.438619    3             
iter:   8  04:13:34  -5.38  -3.24  -182.430808    2             
iter:   9  04:14:46  -5.32  -3.30  -182.431619    2             
iter:  10  04:15:59  -5.23  -3.38  -182.431173    2             
iter:  11  04:17:13  -5.55  -3.34  -182.428406    2             
iter:  12  04:18:28  -5.68  -3.46  -182.428995    2             
iter:  13  04:19:43  -6.39  -3.53  -182.427409    2             
iter:  14  04:20:56  -6.54  -3.87  -182.426617    2             
iter:  15  04:22:10  -6.65  -3.85  -182.426850    2             
iter:  16  04:23:21  -6.48  -3.97  -182.427642    2             
iter:  17  04:24:34  -6.56  -3.86  -182.426609    2             
iter:  18  04:25:46  -6.40  -4.17  -182.426643    2             
iter:  19  04:26:59  -6.93  -4.38  -182.426960    2             
iter:  20  04:28:12  -7.01  -4.29  -182.426976    2             
iter:  21  04:29:25  -7.54  -3.98  -182.426740    2             
iter:  22  04:30:38  -7.07  -4.49  -182.426848    2             
iter:  23  04:31:53  -7.79  -4.68  -182.426759    2             

Converged after 23 iterations.

Dipole moment: (14.491871, 15.257634, -0.223875) |e|*Ang

Energy contributions relative to reference atoms: (reference = -9073453.423555)

Kinetic:       -169.592059
Potential:      +24.503297
External:        +0.000000
XC:             -31.895254
Entropy (-ST):   -2.030227
Local:           -4.427629
--------------------------
Free energy:   -183.441872
Extrapolated:  -182.426759

Fermi level: 0.82594

Showing only first 2 kpts
 Kpt  Band  Eigenvalues  Occupancy
  0   367      0.80969    0.13513
  0   368      0.85033    0.10984
  0   369      0.86296    0.10212
  0   370      0.89976    0.08085

  1   367      0.72823    0.18164
  1   368      0.75858    0.16558
  1   369      0.76533    0.16176
  1   370      0.79000    0.14723



Forces in eV/Ang:
  0 Pd    0.09725    0.51085   -0.42296
  1 Ag    0.10407    0.49581   -0.50912
  2 Pt   -0.22857    0.50980    0.82446
  3 Pd    0.10159    0.02933   -0.08806
  4 Pd    0.10495   -0.37039    0.20361
  5 Pt   -0.12974   -0.29753   -0.08791
  6 Pd   -0.16793   -0.39367   -0.05568
  7 Ag   -0.12658   -0.45501   -0.70957
  8 Pd   -0.24734   -0.30219    0.26810
  9 Ag    0.51891    0.20591    0.42559
 10 Ru    2.21192    1.28190    0.43855
 11 Ru   -1.87505    0.86174   -0.32864
 12 Pd    1.11298   -0.23158    0.01180
 13 Ru   -0.55817   -1.51283   -0.84070
 14 Ag   -0.42413    0.13689    0.28861
 15 Pd    0.17846   -0.57928    0.08168
 16 Ag   -0.17827   -0.37502    0.36962
 17 Pd   -0.36356    0.54378    0.00503
 18 Ag    0.00157   -0.01229   -0.02832
 19 Ag   -0.00480   -0.02047   -0.01996
 20 Pt    0.00631   -0.01554   -0.00448
 21 Ag   -0.02552    0.01245   -0.00199
 22 Ag   -0.00264   -0.00258   -0.05989
 23 Ag    0.02053    0.00013    0.00235
 24 Pd   -0.02398    0.01122   -0.01337
 25 Pd    0.00830    0.00942   -0.00933
 26 Ag   -0.01191   -0.00947    0.02267
 27 Pt    0.03849   -0.03081    0.03836
 28 Pd    0.00157   -0.01854    0.01177
 29 Pd   -0.00003   -0.04579    0.09505
 30 Pd   -0.01906   -0.07438    0.00663
 31 Ru   -0.06281    0.04785    0.08205
 32 Pt    0.01420    0.04037   -0.00945
 33 Ag    0.03108    0.02820   -0.05304
 34 Pt    0.06039    0.05117    0.05007
 35 Ru   -0.06553    0.07222   -0.15902
 36 Pd    0.01485    0.04320   -0.02895
 37 Ru   -0.13339    0.14351   -0.00757
 38 Pd    0.01263    0.12239    0.01951
 39 Pt    0.06215   -0.11734   -0.02680
 40 Pd    0.07336    0.02873   -0.05715
 41 Pd    0.05077   -0.02983   -0.00931
 42 Pt    0.06551   -0.09823   -0.07584
 43 Pd   -0.07704    0.02394   -0.02534
 44 Ru   -0.05514    0.00150    0.13113
 45 O    -0.09071   -0.12448    0.02069

System changes: positions 

Initializing position-dependent things.

Density initialized from wave functions
                                            
                                            
                                            
                                            
                                  O         
                                            
                 Pt     Pd     Ru           
                   Pd     Pd                
            Pt    Ag     Pt    Ru           
       Pd    PRu    RPd    Pt               
                                            
        Pt     Pd    PPd    Pd    Ag        
                                            
                Ag     Ag     Ag            
           Ag     Ag     Pt                 
                 Pd     Ag     Pd           
            Pd     Ru     Ag                
                  Pd     Ag     Pd          
       Ag    PRu    PRu    Pt               
        Pd     Ag     Pt                    
                                            
                                            
                                            
                                            
                                            

Positions:
   0 Pd     0.000000    1.633958   10.000000    ( 0.0000,  0.0000,  0.0000)
   1 Ag     2.830098    1.633958   10.000000    ( 0.0000,  0.0000,  0.0000)
   2 Pt     5.660196    1.633958   10.000000    ( 0.0000,  0.0000,  0.0000)
   3 Pd     1.415049    4.084895   10.000000    ( 0.0000,  0.0000,  0.0000)
   4 Pd     4.245147    4.084895   10.000000    ( 0.0000,  0.0000,  0.0000)
   5 Pt     7.075245    4.084895   10.000000    ( 0.0000,  0.0000,  0.0000)
   6 Pd     2.830098    6.535832   10.000000    ( 0.0000,  0.0000,  0.0000)
   7 Ag     5.660196    6.535832   10.000000    ( 0.0000,  0.0000,  0.0000)
   8 Pd     8.490294    6.535832   10.000000    ( 0.0000,  0.0000,  0.0000)
   9 Ag     0.000000    0.000000   12.310765    ( 0.0000,  0.0000,  0.0000)
  10 Ru     2.830098    0.000000   12.310765    ( 0.0000,  0.0000,  0.0000)
  11 Ru     5.660196    0.000000   12.310765    ( 0.0000,  0.0000,  0.0000)
  12 Pd     1.415049    2.450937   12.310765    ( 0.0000,  0.0000,  0.0000)
  13 Ru     4.245147    2.450937   12.310765    ( 0.0000,  0.0000,  0.0000)
  14 Ag     7.075245    2.450937   12.310765    ( 0.0000,  0.0000,  0.0000)
  15 Pd     2.830098    4.901874   12.310765    ( 0.0000,  0.0000,  0.0000)
  16 Ag     5.660196    4.901874   12.310765    ( 0.0000,  0.0000,  0.0000)
  17 Pd     8.490294    4.901874   12.310765    ( 0.0000,  0.0000,  0.0000)
  18 Ag     1.418938    0.834555   14.680584    ( 0.0000,  0.0000,  0.0000)
  19 Ag     4.226883    0.831337   14.681846    ( 0.0000,  0.0000,  0.0000)
  20 Pt     6.997677    0.828653   14.673206    ( 0.0000,  0.0000,  0.0000)
  21 Ag     2.845902    3.278935   14.702237    ( 0.0000,  0.0000,  0.0000)
  22 Ag     5.612594    3.270560   14.711407    ( 0.0000,  0.0000,  0.0000)
  23 Ag     8.408529    3.278790   14.706585    ( 0.0000,  0.0000,  0.0000)
  24 Pd     4.221630    5.660039   14.785638    ( 0.0000,  0.0000,  0.0000)
  25 Pd     7.026801    5.715075   14.709488    ( 0.0000,  0.0000,  0.0000)
  26 Ag     9.808882    5.685466   14.699631    ( 0.0000,  0.0000,  0.0000)
  27 Pt     0.030333    1.648772   17.050061    ( 0.0000,  0.0000,  0.0000)
  28 Pd     2.867367    1.678478   17.060119    ( 0.0000,  0.0000,  0.0000)
  29 Pd     5.594550    1.672704   17.103303    ( 0.0000,  0.0000,  0.0000)
  30 Pd     1.427195    4.090911   17.082229    ( 0.0000,  0.0000,  0.0000)
  31 Ru     4.270843    4.068907   17.273443    ( 0.0000,  0.0000,  0.0000)
  32 Pt     6.995872    4.092560   17.110414    ( 0.0000,  0.0000,  0.0000)
  33 Ag     2.774356    6.503332   17.082215    ( 0.0000,  0.0000,  0.0000)
  34 Pt     5.599453    6.440706   17.068538    ( 0.0000,  0.0000,  0.0000)
  35 Ru     8.267816    6.429899   17.193679    ( 0.0000,  0.0000,  0.0000)
  36 Pd     0.120537    0.034901   19.426580    ( 0.0000,  0.0000,  0.0000)
  37 Ru     2.848606   -0.001024   19.176062    ( 0.0000,  0.0000,  0.0000)
  38 Pd     5.627497    0.109660   19.447813    ( 0.0000,  0.0000,  0.0000)
  39 Pt     1.471580    2.390594   19.361118    ( 0.0000,  0.0000,  0.0000)
  40 Pd     4.219408    2.451275   19.451756    ( 0.0000,  0.0000,  0.0000)
  41 Pd     7.121739    2.525630   19.419344    ( 0.0000,  0.0000,  0.0000)
  42 Pt     2.880532    4.815735   19.406262    ( 0.0000,  0.0000,  0.0000)
  43 Pd     5.708287    4.891068   19.497207    ( 0.0000,  0.0000,  0.0000)
  44 Ru     8.419891    5.064956   19.366674    ( 0.0000,  0.0000,  0.0000)
  45 O      9.689263    5.507319   20.666395    ( 0.0000,  0.0000,  0.0000)

Unit cell:
           periodic     x           y           z      points  spacing
  1. axis:    yes    8.379498    0.000000    0.000000    35     0.2073
  2. axis:    yes    4.189749    7.256858    0.000000    35     0.2073
  3. axis:    no     0.000000    0.000000   29.243062   135     0.2166

  Lengths:   8.379498   8.379498  29.243062
  Angles:   90.000000  90.000000  60.000000

Effective grid spacing dv^(1/3) = 0.2207

                     log10-error:    total        iterations:
           time      wfs    density  energy       fermi  poisson
iter:   1  04:33:36  -3.04   +inf  -182.530796    2             
iter:   2  04:34:52  -3.49  -2.78  -183.504002    3             
iter:   3  04:36:08  -3.78  -2.18  -182.503004    3             
iter:   4  04:37:19  -4.88  -2.80  -182.449340    2             
iter:   5  04:38:29  -5.07  -3.28  -182.441668    2             
iter:   6  04:39:41  -5.20  -3.46  -182.443023    2             
iter:   7  04:40:55  -5.47  -3.43  -182.441440    2             
iter:   8  04:42:06  -5.70  -3.50  -182.440064    2             
iter:   9  04:43:39  -6.12  -3.69  -182.440097    2             
iter:  10  04:45:10  -5.91  -3.77  -182.440225    2             
iter:  11  04:46:41  -6.36  -3.88  -182.439650    2             
iter:  12  04:48:12  -6.51  -3.78  -182.439983    2             
iter:  13  04:49:43  -7.10  -3.97  -182.439872    2             
iter:  14  04:51:14  -7.25  -4.11  -182.439651    2             
iter:  15  04:52:46  -6.70  -4.21  -182.439606    2             
iter:  16  04:54:17  -7.09  -4.22  -182.440052    2             
iter:  17  04:55:49  -7.11  -4.18  -182.439550    2             
iter:  18  04:57:20  -7.37  -4.28  -182.439605    2             
iter:  19  04:58:51  -7.63  -4.53  -182.439765    2             

Converged after 19 iterations.

Dipole moment: (13.268263, 14.402303, -0.220314) |e|*Ang

Energy contributions relative to reference atoms: (reference = -9073453.423555)

Kinetic:       -169.426636
Potential:      +24.345256
External:        +0.000000
XC:             -31.900846
Entropy (-ST):   -2.030927
Local:           -4.442076
--------------------------
Free energy:   -183.455229
Extrapolated:  -182.439765

Fermi level: 0.82852

Showing only first 2 kpts
 Kpt  Band  Eigenvalues  Occupancy
  0   367      0.81198    0.13531
  0   368      0.85327    0.10961
  0   369      0.86730    0.10106
  0   370      0.90230    0.08087

  1   367      0.73114    0.18147
  1   368      0.76290    0.16460
  1   369      0.76830    0.16154
  1   370      0.79525    0.14560



Forces in eV/Ang:
  0 Pd    0.09698    0.51031   -0.41981
  1 Ag    0.10354    0.49567   -0.50820
  2 Pt   -0.22900    0.50929    0.82974
  3 Pd    0.10130    0.02908   -0.08548
  4 Pd    0.10569   -0.37049    0.20697
  5 Pt   -0.13065   -0.29712   -0.08522
  6 Pd   -0.16786   -0.39311   -0.05177
  7 Ag   -0.12659   -0.45525   -0.70666
  8 Pd   -0.24689   -0.30218    0.27015
  9 Ag    0.51753    0.20423    0.41798
 10 Ru    2.21338    1.27893    0.43458
 11 Ru   -1.87432    0.85680   -0.32499
 12 Pd    1.11263   -0.22998    0.00870
 13 Ru   -0.56199   -1.51466   -0.84050
 14 Ag   -0.41960    0.13561    0.28873
 15 Pd    0.17415   -0.57577    0.08476
 16 Ag   -0.17767   -0.37076    0.36453
 17 Pd   -0.36164    0.54587    0.01022
 18 Ag   -0.00218   -0.00671   -0.01291
 19 Ag    0.00659    0.01152   -0.01598
 20 Pt   -0.00044    0.00863   -0.00017
 21 Ag   -0.00066   -0.00333    0.00657
 22 Ag   -0.00615   -0.00885   -0.01402
 23 Ag   -0.00440   -0.01743    0.00731
 24 Pd    0.00873    0.00522    0.00904
 25 Pd   -0.01332   -0.00322   -0.01796
 26 Ag   -0.00970   -0.00632    0.01507
 27 Pt   -0.00222    0.00319   -0.01490
 28 Pd    0.03485    0.01955   -0.04811
 29 Pd    0.00864   -0.00701    0.03206
 30 Pd   -0.02656   -0.00554    0.01653
 31 Ru   -0.01547    0.02963    0.00782
 32 Pt   -0.00905    0.02332    0.01319
 33 Ag    0.00047   -0.01257   -0.02354
 34 Pt    0.00753   -0.00304   -0.00947
 35 Ru   -0.01718    0.02125    0.05974
 36 Pd   -0.04941    0.00019    0.00783
 37 Ru    0.02966   -0.00333   -0.03981
 38 Pd   -0.01124    0.03019    0.00287
 39 Pt    0.05802   -0.06245    0.02602
 40 Pd    0.06925    0.02274   -0.02016
 41 Pd    0.04078    0.02813   -0.01183
 42 Pt    0.01574   -0.03720   -0.04630
 43 Pd   -0.02902    0.00751   -0.01585
 44 Ru   -0.16466    0.07385   -0.08667
 45 O     0.05086   -0.00547    0.11172

System changes: positions 

Initializing position-dependent things.

Density initialized from wave functions
                                            
                                            
                                            
                                            
                                  O         
                                            
                 Pt     Pd     Ru           
                   Pd     Pd                
            Pt    Ag     Pt    Ru           
       Pd    PRu    RPd    Pt               
                                            
        Pt     Pd    PPd    Pd    Ag        
                                            
                Ag     Ag     Ag            
           Ag     Ag     Pt                 
                 Pd     Ag     Pd           
            Pd     Ru     Ag                
                  Pd     Ag     Pd          
       Ag    PRu    PRu    Pt               
        Pd     Ag     Pt                    
                                            
                                            
                                            
                                            
                                            

Positions:
   0 Pd     0.000000    1.633958   10.000000    ( 0.0000,  0.0000,  0.0000)
   1 Ag     2.830098    1.633958   10.000000    ( 0.0000,  0.0000,  0.0000)
   2 Pt     5.660196    1.633958   10.000000    ( 0.0000,  0.0000,  0.0000)
   3 Pd     1.415049    4.084895   10.000000    ( 0.0000,  0.0000,  0.0000)
   4 Pd     4.245147    4.084895   10.000000    ( 0.0000,  0.0000,  0.0000)
   5 Pt     7.075245    4.084895   10.000000    ( 0.0000,  0.0000,  0.0000)
   6 Pd     2.830098    6.535832   10.000000    ( 0.0000,  0.0000,  0.0000)
   7 Ag     5.660196    6.535832   10.000000    ( 0.0000,  0.0000,  0.0000)
   8 Pd     8.490294    6.535832   10.000000    ( 0.0000,  0.0000,  0.0000)
   9 Ag     0.000000    0.000000   12.310765    ( 0.0000,  0.0000,  0.0000)
  10 Ru     2.830098    0.000000   12.310765    ( 0.0000,  0.0000,  0.0000)
  11 Ru     5.660196    0.000000   12.310765    ( 0.0000,  0.0000,  0.0000)
  12 Pd     1.415049    2.450937   12.310765    ( 0.0000,  0.0000,  0.0000)
  13 Ru     4.245147    2.450937   12.310765    ( 0.0000,  0.0000,  0.0000)
  14 Ag     7.075245    2.450937   12.310765    ( 0.0000,  0.0000,  0.0000)
  15 Pd     2.830098    4.901874   12.310765    ( 0.0000,  0.0000,  0.0000)
  16 Ag     5.660196    4.901874   12.310765    ( 0.0000,  0.0000,  0.0000)
  17 Pd     8.490294    4.901874   12.310765    ( 0.0000,  0.0000,  0.0000)
  18 Ag     1.418656    0.833038   14.676994    ( 0.0000,  0.0000,  0.0000)
  19 Ag     4.227479    0.831491   14.680156    ( 0.0000,  0.0000,  0.0000)
  20 Pt     6.997941    0.828376   14.673204    ( 0.0000,  0.0000,  0.0000)
  21 Ag     2.844259    3.279333   14.702992    ( 0.0000,  0.0000,  0.0000)
  22 Ag     5.611905    3.269205   14.708075    ( 0.0000,  0.0000,  0.0000)
  23 Ag     8.409261    3.276769   14.707759    ( 0.0000,  0.0000,  0.0000)
  24 Pd     4.220843    5.660728   14.785488    ( 0.0000,  0.0000,  0.0000)
  25 Pd     7.025724    5.714729   14.707542    ( 0.0000,  0.0000,  0.0000)
  26 Ag     9.807171    5.684322   14.703083    ( 0.0000,  0.0000,  0.0000)
  27 Pt     0.031571    1.646942   17.049142    ( 0.0000,  0.0000,  0.0000)
  28 Pd     2.871719    1.680943   17.051931    ( 0.0000,  0.0000,  0.0000)
  29 Pd     5.596241    1.672231   17.109404    ( 0.0000,  0.0000,  0.0000)
  30 Pd     1.420733    4.088284   17.088613    ( 0.0000,  0.0000,  0.0000)
  31 Ru     4.267900    4.073796   17.273162    ( 0.0000,  0.0000,  0.0000)
  32 Pt     6.995254    4.095855   17.109944    ( 0.0000,  0.0000,  0.0000)
  33 Ag     2.773189    6.503099   17.079046    ( 0.0000,  0.0000,  0.0000)
  34 Pt     5.601657    6.442203   17.066956    ( 0.0000,  0.0000,  0.0000)
  35 Ru     8.264654    6.434444   17.195852    ( 0.0000,  0.0000,  0.0000)
  36 Pd     0.112790    0.034782   19.426360    ( 0.0000,  0.0000,  0.0000)
  37 Ru     2.844501    0.007844   19.170787    ( 0.0000,  0.0000,  0.0000)
  38 Pd     5.627676    0.111927   19.452472    ( 0.0000,  0.0000,  0.0000)
  39 Pt     1.484922    2.375591   19.362016    ( 0.0000,  0.0000,  0.0000)
  40 Pd     4.232425    2.456985   19.447414    ( 0.0000,  0.0000,  0.0000)
  41 Pd     7.133102    2.531068   19.419043    ( 0.0000,  0.0000,  0.0000)
  42 Pt     2.878921    4.811734   19.400350    ( 0.0000,  0.0000,  0.0000)
  43 Pd     5.703225    4.893850   19.494172    ( 0.0000,  0.0000,  0.0000)
  44 Ru     8.401605    5.083955   19.369685    ( 0.0000,  0.0000,  0.0000)
  45 O      9.683677    5.490399   20.670204    ( 0.0000,  0.0000,  0.0000)

Unit cell:
           periodic     x           y           z      points  spacing
  1. axis:    yes    8.379498    0.000000    0.000000    35     0.2073
  2. axis:    yes    4.189749    7.256858    0.000000    35     0.2073
  3. axis:    no     0.000000    0.000000   29.243062   135     0.2166

  Lengths:   8.379498   8.379498  29.243062
  Angles:   90.000000  90.000000  60.000000

Effective grid spacing dv^(1/3) = 0.2207

                     log10-error:    total        iterations:
           time      wfs    density  energy       fermi  poisson
iter:   1  05:01:01  -3.04   +inf  -182.559509    2             
iter:   2  05:02:31  -3.15  -2.73  -186.101187    3             
iter:   3  05:03:43  -3.40  -1.93  -182.463887    3             
iter:   4  05:04:56  -4.62  -3.18  -182.456835    2             
iter:   5  05:06:10  -5.30  -3.25  -182.454030    2             
iter:   6  05:07:23  -5.48  -3.49  -182.450636    2             
iter:   7  05:08:35  -5.78  -3.61  -182.451716    2             
iter:   8  05:09:47  -5.72  -3.66  -182.451234    2             
iter:   9  05:10:59  -5.73  -3.66  -182.450864    2             
iter:  10  05:12:10  -6.24  -3.77  -182.450719    2             
iter:  11  05:13:26  -6.66  -4.01  -182.450875    2             
iter:  12  05:14:38  -6.82  -4.01  -182.450437    2             
iter:  13  05:15:49  -6.81  -4.06  -182.451066    2             
iter:  14  05:17:01  -7.07  -4.02  -182.450751    2             
iter:  15  05:18:11  -7.14  -4.28  -182.450337    2             
iter:  16  05:19:22  -7.08  -4.31  -182.450710    2             
iter:  17  05:20:33  -7.27  -4.49  -182.450647    2             
iter:  18  05:21:42  -7.72  -4.66  -182.450555    2             

Converged after 18 iterations.

Dipole moment: (12.337800, 13.988288, -0.222476) |e|*Ang

Energy contributions relative to reference atoms: (reference = -9073453.423555)

Kinetic:       -168.792208
Potential:      +23.804895
External:        +0.000000
XC:             -32.004259
Entropy (-ST):   -2.026544
Local:           -4.445712
--------------------------
Free energy:   -183.463828
Extrapolated:  -182.450555

Fermi level: 0.82702

Showing only first 2 kpts
 Kpt  Band  Eigenvalues  Occupancy
  0   367      0.81164    0.13459
  0   368      0.85290    0.10891
  0   369      0.86611    0.10087
  0   370      0.90116    0.08067

  1   367      0.72999    0.18129
  1   368      0.76157    0.16450
  1   369      0.76745    0.16117
  1   370      0.79560    0.14448



Forces in eV/Ang:
  0 Pd    0.09736    0.51042   -0.42271
  1 Ag    0.10365    0.49543   -0.51041
  2 Pt   -0.22985    0.50841    0.82886
  3 Pd    0.10138    0.02960   -0.08808
  4 Pd    0.10527   -0.37017    0.20411
  5 Pt   -0.12983   -0.29687   -0.08870
  6 Pd   -0.16787   -0.39349   -0.05598
  7 Ag   -0.12664   -0.45512   -0.70854
  8 Pd   -0.24594   -0.30198    0.26822
  9 Ag    0.51550    0.20386    0.41037
 10 Ru    2.21077    1.27769    0.42345
 11 Ru   -1.87096    0.85286   -0.32563
 12 Pd    1.11220   -0.22876    0.00530
 13 Ru   -0.56547   -1.50860   -0.84298
 14 Ag   -0.41688    0.13465    0.28673
 15 Pd    0.17331   -0.57626    0.08820
 16 Ag   -0.17968   -0.37042    0.36100
 17 Pd   -0.36004    0.54315    0.01142
 18 Ag    0.00189    0.00193   -0.00483
 19 Ag    0.00709    0.00981   -0.01488
 20 Pt   -0.00598    0.01078   -0.00318
 21 Ag    0.00750    0.00372   -0.00538
 22 Ag   -0.00263    0.00171    0.01258
 23 Ag   -0.01697   -0.00777    0.00176
 24 Pd    0.01471   -0.01013    0.00238
 25 Pd   -0.00971   -0.00960   -0.01340
 26 Ag   -0.00820   -0.00501    0.00233
 27 Pt   -0.00057    0.00318   -0.00675
 28 Pd    0.01731    0.03301   -0.03869
 29 Pd    0.02239    0.01087   -0.01189
 30 Pd   -0.01079    0.00720    0.01189
 31 Ru    0.01166    0.00031   -0.02884
 32 Pt   -0.02069   -0.00033    0.00225
 33 Ag   -0.00998   -0.01267    0.00155
 34 Pt   -0.03629    0.01163   -0.02505
 35 Ru    0.04604    0.01132   -0.02284
 36 Pd   -0.04081   -0.00374   -0.01542
 37 Ru    0.00513    0.00129    0.02769
 38 Pd    0.00930   -0.00426    0.00302
 39 Pt    0.04673   -0.03205    0.02360
 40 Pd    0.03288    0.01264   -0.00335
 41 Pd    0.02920    0.03673   -0.01127
 42 Pt   -0.05220   -0.01052   -0.00844
 43 Pd   -0.02685   -0.00012    0.00370
 44 Ru   -0.04698    0.05272    0.01240
 45 O    -0.02801   -0.02660    0.00624

System changes: positions 

Initializing position-dependent things.

Density initialized from wave functions
                                            
                                            
                                            
                                            
                                  O         
                                            
                 Pt     Pd     Ru           
                   Pd     Pd                
            Pt    Ag     Pt    Ru           
       Pd    PRu    RPd    Pt               
                                            
        Pt     Pd    PPd    Pd    Ag        
                                            
                Ag     Ag     Ag            
           Ag     Ag     Pt                 
                 Pd     Ag     Pd           
            Pd     Ru     Ag                
                  Pd     Ag     Pd          
       Ag    PRu    PRu    Pt               
        Pd     Ag     Pt                    
                                            
                                            
                                            
                                            
                                            

Positions:
   0 Pd     0.000000    1.633958   10.000000    ( 0.0000,  0.0000,  0.0000)
   1 Ag     2.830098    1.633958   10.000000    ( 0.0000,  0.0000,  0.0000)
   2 Pt     5.660196    1.633958   10.000000    ( 0.0000,  0.0000,  0.0000)
   3 Pd     1.415049    4.084895   10.000000    ( 0.0000,  0.0000,  0.0000)
   4 Pd     4.245147    4.084895   10.000000    ( 0.0000,  0.0000,  0.0000)
   5 Pt     7.075245    4.084895   10.000000    ( 0.0000,  0.0000,  0.0000)
   6 Pd     2.830098    6.535832   10.000000    ( 0.0000,  0.0000,  0.0000)
   7 Ag     5.660196    6.535832   10.000000    ( 0.0000,  0.0000,  0.0000)
   8 Pd     8.490294    6.535832   10.000000    ( 0.0000,  0.0000,  0.0000)
   9 Ag     0.000000    0.000000   12.310765    ( 0.0000,  0.0000,  0.0000)
  10 Ru     2.830098    0.000000   12.310765    ( 0.0000,  0.0000,  0.0000)
  11 Ru     5.660196    0.000000   12.310765    ( 0.0000,  0.0000,  0.0000)
  12 Pd     1.415049    2.450937   12.310765    ( 0.0000,  0.0000,  0.0000)
  13 Ru     4.245147    2.450937   12.310765    ( 0.0000,  0.0000,  0.0000)
  14 Ag     7.075245    2.450937   12.310765    ( 0.0000,  0.0000,  0.0000)
  15 Pd     2.830098    4.901874   12.310765    ( 0.0000,  0.0000,  0.0000)
  16 Ag     5.660196    4.901874   12.310765    ( 0.0000,  0.0000,  0.0000)
  17 Pd     8.490294    4.901874   12.310765    ( 0.0000,  0.0000,  0.0000)
  18 Ag     1.418366    0.831482   14.673314    ( 0.0000,  0.0000,  0.0000)
  19 Ag     4.228090    0.831649   14.678424    ( 0.0000,  0.0000,  0.0000)
  20 Pt     6.998212    0.828093   14.673202    ( 0.0000,  0.0000,  0.0000)
  21 Ag     2.842575    3.279740   14.703766    ( 0.0000,  0.0000,  0.0000)
  22 Ag     5.611199    3.267816   14.704660    ( 0.0000,  0.0000,  0.0000)
  23 Ag     8.410012    3.274698   14.708962    ( 0.0000,  0.0000,  0.0000)
  24 Pd     4.220037    5.661433   14.785335    ( 0.0000,  0.0000,  0.0000)
  25 Pd     7.024620    5.714375   14.705547    ( 0.0000,  0.0000,  0.0000)
  26 Ag     9.805416    5.683149   14.706621    ( 0.0000,  0.0000,  0.0000)
  27 Pt     0.032840    1.645067   17.048199    ( 0.0000,  0.0000,  0.0000)
  28 Pd     2.876179    1.683470   17.043538    ( 0.0000,  0.0000,  0.0000)
  29 Pd     5.597975    1.671746   17.115658    ( 0.0000,  0.0000,  0.0000)
  30 Pd     1.414110    4.085591   17.095157    ( 0.0000,  0.0000,  0.0000)
  31 Ru     4.264884    4.078808   17.272875    ( 0.0000,  0.0000,  0.0000)
  32 Pt     6.994622    4.099232   17.109463    ( 0.0000,  0.0000,  0.0000)
  33 Ag     2.771993    6.502860   17.075797    ( 0.0000,  0.0000,  0.0000)
  34 Pt     5.603916    6.443737   17.065335    ( 0.0000,  0.0000,  0.0000)
  35 Ru     8.261413    6.439104   17.198080    ( 0.0000,  0.0000,  0.0000)
  36 Pd     0.104849    0.034661   19.426135    ( 0.0000,  0.0000,  0.0000)
  37 Ru     2.840294    0.016935   19.165379    ( 0.0000,  0.0000,  0.0000)
  38 Pd     5.627860    0.114251   19.457248    ( 0.0000,  0.0000,  0.0000)
  39 Pt     1.498600    2.360212   19.362937    ( 0.0000,  0.0000,  0.0000)
  40 Pd     4.245768    2.462839   19.442963    ( 0.0000,  0.0000,  0.0000)
  41 Pd     7.144750    2.536642   19.418734    ( 0.0000,  0.0000,  0.0000)
  42 Pt     2.877268    4.807633   19.394290    ( 0.0000,  0.0000,  0.0000)
  43 Pd     5.698037    4.896702   19.491061    ( 0.0000,  0.0000,  0.0000)
  44 Ru     8.382859    5.103430   19.372772    ( 0.0000,  0.0000,  0.0000)
  45 O      9.677951    5.473056   20.674109    ( 0.0000,  0.0000,  0.0000)

Unit cell:
           periodic     x           y           z      points  spacing
  1. axis:    yes    8.379498    0.000000    0.000000    35     0.2073
  2. axis:    yes    4.189749    7.256858    0.000000    35     0.2073
  3. axis:    no     0.000000    0.000000   29.243062   135     0.2166

  Lengths:   8.379498   8.379498  29.243062
  Angles:   90.000000  90.000000  60.000000

Effective grid spacing dv^(1/3) = 0.2207

                     log10-error:    total        iterations:
           time      wfs    density  energy       fermi  poisson
iter:   1  05:23:21  -3.01   +inf  -182.822740    3             
iter:   2  05:24:32  -2.49  -2.44  -198.367969    4             
iter:   3  05:25:43  -2.76  -1.65  -182.554203    3             
iter:   4  05:26:55  -3.97  -2.84  -182.479374    3             
iter:   5  05:28:05  -4.69  -3.02  -182.460540    2             
iter:   6  05:29:15  -5.45  -3.33  -182.458740    2             
iter:   7  05:30:25  -5.75  -3.50  -182.458858    2             
iter:   8  05:31:36  -5.41  -3.50  -182.456081    2             
iter:   9  05:32:47  -5.63  -3.74  -182.456750    2             
iter:  10  05:34:19  -5.96  -3.80  -182.455886    2             
iter:  11  05:35:50  -6.30  -3.80  -182.456004    2             
iter:  12  05:37:21  -6.74  -3.95  -182.456129    2             
iter:  13  05:38:53  -6.85  -4.11  -182.456142    2             
iter:  14  05:40:25  -7.09  -4.10  -182.455765    2             
iter:  15  05:41:56  -7.13  -4.15  -182.456093    2             
iter:  16  05:43:28  -7.32  -4.25  -182.455967    2             
iter:  17  05:45:00  -7.44  -4.27  -182.455840    2             

Converged after 17 iterations.

Dipole moment: (11.414540, 13.563092, -0.226593) |e|*Ang

Energy contributions relative to reference atoms: (reference = -9073453.423555)

Kinetic:       -167.862840
Potential:      +23.003108
External:        +0.000000
XC:             -32.136534
Entropy (-ST):   -2.021422
Local:           -4.448862
--------------------------
Free energy:   -183.466551
Extrapolated:  -182.455840

Fermi level: 0.82537

[...]
  27 Pt     0.035283    1.655510   17.050956    ( 0.0000,  0.0000,  0.0000)
  28 Pd     2.887379    1.698212   17.048932    ( 0.0000,  0.0000,  0.0000)
  29 Pd     5.612741    1.683060   17.091234    ( 0.0000,  0.0000,  0.0000)
  30 Pd     1.414977    4.088706   17.090108    ( 0.0000,  0.0000,  0.0000)
  31 Ru     4.258160    4.086513   17.282918    ( 0.0000,  0.0000,  0.0000)
  32 Pt     6.993703    4.127413   17.122198    ( 0.0000,  0.0000,  0.0000)
  33 Ag     2.777623    6.497987   17.073174    ( 0.0000,  0.0000,  0.0000)
  34 Pt     5.608650    6.458898   17.059030    ( 0.0000,  0.0000,  0.0000)
  35 Ru     8.285761    6.452630   17.196974    ( 0.0000,  0.0000,  0.0000)
  36 Pd     0.086433    0.044409   19.409770    ( 0.0000,  0.0000,  0.0000)
  37 Ru     2.846862    0.011960   19.170326    ( 0.0000,  0.0000,  0.0000)
  38 Pd     5.637084    0.119221   19.424581    ( 0.0000,  0.0000,  0.0000)
  39 Pt     1.500929    2.346202   19.381032    ( 0.0000,  0.0000,  0.0000)
  40 Pd     4.234145    2.461800   19.444686    ( 0.0000,  0.0000,  0.0000)
  41 Pd     7.145374    2.562588   19.419564    ( 0.0000,  0.0000,  0.0000)
  42 Pt     2.815821    4.808321   19.416556    ( 0.0000,  0.0000,  0.0000)
  43 Pd     5.652255    4.902367   19.496534    ( 0.0000,  0.0000,  0.0000)
  44 Ru     8.343504    5.127914   19.408956    ( 0.0000,  0.0000,  0.0000)
  45 O      9.563351    5.328898   20.762340    ( 0.0000,  0.0000,  0.0000)

Unit cell:
           periodic     x           y           z      points  spacing
  1. axis:    yes    8.379498    0.000000    0.000000    35     0.2073
  2. axis:    yes    4.189749    7.256858    0.000000    35     0.2073
  3. axis:    no     0.000000    0.000000   29.243062   135     0.2166

  Lengths:   8.379498   8.379498  29.243062
  Angles:   90.000000  90.000000  60.000000

Effective grid spacing dv^(1/3) = 0.2207

                     log10-error:    total        iterations:
           time      wfs    density  energy       fermi  poisson
iter:   1  08:57:12  -2.76   +inf  -183.159622    3             
iter:   2  08:58:21  -2.19  -2.29  -209.825562    37            
iter:   3  08:59:30  -2.53  -1.55  -182.965931    37            
iter:   4  09:00:39  -3.54  -2.46  -182.625112    3             
iter:   5  09:01:49  -4.12  -2.73  -182.534051    3             
iter:   6  09:02:58  -4.85  -3.13  -182.535548    3             
iter:   7  09:04:09  -5.45  -3.08  -182.524374    2             
iter:   8  09:05:18  -5.20  -3.36  -182.518661    2             
iter:   9  09:06:30  -5.82  -3.36  -182.516571    2             
iter:  10  09:07:42  -5.87  -3.61  -182.517043    2             
iter:  11  09:08:52  -5.68  -3.52  -182.515865    2             
iter:  12  09:10:04  -5.98  -3.66  -182.516140    2             
iter:  13  09:11:13  -6.25  -3.76  -182.515902    2             
iter:  14  09:12:23  -6.67  -3.98  -182.515603    2             
iter:  15  09:13:33  -6.96  -3.79  -182.515466    2             
iter:  16  09:14:43  -7.27  -4.06  -182.515544    2             
iter:  17  09:15:52  -7.10  -4.11  -182.515409    2             
iter:  18  09:17:00  -6.71  -4.16  -182.515406    2             
iter:  19  09:18:27  -7.26  -4.33  -182.515647    2             
iter:  20  09:19:58  -7.38  -4.40  -182.515474    2             
iter:  21  09:21:31  -7.39  -4.12  -182.515394    2             
iter:  22  09:23:03  -7.62  -4.58  -182.515510    2             

Converged after 22 iterations.

Dipole moment: (14.555842, 13.781503, -0.246421) |e|*Ang

Energy contributions relative to reference atoms: (reference = -9073453.423555)

Kinetic:       -170.131104
Potential:      +24.863471
External:        +0.000000
XC:             -31.783331
Entropy (-ST):   -2.004646
Local:           -4.462223
--------------------------
Free energy:   -183.517833
Extrapolated:  -182.515510

Fermi level: 0.81406

Showing only first 2 kpts
 Kpt  Band  Eigenvalues  Occupancy
  0   367      0.80426    0.13112
  0   368      0.84330    0.10685
  0   369      0.86121    0.09606
  0   370      0.89117    0.07906

  1   367      0.71425    0.18267
  1   368      0.74808    0.16480
  1   369      0.75684    0.15982
  1   370      0.78546    0.14275



Forces in eV/Ang:
  0 Pd    0.09631    0.51052   -0.42194
  1 Ag    0.10384    0.49509   -0.51286
  2 Pt   -0.23104    0.51003    0.83119
  3 Pd    0.10003    0.02997   -0.08726
  4 Pd    0.10818   -0.37009    0.20323
  5 Pt   -0.13146   -0.29707   -0.08681
  6 Pd   -0.16847   -0.39434   -0.05371
  7 Ag   -0.12581   -0.45567   -0.70798
  8 Pd   -0.24687   -0.30013    0.27082
  9 Ag    0.52126    0.20658    0.41070
 10 Ru    2.20323    1.27840    0.40997
 11 Ru   -1.86327    0.85031   -0.33347
 12 Pd    1.09503   -0.22442   -0.00338
 13 Ru   -0.55213   -1.49290   -0.85476
 14 Ag   -0.42350    0.13999    0.30100
 15 Pd    0.17740   -0.56735    0.07848
 16 Ag   -0.17876   -0.37894    0.36216
 17 Pd   -0.36164    0.53672    0.00992
 18 Ag   -0.00146   -0.00944   -0.01973
 19 Ag    0.01769   -0.00428    0.01811
 20 Pt   -0.01074    0.04988   -0.01339
 21 Ag    0.00262    0.01794    0.03187
 22 Ag    0.01290    0.00863   -0.00745
 23 Ag    0.00846    0.00786    0.00655
 24 Pd   -0.00414   -0.01227   -0.01436
 25 Pd    0.01399   -0.01465    0.00822
 26 Ag   -0.01539    0.00318    0.02126
 27 Pt   -0.00080    0.03022    0.01211
 28 Pd   -0.03728   -0.00581   -0.02243
 29 Pd   -0.00375    0.05042    0.04035
 30 Pd   -0.01197    0.01917    0.06718
 31 Ru    0.00482    0.01246    0.02083
 32 Pt    0.01446   -0.09419   -0.00668
 33 Ag   -0.00735    0.01140    0.02758
 34 Pt   -0.00841    0.00333    0.00636
 35 Ru    0.02565   -0.02896    0.05145
 36 Pd   -0.05373   -0.04027    0.03473
 37 Ru   -0.04300    0.03333    0.06376
 38 Pd   -0.01967   -0.02727   -0.03830
 39 Pt   -0.00053   -0.00647   -0.05984
 40 Pd    0.01562    0.02387    0.02280
 41 Pd   -0.04374   -0.06193   -0.01067
 42 Pt    0.01317    0.03798   -0.02229
 43 Pd    0.03711   -0.00303    0.01118
 44 Ru   -0.04161    0.05559    0.05171
 45 O     0.05905   -0.13265    0.08512

System changes: positions 

Initializing position-dependent things.

Density initialized from wave functions
                                            
                                            
                                            
                                            
                                  O         
                                            
                 Pt     Pd     Ru           
                          Pd                
            Pt    APd    Pt    Ru           
       Pd    PRu    RPd    Pt               
                                            
        Pt     Pd    PPd    Pd    Ag        
                                            
                Ag     Ag     Ag            
           Ag     Ag     Pt                 
                 Pd     Ag     Pd           
            Pd     Ru     Ag                
                  Pd     Ag     Pd          
       Ag    PRu    PRu    Pt               
        Pd     Ag     Pt                    
                                            
                                            
                                            
                                            
                                            

Positions:
   0 Pd     0.000000    1.633958   10.000000    ( 0.0000,  0.0000,  0.0000)
   1 Ag     2.830098    1.633958   10.000000    ( 0.0000,  0.0000,  0.0000)
   2 Pt     5.660196    1.633958   10.000000    ( 0.0000,  0.0000,  0.0000)
   3 Pd     1.415049    4.084895   10.000000    ( 0.0000,  0.0000,  0.0000)
   4 Pd     4.245147    4.084895   10.000000    ( 0.0000,  0.0000,  0.0000)
   5 Pt     7.075245    4.084895   10.000000    ( 0.0000,  0.0000,  0.0000)
   6 Pd     2.830098    6.535832   10.000000    ( 0.0000,  0.0000,  0.0000)
   7 Ag     5.660196    6.535832   10.000000    ( 0.0000,  0.0000,  0.0000)
   8 Pd     8.490294    6.535832   10.000000    ( 0.0000,  0.0000,  0.0000)
   9 Ag     0.000000    0.000000   12.310765    ( 0.0000,  0.0000,  0.0000)
  10 Ru     2.830098    0.000000   12.310765    ( 0.0000,  0.0000,  0.0000)
  11 Ru     5.660196    0.000000   12.310765    ( 0.0000,  0.0000,  0.0000)
  12 Pd     1.415049    2.450937   12.310765    ( 0.0000,  0.0000,  0.0000)
  13 Ru     4.245147    2.450937   12.310765    ( 0.0000,  0.0000,  0.0000)
  14 Ag     7.075245    2.450937   12.310765    ( 0.0000,  0.0000,  0.0000)
  15 Pd     2.830098    4.901874   12.310765    ( 0.0000,  0.0000,  0.0000)
  16 Ag     5.660196    4.901874   12.310765    ( 0.0000,  0.0000,  0.0000)
  17 Pd     8.490294    4.901874   12.310765    ( 0.0000,  0.0000,  0.0000)
  18 Ag     1.419540    0.842226   14.676214    ( 0.0000,  0.0000,  0.0000)
  19 Ag     4.230249    0.836706   14.675983    ( 0.0000,  0.0000,  0.0000)
  20 Pt     6.996716    0.831299   14.671962    ( 0.0000,  0.0000,  0.0000)
  21 Ag     2.841355    3.286257   14.698281    ( 0.0000,  0.0000,  0.0000)
  22 Ag     5.608178    3.275885   14.714553    ( 0.0000,  0.0000,  0.0000)
  23 Ag     8.400648    3.281538   14.712920    ( 0.0000,  0.0000,  0.0000)
  24 Pd     4.224358    5.664168   14.784255    ( 0.0000,  0.0000,  0.0000)
  25 Pd     7.026280    5.720824   14.704011    ( 0.0000,  0.0000,  0.0000)
  26 Ag     9.803761    5.684329   14.704830    ( 0.0000,  0.0000,  0.0000)
  27 Pt     0.034644    1.656161   17.051452    ( 0.0000,  0.0000,  0.0000)
  28 Pd     2.886085    1.697628   17.043156    ( 0.0000,  0.0000,  0.0000)
  29 Pd     5.611612    1.688594   17.097612    ( 0.0000,  0.0000,  0.0000)
  30 Pd     1.413806    4.091107   17.098490    ( 0.0000,  0.0000,  0.0000)
  31 Ru     4.255161    4.091985   17.289321    ( 0.0000,  0.0000,  0.0000)
  32 Pt     6.995189    4.120551   17.121762    ( 0.0000,  0.0000,  0.0000)
  33 Ag     2.778307    6.501749   17.071419    ( 0.0000,  0.0000,  0.0000)
  34 Pt     5.611321    6.459137   17.059230    ( 0.0000,  0.0000,  0.0000)
  35 Ru     8.287576    6.452328   17.205969    ( 0.0000,  0.0000,  0.0000)
  36 Pd     0.081583    0.042698   19.413975    ( 0.0000,  0.0000,  0.0000)
  37 Ru     2.838243    0.021732   19.178496    ( 0.0000,  0.0000,  0.0000)
  38 Pd     5.632800    0.119469   19.415905    ( 0.0000,  0.0000,  0.0000)
  39 Pt     1.503386    2.339922   19.376074    ( 0.0000,  0.0000,  0.0000)
  40 Pd     4.236918    2.465876   19.446995    ( 0.0000,  0.0000,  0.0000)
  41 Pd     7.140249    2.556351   19.420889    ( 0.0000,  0.0000,  0.0000)
  42 Pt     2.813168    4.808565   19.416521    ( 0.0000,  0.0000,  0.0000)
  43 Pd     5.655307    4.904440   19.496503    ( 0.0000,  0.0000,  0.0000)
  44 Ru     8.330536    5.135876   19.424819    ( 0.0000,  0.0000,  0.0000)
  45 O      9.562375    5.306227   20.769288    ( 0.0000,  0.0000,  0.0000)

Unit cell:
           periodic     x           y           z      points  spacing
  1. axis:    yes    8.379498    0.000000    0.000000    35     0.2073
  2. axis:    yes    4.189749    7.256858    0.000000    35     0.2073
  3. axis:    no     0.000000    0.000000   29.243062   135     0.2166

  Lengths:   8.379498   8.379498  29.243062
  Angles:   90.000000  90.000000  60.000000

Effective grid spacing dv^(1/3) = 0.2207

                     log10-error:    total        iterations:
           time      wfs    density  energy       fermi  poisson
iter:   1  09:25:15  -3.14   +inf  -182.573855    3             
iter:   2  09:26:47  -3.69  -2.85  -182.577520    3             
iter:   3  09:28:18  -4.49  -2.92  -182.525115    3             
iter:   4  09:29:50  -5.23  -3.43  -182.525038    2             
iter:   5  09:31:23  -5.31  -3.49  -182.534327    2             
iter:   6  09:32:55  -5.45  -3.13  -182.525166    2             
iter:   7  09:34:27  -5.70  -3.46  -182.522991    2             
iter:   8  09:35:59  -6.00  -3.71  -182.523993    2             
iter:   9  09:37:31  -6.12  -3.77  -182.522704    2             
iter:  10  09:39:03  -6.32  -3.88  -182.522894    2             
iter:  11  09:40:35  -6.62  -4.04  -182.522996    1             
iter:  12  09:42:06  -6.94  -3.93  -182.522751    2             
iter:  13  09:43:16  -7.04  -4.07  -182.522777    2             
iter:  14  09:44:29  -7.02  -4.10  -182.523119    2             
iter:  15  09:45:41  -7.29  -4.12  -182.522741    2             
iter:  16  09:46:54  -7.36  -4.17  -182.522858    2             
iter:  17  09:48:07  -7.39  -4.41  -182.522877    2             
iter:  18  09:49:20  -7.20  -4.48  -182.522682    2             
iter:  19  09:50:33  -7.59  -4.51  -182.522865    2             

Converged after 19 iterations.

Dipole moment: (14.373843, 13.534073, -0.246969) |e|*Ang

Energy contributions relative to reference atoms: (reference = -9073453.423555)

Kinetic:       -170.874925
Potential:      +25.501329
External:        +0.000000
XC:             -31.684601
Entropy (-ST):   -2.003072
Local:           -4.463132
--------------------------
Free energy:   -183.524401
Extrapolated:  -182.522865

Fermi level: 0.81371

Showing only first 2 kpts
 Kpt  Band  Eigenvalues  Occupancy
  0   367      0.80418    0.13095
  0   368      0.84332    0.10663
  0   369      0.86218    0.09528
  0   370      0.89204    0.07840

  1   367      0.71428    0.18249
  1   368      0.74833    0.16446
  1   369      0.75848    0.15867
  1   370      0.78579    0.14234



Forces in eV/Ang:
  0 Pd    0.09709    0.51126   -0.42009
  1 Ag    0.10413    0.49492   -0.51199
  2 Pt   -0.23299    0.50985    0.83473
  3 Pd    0.10042    0.02933   -0.08492
  4 Pd    0.10730   -0.37083    0.20334
  5 Pt   -0.13120   -0.29751   -0.08569
  6 Pd   -0.16882   -0.39496   -0.05391
  7 Ag   -0.12551   -0.45509   -0.70782
  8 Pd   -0.24661   -0.29913    0.27304
  9 Ag    0.51663    0.20572    0.41258
 10 Ru    2.20962    1.27969    0.41467
 11 Ru   -1.86579    0.84678   -0.32582
 12 Pd    1.10008   -0.22013    0.00266
 13 Ru   -0.55725   -1.49388   -0.84098
 14 Ag   -0.42062    0.14410    0.29566
 15 Pd    0.17149   -0.56823    0.09044
 16 Ag   -0.17637   -0.37549    0.36227
 17 Pd   -0.35771    0.53963    0.01679
 18 Ag   -0.00519   -0.00794   -0.00790
 19 Ag   -0.00925   -0.00132    0.00306
 20 Pt    0.01312    0.00500   -0.00532
 21 Ag   -0.00305    0.00617    0.01074
 22 Ag    0.00773    0.01051    0.01883
 23 Ag    0.01429   -0.00550    0.00302
 24 Pd    0.00097    0.02135    0.00280
 25 Pd   -0.00276   -0.00022    0.01639
 26 Ag    0.00754    0.01141    0.01163
 27 Pt    0.00699    0.01390   -0.00619
 28 Pd   -0.01414   -0.01143   -0.00543
 29 Pd   -0.01354    0.04096   -0.02360
 30 Pd   -0.02137    0.02557    0.05506
 31 Ru    0.02653   -0.00397   -0.02868
 32 Pt    0.00607    0.00264    0.01894
 33 Ag   -0.00002    0.00742    0.01065
 34 Pt   -0.00322   -0.01010    0.00346
 35 Ru   -0.02675   -0.03444    0.07427
 36 Pd   -0.06417   -0.04033    0.01816
 37 Ru    0.02288   -0.04095   -0.00127
 38 Pd   -0.02095   -0.05762    0.00935
 39 Pt   -0.02836    0.02601   -0.00759
 40 Pd   -0.00376    0.02488    0.03327
 41 Pd    0.00139   -0.01931    0.00527
 42 Pt   -0.01400    0.05163   -0.00725
 43 Pd   -0.00932   -0.00761    0.02692
 44 Ru    0.02789    0.05546    0.00184
 45 O     0.02586    0.01354    0.00605

Timing:                                      incl.     excl.
-------------------------------------------------------------------
Density initialized from wave functions:    59.160    59.159   0.2% |
 Symmetrize density:                         0.001     0.001   0.0% |
Forces:                                    318.775   318.775   1.0% |
Hamiltonian:                                46.535     0.155   0.0% |
 Atomic:                                    13.799     7.417   0.0% |
  XC Correction:                             6.382     6.382   0.0% |
 Calculate atomic Hamiltonians:             14.043    14.043   0.0% |
 Communicate:                                0.908     0.908   0.0% |
 Initialize Hamiltonian:                     0.000     0.000   0.0% |
 Poisson:                                    0.091     0.091   0.0% |
 XC 3D grid:                                17.540    17.540   0.1% |
LCAO initialization:                        52.703     3.084   0.0% |
 LCAO eigensolver:                           6.445     0.002   0.0% |
  Calculate projections:                     0.051     0.051   0.0% |
  DenseAtomicCorrection:                     0.047     0.047   0.0% |
  Distribute overlap matrix:                 0.472     0.472   0.0% |
  Orbital Layouts:                           0.430     0.430   0.0% |
  Potential matrix:                          5.406     5.406   0.0% |
  Sum over cells:                            0.037     0.037   0.0% |
 LCAO to grid:                              40.889    40.889   0.1% |
 Set positions (LCAO WFS):                   2.285     0.952   0.0% |
  Basic WFS set positions:                   0.002     0.002   0.0% |
  Basis functions set positions:             0.000     0.000   0.0% |
  P tci:                                     0.512     0.512   0.0% |
  ST tci:                                    0.612     0.612   0.0% |
  mktci:                                     0.206     0.206   0.0% |
PWDescriptor:                                0.042     0.042   0.0% |
Redistribute:                                0.104     0.104   0.0% |
SCF-cycle:                               29783.615  2338.794   7.7% |--|
 Davidson:                               25154.741  5811.237  19.1% |-------|
  Apply H:                                3875.538  3747.744  12.3% |----|
   HMM T:                                  127.794   127.794   0.4% |
  Subspace diag:                          3594.423     0.115   0.0% |
   calc_h_matrix:                         2075.892   775.707   2.6% ||
    Apply H:                              1300.185  1257.152   4.1% |-|
     HMM T:                                 43.033    43.033   0.1% |
   diagonalize:                             59.822    59.822   0.2% |
   rotate_psi:                            1458.594  1458.594   4.8% |-|
  calc. matrices:                         7847.253  5262.311  17.3% |------|
   Apply H:                               2584.942  2499.602   8.2% |--|
    HMM T:                                  85.340    85.340   0.3% |
  diagonalize:                            1098.180  1098.180   3.6% ||
  rotate_psi:                             2928.112  2928.112   9.6% |---|
 Density:                                 1232.633     0.019   0.0% |
  Atomic density matrices:                   6.696     6.696   0.0% |
  Mix:                                     355.383   355.383   1.2% |
  Multipole moments:                         0.516     0.516   0.0% |
  Pseudo density:                          870.019   870.000   2.9% ||
   Symmetrize density:                       0.019     0.019   0.0% |
 Hamiltonian:                              937.445     3.256   0.0% |
  Atomic:                                  271.545   141.456   0.5% |
   XC Correction:                          130.089   130.089   0.4% |
  Calculate atomic Hamiltonians:           287.278   287.278   0.9% |
  Communicate:                              17.778    17.778   0.1% |
  Poisson:                                   1.903     1.903   0.0% |
  XC 3D grid:                              355.684   355.684   1.2% |
 Orthonormalize:                           120.002     0.007   0.0% |
  calc_s_matrix:                            18.250    18.250   0.1% |
  inverse-cholesky:                          1.598     1.598   0.0% |
  projections:                              65.217    65.217   0.2% |
  rotate_psi_s:                             34.929    34.929   0.1% |
Set symmetry:                                0.002     0.002   0.0% |
Other:                                     150.683   150.683   0.5% |
-------------------------------------------------------------------
Total:                                             30411.617 100.0%

Date: Fri Mar  4 09:50:51 2022
