
  ___ ___ ___ _ _ _  
 |   |   |_  | | | | 
 | | | | | . | | | | 
 |__ |  _|___|_____|  22.1.0
 |___|_|             

User:   clausen@node487.cluster
Date:   Fri Jun 14 14:00:02 2024
Arch:   x86_64
Pid:    33178
Python: 3.10.4
gpaw:   /groups/kemi/clausen/miniconda3/envs/gpaw22/lib/python3.10/site-packages/gpaw
_gpaw:  /groups/kemi/clausen/miniconda3/envs/gpaw22/lib/python3.10/site-packages/
        _gpaw.cpython-310-x86_64-linux-gnu.so
ase:    /groups/kemi/clausen/miniconda3/envs/gpaw22/lib/python3.10/site-packages/ase (version 3.22.1)
numpy:  /groups/kemi/clausen/miniconda3/envs/gpaw22/lib/python3.10/site-packages/numpy (version 1.23.1)
scipy:  /groups/kemi/clausen/miniconda3/envs/gpaw22/lib/python3.10/site-packages/scipy (version 1.8.1)
libxc:  5.2.3
units:  Angstrom and eV
cores: 24
OpenMP: True
OMP_NUM_THREADS: 1

Input parameters:
  eigensolver: {name: dav,
                niter: 3}
  kpts: [4 4 1]
  mode: {ecut: 400.0,
         name: pw}
  xc: RPBE

System changes: positions, numbers, cell, pbc, initial_charges, initial_magmoms 

Initialize ...

Pd-setup:
  name: Palladium
  id: 6da19bfba079f22767af9506641940b9
  Z: 46.0
  valence: 16
  core: 30
  charge: 0.0
  file: /groups/kemi/clausen/miniconda3/envs/gpaw22/share/gpaw/Pd.RPBE.gz
  compensation charges: gauss, rc=0.38, lmax=2
  cutoffs: 2.38(filt), 2.28(core),
  valence states:
                energy  radius
    5s(0.00)    -3.225   1.228
    4p(6.00)   -51.131   1.360
    5p(0.00)    -0.373   1.360
    4d(10.00)    -3.964   1.228
    *s          23.987   1.228
    *d          23.247   1.228

  Using partial waves for Pd as LCAO basis

Pt-setup:
  name: Platinum
  id: f04f522592575c47ad794f6b4a415b4b
  Z: 78.0
  valence: 16
  core: 62
  charge: 0.0
  file: /groups/kemi/clausen/miniconda3/envs/gpaw22/share/gpaw/Pt.RPBE.gz
  compensation charges: gauss, rc=0.41, lmax=2
  cutoffs: 2.26(filt), 2.26(core),
  valence states:
                energy  radius
    6s(1.00)    -5.516   1.307
    5p(6.00)   -55.971   1.371
    6p(0.00)    -0.856   1.371
    5d(9.00)    -6.087   1.307
    *s          21.695   1.307
    *d          21.125   1.307

  Using partial waves for Pt as LCAO basis

Ag-setup:
  name: Silver
  id: c05e55bab2c3858b3f9398f6d75cb77c
  Z: 47.0
  valence: 17
  core: 30
  charge: 0.0
  file: /groups/kemi/clausen/miniconda3/envs/gpaw22/share/gpaw/Ag.RPBE.gz
  compensation charges: gauss, rc=0.40, lmax=2
  cutoffs: 2.35(filt), 2.19(core),
  valence states:
                energy  radius
    5s(1.00)    -4.277   1.286
    4p(6.00)   -58.523   1.328
    5p(0.00)    -0.755   1.328
    4d(10.00)    -7.386   1.180
    *s          22.934   1.286
    *d          19.826   1.180

  Using partial waves for Ag as LCAO basis

Ir-setup:
  name: Iridium
  id: 73b603359d1d5397a85ae3c2440f9033
  Z: 77.0
  valence: 15
  core: 62
  charge: 0.0
  file: /groups/kemi/clausen/miniconda3/envs/gpaw22/share/gpaw/Ir.RPBE.gz
  compensation charges: gauss, rc=0.40, lmax=2
  cutoffs: 2.40(filt), 2.36(core),
  valence states:
                energy  radius
    6s(2.00)    -6.219   1.296
    5p(6.00)   -54.684   1.328
    6p(0.00)    -1.215   1.328
    5d(7.00)    -7.118   1.286
    *s          20.992   1.296
    *d          20.093   1.286

  Using partial waves for Ir as LCAO basis

Ru-setup:
  name: Ruthenium
  id: 76477906e28f51dc1b29884d53556fe9
  Z: 44.0
  valence: 16
  core: 28
  charge: 0.0
  file: /groups/kemi/clausen/miniconda3/envs/gpaw22/share/gpaw/Ru.RPBE.gz
  compensation charges: gauss, rc=0.39, lmax=2
  cutoffs: 2.16(filt), 1.30(core),
  valence states:
                energy  radius
    4s(2.00)   -76.255   1.281
    5s(1.00)    -4.126   1.281
    4p(6.00)   -46.371   1.286
    5p(0.00)    -0.913   1.286
    4d(7.00)    -5.146   1.254
    *d          22.066   1.254

  Using partial waves for Ru as LCAO basis

O-setup:
  name: Oxygen
  id: 08071ca1eed670e7821b24b7eb4d558c
  Z: 8.0
  valence: 6
  core: 2
  charge: 0.0
  file: /groups/kemi/clausen/miniconda3/envs/gpaw22/share/gpaw/O.RPBE.gz
  compensation charges: gauss, rc=0.21, lmax=2
  cutoffs: 1.17(filt), 0.83(core),
  valence states:
                energy  radius
    2s(2.00)   -24.041   0.688
    2p(4.00)    -8.984   0.598
    *s           3.170   0.688
    *p          18.228   0.598
    *d           0.000   0.619

  Using partial waves for O as LCAO basis

H-setup:
  name: Hydrogen
  id: ea3f9156a1dc40d47a60fdce8f8bd75d
  Z: 1.0
  valence: 1
  core: 0
  charge: 0.0
  file: /groups/kemi/clausen/miniconda3/envs/gpaw22/share/gpaw/H.RPBE.gz
  compensation charges: gauss, rc=0.15, lmax=2
  cutoffs: 0.85(filt), 0.53(core),
  valence states:
                energy  radius
    1s(1.00)    -6.572   0.476
    *s          20.639   0.476
    *p           0.000   0.476

  Using partial waves for H as LCAO basis

Reference energy: -12373371.003080

Spin-paired calculation

Convergence criteria:
 Maximum [total energy] change in last 3 cyles: 0.0005 eV / electron
 Maximum integral of absolute [dens]ity change: 0.0001 electrons / valence electron
 Maximum integral of absolute [eigenst]ate change: 4e-08 eV^2 / valence electron
 Maximum number of scf [iter]ations: 333
 (Square brackets indicate name in SCF output, whereas a 'c' in
 the SCF output indicates the quantity has converged.)

Symmetries present (total): 1

  ( 1  0  0)
  ( 0  1  0)
  ( 0  0  1)

16 k-points: 4 x 4 x 1 Monkhorst-Pack grid
8 k-points in the irreducible part of the Brillouin zone
       k-points in crystal coordinates                weights
   0:     0.12500000   -0.37500000    0.00000000          2/16
   1:     0.12500000   -0.12500000    0.00000000          2/16
   2:     0.12500000    0.12500000    0.00000000          2/16
   3:     0.12500000    0.37500000    0.00000000          2/16
   4:     0.37500000   -0.37500000    0.00000000          2/16
   5:     0.37500000   -0.12500000    0.00000000          2/16
   6:     0.37500000    0.12500000    0.00000000          2/16
   7:     0.37500000    0.37500000    0.00000000          2/16

Wave functions: Plane wave expansion
  Cutoff energy: 400.000 eV
  Number of coefficients (min, max): 33288, 33380
  Pulay-stress correction: 0.000000 eV/Ang^3 (de/decut=0.000000)
  Using FFTW library
  ScaLapack parameters: grid=3x1, blocksize=64
  Wavefunction extrapolation:
    Improved wavefunction reuse through dual PAW basis 

Occupation numbers: Fermi-Dirac: width=0.1000 eV
 

Eigensolver
   Davidson(niter=3) 

Densities:
  Coarse grid: 40*40*140 grid
  Fine grid: 80*80*280 grid
  Total Charge: 0.000000 

Density mixing:
  Method: separate
  Backend: pulay
  Linear mixing parameter: 0.05
  Mixing with 5 old densities
  Damping of long wave oscillations: 50 

Hamiltonian:
  XC and Coulomb potentials evaluated on a 80*80*280 grid
  Using the RPBE Exchange-Correlation functional
  External potential:
    NoExternalPotential
 

XC parameters: RPBE with 2 nearest neighbor stencil

Memory estimate:
  Process memory now: 196.33 MiB
  Calculator: 564.18 MiB
    Density: 50.39 MiB
      Arrays: 14.92 MiB
      Localized functions: 29.74 MiB
      Mixer: 5.74 MiB
    Hamiltonian: 10.71 MiB
      Arrays: 9.75 MiB
      XC: 0.00 MiB
      Poisson: 0.00 MiB
      vbar: 0.96 MiB
    Wavefunctions: 503.07 MiB
      Arrays psit_nG: 227.67 MiB
      Eigensolver: 260.72 MiB
      Projections: 1.88 MiB
      Projectors: 3.99 MiB
      PW-descriptor: 8.80 MiB

Total number of cores used: 24
Parallelization over k-points: 8
Domain decomposition: 1 x 1 x 3
                      2 x 2 x 6 (xc only)

Number of atoms: 47
Number of atomic orbitals: 548
Number of bands in calculation: 447
Number of valence electrons: 738
Bands to converge: occupied

... initialized

Initializing position-dependent things.

Density initialized from atomic densities
Creating initial wave functions:
  447 bands from LCAO basis set

                                             
                                             
                                             
                                             
                                             
                                             
                     H                       
                   O                         
                  Ir    Pt     Ag            
                                             
             Pt   PRu    PPt    Pd           
              Pt     Ag                      
       Pt    Ag     Pd     Ru                
        Ag     Ag     Pt           Ag        
                     Pt     Pt               
                Ru     Pd     Pt             
                                             
           Ag    PAg    PPt    Pd            
                                             
            Ir     Pt    PAg    Pd           
       Pd    PPd    APt    Ag                
                                             
        Pd     Pt     Ag                     
                                             
                                             
                                             
                                             
                                             

Positions:
   0 Pd     0.000000    1.637674   10.000000    ( 0.0000,  0.0000,  0.0000)
   1 Pt     2.836535    1.637674   10.000000    ( 0.0000,  0.0000,  0.0000)
   2 Ag     5.673071    1.637674   10.000000    ( 0.0000,  0.0000,  0.0000)
   3 Pd     1.418268    4.094186   10.000000    ( 0.0000,  0.0000,  0.0000)
   4 Ag     4.254803    4.094186   10.000000    ( 0.0000,  0.0000,  0.0000)
   5 Ag     7.091338    4.094186   10.000000    ( 0.0000,  0.0000,  0.0000)
   6 Ag     2.836535    6.550698   10.000000    ( 0.0000,  0.0000,  0.0000)
   7 Pd     5.673071    6.550698   10.000000    ( 0.0000,  0.0000,  0.0000)
   8 Pd     8.509606    6.550698   10.000000    ( 0.0000,  0.0000,  0.0000)
   9 Pd     0.000000    0.000000   12.317643    ( 0.0000,  0.0000,  0.0000)
  10 Pd     2.836535    0.000000   12.317643    ( 0.0000,  0.0000,  0.0000)
  11 Pt     5.673071    0.000000   12.317643    ( 0.0000,  0.0000,  0.0000)
  12 Ir     1.418268    2.456512   12.317643    ( 0.0000,  0.0000,  0.0000)
  13 Pt     4.254803    2.456512   12.317643    ( 0.0000,  0.0000,  0.0000)
  14 Ag     7.091338    2.456512   12.317643    ( 0.0000,  0.0000,  0.0000)
  15 Pt     2.836535    4.913023   12.317643    ( 0.0000,  0.0000,  0.0000)
  16 Pd     5.673071    4.913023   12.317643    ( 0.0000,  0.0000,  0.0000)
  17 Pd     8.509606    4.913023   12.317643    ( 0.0000,  0.0000,  0.0000)
  18 Ag     1.386531    0.763556   14.612127    ( 0.0000,  0.0000,  0.0000)
  19 Ag     4.217140    0.786897   14.656625    ( 0.0000,  0.0000,  0.0000)
  20 Pt     7.062906    0.797650   14.661830    ( 0.0000,  0.0000,  0.0000)
  21 Ru     2.750963    3.304886   14.388561    ( 0.0000,  0.0000,  0.0000)
  22 Pd     5.602551    3.218685   14.639951    ( 0.0000,  0.0000,  0.0000)
  23 Pt     8.522404    3.252925   14.664528    ( 0.0000,  0.0000,  0.0000)
  24 Pt     4.170018    5.653000   14.615813    ( 0.0000,  0.0000,  0.0000)
  25 Pt     7.045875    5.606680   14.668177    ( 0.0000,  0.0000,  0.0000)
  26 Ag     9.874604    5.745082   14.696712    ( 0.0000,  0.0000,  0.0000)
  27 Ag     0.008271    1.607036   16.990555    ( 0.0000,  0.0000,  0.0000)
  28 Ag     2.792579    1.619369   16.881405    ( 0.0000,  0.0000,  0.0000)
  29 Pt     5.667100    1.638371   17.010896    ( 0.0000,  0.0000,  0.0000)
  30 Ag     1.336657    4.090436   17.016493    ( 0.0000,  0.0000,  0.0000)
  31 Pd     4.156889    4.034058   16.812256    ( 0.0000,  0.0000,  0.0000)
  32 Ru     6.950997    4.060452   16.869499    ( 0.0000,  0.0000,  0.0000)
  33 Pd     2.789491    6.566972   17.027197    ( 0.0000,  0.0000,  0.0000)
  34 Pt     5.653668    6.422911   16.906578    ( 0.0000,  0.0000,  0.0000)
  35 Pd     8.427941    6.500649   17.069490    ( 0.0000,  0.0000,  0.0000)
  36 Pt     0.076782   -0.041353   19.274293    ( 0.0000,  0.0000,  0.0000)
  37 Pt     2.811452    0.089084   19.254665    ( 0.0000,  0.0000,  0.0000)
  38 Ag     5.710723    0.010761   19.489412    ( 0.0000,  0.0000,  0.0000)
  39 Pt     1.555073    2.469759   19.393081    ( 0.0000,  0.0000,  0.0000)
  40 Ru     4.240188    2.601647   19.102653    ( 0.0000,  0.0000,  0.0000)
  41 Pt     7.117679    2.492363   19.219346    ( 0.0000,  0.0000,  0.0000)
  42 Ir     3.044217    4.828007   19.146959    ( 0.0000,  0.0000,  0.0000)
  43 Pt     5.722064    4.861267   19.161462    ( 0.0000,  0.0000,  0.0000)
  44 Ag     8.573183    4.898414   19.530449    ( 0.0000,  0.0000,  0.0000)
  45 O      4.240188    2.601647   21.530449    ( 0.0000,  0.0000,  0.0000)
  46 H      4.890188    3.251647   21.930449    ( 0.0000,  0.0000,  0.0000)

Unit cell:
           periodic     x           y           z      points  spacing
  1. axis:    yes    8.509606    0.000000    0.000000    40     0.1842
  2. axis:    yes    4.254803    7.369535    0.000000    40     0.1842
  3. axis:    no     0.000000    0.000000   29.270571   140     0.2091

  Lengths:   8.509606   8.509606  29.270571
  Angles:   90.000000  90.000000  60.000000

Effective grid spacing dv^(1/3) = 0.2016

     iter     time        total  log10-change:
                         energy  eigst   dens
iter:   1 14:03:40  -251.016525
iter:   2 14:04:47  -357.631660  -1.41  -1.22
iter:   3 14:05:54  -218.773262  -1.99  -1.08
iter:   4 14:07:00  -206.595352  -2.46  -1.38
iter:   5 14:08:06  -203.207830  -2.63  -1.46
iter:   6 14:09:14  -201.986798  -2.73  -1.53
iter:   7 14:10:22  -197.499583  -2.97  -1.56
iter:   8 14:11:30  -197.138231  -3.36  -1.70
iter:   9 14:12:38  -197.208476c -3.03  -1.72
iter:  10 14:13:45  -195.993788  -3.38  -1.81
iter:  11 14:14:52  -194.678531  -3.38  -1.96
iter:  12 14:16:00  -194.673749  -3.89  -2.16
iter:  13 14:17:08  -194.697203c -4.21  -2.22
iter:  14 14:18:16  -194.709756c -4.27  -2.25
iter:  15 14:19:24  -194.554969c -4.11  -2.26
iter:  16 14:20:32  -195.054448  -4.42  -2.38
iter:  17 14:21:40  -194.450826  -4.31  -2.26
iter:  18 14:22:47  -194.410568  -4.77  -2.54
iter:  19 14:23:55  -194.416843c -4.83  -2.58
iter:  20 14:25:03  -194.356986c -4.83  -2.61
iter:  21 14:26:10  -194.341274c -4.91  -2.73
iter:  22 14:27:18  -194.370581c -4.90  -2.78
iter:  23 14:28:25  -194.335783c -5.68  -2.71
iter:  24 14:29:32  -194.321754c -5.09  -2.83
iter:  25 14:30:40  -194.331160c -5.57  -2.86
iter:  26 14:31:47  -194.321140c -5.62  -2.90
iter:  27 14:32:55  -194.318229c -6.13  -2.99
iter:  28 14:34:02  -194.316469c -5.63  -3.04
iter:  29 14:35:09  -194.325950c -5.23  -3.17
iter:  30 14:36:17  -194.311898c -5.75  -3.16
iter:  31 14:37:25  -194.313741c -6.63  -3.27
iter:  32 14:38:32  -194.312848c -7.03  -3.46
iter:  33 14:39:39  -194.311718c -6.91  -3.51
iter:  34 14:40:46  -194.312123c -6.49  -3.54
iter:  35 14:41:53  -194.313413c -6.90  -3.67
iter:  36 14:43:01  -194.311404c -7.23  -3.74
iter:  37 14:44:09  -194.314050c -6.95  -3.68
iter:  38 14:45:17  -194.313250c -6.98  -3.72
iter:  39 14:46:25  -194.312168c -7.70c -4.06c

Converged after 39 iterations.

Dipole moment: (-5.697143, 7.361519, -0.534388) |e|*Ang

Energy contributions relative to reference atoms: (reference = -12373371.003080)

Kinetic:       -237.233727
Potential:     +110.282411
External:        +0.000000
XC:             -59.398098
Entropy (-ST):   -1.883882
Local:           -7.020812
--------------------------
Free energy:   -195.254109
Extrapolated:  -194.312168

Showing only first 2 kpts
 Kpt  Band  Eigenvalues  Occupancy
  0   367      0.67151    0.95677
  0   368      0.71295    0.75465
  0   369      0.73468    0.65555
  0   370      0.74692    0.60282

  1   367      0.54055    1.54519
  1   368      0.57364    1.41869
  1   369      0.59967    1.30582
  1   370      0.63188    1.15365


Fermi level: 0.66286

No gap

Forces in eV/Ang:
  0 Pd    0.71633    0.06126    0.09663
  1 Pt   -0.60263   -0.14651    0.54832
  2 Ag   -0.11005   -0.08264   -0.55018
  3 Pd   -0.04568   -0.34655    0.20871
  4 Ag   -0.01464    0.02094   -0.56564
  5 Ag    0.14881    0.17013   -0.50164
  6 Ag    0.03913   -0.00211   -0.46789
  7 Pd    0.24211    0.35542    0.05405
  8 Pd   -0.13573    0.13878    0.19672
  9 Pd   -0.01544    0.09175   -0.01881
 10 Pd    0.01225   -0.02449   -0.10733
 11 Pt   -0.03068   -0.14404    0.15436
 12 Ir    0.70119    0.17181    0.00082
 13 Pt   -0.68580   -0.18933    0.25781
 14 Ag    0.10951   -0.02612    0.10080
 15 Pt   -0.29303    0.00337    0.17804
 16 Pd   -0.08538    0.25757    0.16881
 17 Pd    0.15804   -0.01096    0.18550
 18 Ag   -0.04988   -0.01370   -0.03372
 19 Ag    0.01054   -0.01062   -0.00634
 20 Pt   -0.00530   -0.03714   -0.01273
 21 Ru    0.02607    0.01298   -0.02764
 22 Pd   -0.01078    0.00868    0.06868
 23 Pt   -0.01985    0.00101   -0.01031
 24 Pt    0.01816    0.07753   -0.06572
 25 Pt   -0.03450   -0.04187    0.03600
 26 Ag   -0.02046   -0.02728   -0.01331
 27 Ag   -0.03407   -0.01116    0.00104
 28 Ag    0.01241   -0.01366    0.05174
 29 Pt   -0.11093    0.06405    0.10851
 30 Ag   -0.02731   -0.04085   -0.01197
 31 Pd   -0.03174   -0.01846    0.06119
 32 Ru   -0.02008   -0.02902   -0.02971
 33 Pd    0.01309   -0.06553    0.00266
 34 Pt   -0.00182   -0.03113    0.02279
 35 Pd   -0.03512   -0.00258   -0.01580
 36 Pt    0.05536   -0.03636   -0.02707
 37 Pt   -0.11865   -0.13188   -0.05693
 38 Ag    0.04099   -0.00866    0.01870
 39 Pt   -0.09238   -0.03175   -0.06190
 40 Ru    0.21648    0.17571    2.51509
 41 Pt    0.18020    0.04362   -0.10456
 42 Ir    0.04613    0.01458   -0.03581
 43 Pt    0.03742    0.09042   -0.07295
 44 Ag   -0.01116    0.00860    0.01524
 45 O     0.12318    0.07326   -1.58205
 46 H    -0.22950   -0.29211   -0.59116

System changes: positions 

Initializing position-dependent things.

Density initialized from wave functions
                                             
                                             
                                             
                                             
                                             
                                             
                     H                       
                   O                         
                  Ir    Pt     Ag            
                                             
             Pt   PRu    PPt    Pd           
              Pt     Ag                      
       Pt    Ag     Pd     Ru                
        Ag     Ag     Pt           Ag        
                     Pt     Pt               
                Ru     Pd     Pt             
                                             
           Ag    PAg    PPt    Pd            
                                             
            Ir     Pt    PAg    Pd           
       Pd    PPd    APt    Ag                
                                             
        Pd     Pt     Ag                     
                                             
                                             
                                             
                                             
                                             

Positions:
   0 Pd     0.000000    1.637674   10.000000    ( 0.0000,  0.0000,  0.0000)
   1 Pt     2.836535    1.637674   10.000000    ( 0.0000,  0.0000,  0.0000)
   2 Ag     5.673071    1.637674   10.000000    ( 0.0000,  0.0000,  0.0000)
   3 Pd     1.418268    4.094186   10.000000    ( 0.0000,  0.0000,  0.0000)
   4 Ag     4.254803    4.094186   10.000000    ( 0.0000,  0.0000,  0.0000)
   5 Ag     7.091338    4.094186   10.000000    ( 0.0000,  0.0000,  0.0000)
   6 Ag     2.836535    6.550698   10.000000    ( 0.0000,  0.0000,  0.0000)
   7 Pd     5.673071    6.550698   10.000000    ( 0.0000,  0.0000,  0.0000)
   8 Pd     8.509606    6.550698   10.000000    ( 0.0000,  0.0000,  0.0000)
   9 Pd     0.000000    0.000000   12.317643    ( 0.0000,  0.0000,  0.0000)
  10 Pd     2.836535    0.000000   12.317643    ( 0.0000,  0.0000,  0.0000)
  11 Pt     5.673071    0.000000   12.317643    ( 0.0000,  0.0000,  0.0000)
  12 Ir     1.418268    2.456512   12.317643    ( 0.0000,  0.0000,  0.0000)
  13 Pt     4.254803    2.456512   12.317643    ( 0.0000,  0.0000,  0.0000)
  14 Ag     7.091338    2.456512   12.317643    ( 0.0000,  0.0000,  0.0000)
  15 Pt     2.836535    4.913023   12.317643    ( 0.0000,  0.0000,  0.0000)
  16 Pd     5.673071    4.913023   12.317643    ( 0.0000,  0.0000,  0.0000)
  17 Pd     8.509606    4.913023   12.317643    ( 0.0000,  0.0000,  0.0000)
  18 Ag     1.385818    0.763360   14.611645    ( 0.0000,  0.0000,  0.0000)
  19 Ag     4.217291    0.786745   14.656534    ( 0.0000,  0.0000,  0.0000)
  20 Pt     7.062831    0.797119   14.661648    ( 0.0000,  0.0000,  0.0000)
  21 Ru     2.751335    3.305071   14.388166    ( 0.0000,  0.0000,  0.0000)
  22 Pd     5.602397    3.218809   14.640932    ( 0.0000,  0.0000,  0.0000)
  23 Pt     8.522121    3.252940   14.664380    ( 0.0000,  0.0000,  0.0000)
  24 Pt     4.170277    5.654108   14.614875    ( 0.0000,  0.0000,  0.0000)
  25 Pt     7.045382    5.606082   14.668691    ( 0.0000,  0.0000,  0.0000)
  26 Ag     9.874311    5.744693   14.696522    ( 0.0000,  0.0000,  0.0000)
  27 Ag     0.007784    1.606877   16.990569    ( 0.0000,  0.0000,  0.0000)
  28 Ag     2.792756    1.619174   16.882144    ( 0.0000,  0.0000,  0.0000)
  29 Pt     5.665516    1.639286   17.012446    ( 0.0000,  0.0000,  0.0000)
  30 Ag     1.336267    4.089852   17.016322    ( 0.0000,  0.0000,  0.0000)
  31 Pd     4.156436    4.033795   16.813130    ( 0.0000,  0.0000,  0.0000)
  32 Ru     6.950710    4.060037   16.869074    ( 0.0000,  0.0000,  0.0000)
  33 Pd     2.789678    6.566035   17.027235    ( 0.0000,  0.0000,  0.0000)
  34 Pt     5.653642    6.422466   16.906903    ( 0.0000,  0.0000,  0.0000)
  35 Pd     8.427440    6.500612   17.069264    ( 0.0000,  0.0000,  0.0000)
  36 Pt     0.077573   -0.041873   19.273906    ( 0.0000,  0.0000,  0.0000)
  37 Pt     2.809756    0.087200   19.253852    ( 0.0000,  0.0000,  0.0000)
  38 Ag     5.711309    0.010637   19.489679    ( 0.0000,  0.0000,  0.0000)
  39 Pt     1.553754    2.469305   19.392197    ( 0.0000,  0.0000,  0.0000)
  40 Ru     4.243281    2.604157   19.138583    ( 0.0000,  0.0000,  0.0000)
  41 Pt     7.120254    2.492986   19.217852    ( 0.0000,  0.0000,  0.0000)
  42 Ir     3.044876    4.828215   19.146447    ( 0.0000,  0.0000,  0.0000)
  43 Pt     5.722598    4.862559   19.160420    ( 0.0000,  0.0000,  0.0000)
  44 Ag     8.573024    4.898537   19.530667    ( 0.0000,  0.0000,  0.0000)
  45 O      4.241948    2.602693   21.507849    ( 0.0000,  0.0000,  0.0000)
  46 H      4.886909    3.247474   21.922004    ( 0.0000,  0.0000,  0.0000)

Unit cell:
           periodic     x           y           z      points  spacing
  1. axis:    yes    8.509606    0.000000    0.000000    40     0.1842
  2. axis:    yes    4.254803    7.369535    0.000000    40     0.1842
  3. axis:    no     0.000000    0.000000   29.270571   140     0.2091

  Lengths:   8.509606   8.509606  29.270571
  Angles:   90.000000  90.000000  60.000000

Effective grid spacing dv^(1/3) = 0.2016

     iter     time        total  log10-change:
                         energy  eigst   dens
iter:   1 14:47:58  -195.076875  -4.19
iter:   2 14:49:06  -207.046634  -3.35  -2.33
iter:   3 14:50:14  -195.469152  -3.40  -1.72
iter:   4 14:51:24  -194.522011  -4.46  -2.31
iter:   5 14:52:33  -194.455210  -5.20  -2.96
iter:   6 14:53:41  -194.458097c -6.06  -3.34
iter:   7 14:54:50  -194.451727c -6.31  -3.42
iter:   8 14:55:57  -194.450605c -6.56  -3.55
iter:   9 14:57:05  -194.448522c -6.08  -3.59
iter:  10 14:58:13  -194.450280c -6.53  -3.26
iter:  11 14:59:21  -194.445161c -6.39  -3.62
iter:  12 15:00:29  -194.447889c -6.98  -3.69
iter:  13 15:01:36  -194.446011c -7.49c -3.89
iter:  14 15:02:44  -194.446483c -6.90  -4.01c
iter:  15 15:03:53  -194.446768c -7.61c -4.27c

Converged after 15 iterations.

Dipole moment: (-5.697137, 7.423094, -0.498786) |e|*Ang

Energy contributions relative to reference atoms: (reference = -12373371.003080)

Kinetic:       -234.124099
Potential:     +107.112947
External:        +0.000000
XC:             -59.519282
Entropy (-ST):   -1.882841
Local:           -6.974913
--------------------------
Free energy:   -195.388189
Extrapolated:  -194.446768

Showing only first 2 kpts
 Kpt  Band  Eigenvalues  Occupancy
  0   367      0.68761    0.95459
  0   368      0.72828    0.75624
  0   369      0.75110    0.65224
  0   370      0.76286    0.60164

  1   367      0.55519    1.54878
  1   368      0.58934    1.41855
  1   369      0.61763    1.29538
  1   370      0.64756    1.15357


Fermi level: 0.67852

No gap

Forces in eV/Ang:
  0 Pd    0.70129    0.05525    0.10067
  1 Pt   -0.60232   -0.15552    0.55095
  2 Ag   -0.09812   -0.07978   -0.56339
  3 Pd   -0.04990   -0.32984    0.20183
  4 Ag   -0.00396    0.03381   -0.57634
  5 Ag    0.14217    0.17098   -0.49995
  6 Ag    0.04225   -0.00306   -0.48263
  7 Pd    0.23694    0.34378    0.05881
  8 Pd   -0.13439    0.12963    0.19045
  9 Pd    0.00317    0.09356   -0.03057
 10 Pd    0.00002   -0.04388   -0.10648
 11 Pt   -0.03834   -0.15111    0.15129
 12 Ir    0.68442    0.15458   -0.01126
 13 Pt   -0.66414   -0.18928    0.25771
 14 Ag    0.10785   -0.01290    0.09653
 15 Pt   -0.29133    0.01959    0.15870
 16 Pd   -0.06540    0.26338    0.15899
 17 Pd    0.13635   -0.00335    0.17666
 18 Ag   -0.03158   -0.01462   -0.02335
 19 Ag   -0.00037   -0.01323    0.00784
 20 Pt   -0.01739   -0.02530    0.00090
 21 Ru    0.03586    0.00774    0.00846
 22 Pd   -0.01965    0.00284    0.05979
 23 Pt   -0.02009   -0.00120   -0.01019
 24 Pt    0.01596    0.05758   -0.04703
 25 Pt   -0.02124   -0.02503    0.00515
 26 Ag   -0.02743   -0.01831    0.00327
 27 Ag   -0.02409   -0.02247   -0.02045
 28 Ag    0.05178    0.02483    0.09088
 29 Pt   -0.14072    0.07058    0.17550
 30 Ag   -0.01736   -0.02735   -0.01207
 31 Pd   -0.03816   -0.06801    0.09094
 32 Ru   -0.02713   -0.04316   -0.02288
 33 Pd   -0.00622   -0.06842   -0.00499
 34 Pt   -0.01585   -0.01794   -0.00008
 35 Pd    0.00128   -0.00254   -0.01103
 36 Pt    0.01846   -0.02719   -0.01402
 37 Pt   -0.07722   -0.13329   -0.04657
 38 Ag    0.04170   -0.04181    0.00585
 39 Pt   -0.10639   -0.02818   -0.08057
 40 Ru    0.18449    0.18526    2.30572
 41 Pt    0.18217    0.03343   -0.10030
 42 Ir    0.00738    0.02901   -0.06849
 43 Pt    0.06139    0.09527   -0.08667
 44 Ag    0.00839    0.03015    0.02418
 45 O     0.10472    0.01148   -1.57848
 46 H    -0.20436   -0.27179   -0.62654

System changes: positions 

Initializing position-dependent things.

Density initialized from wave functions
                                             
                                             
                                             
                                             
                                             
                                             
                     H                       
                   O                         
                  Ir     Pt     Ag           
             Pt    Ru                        
                  Pd     PPt    Pd           
       Pt    APt    PAg    Ru                
                                             
        Ag     Ag    PPt    Pt     Ag        
                                             
                Ru     Pd     Pt             
           Ag    PAg    PPt    Pd            
                                             
            Ir     Pt    PAg    Pd           
       Pd     Pd     Pt                      
             Pd     Ag     Ag                
        Pd     Pt     Ag                     
                                             
                                             
                                             
                                             
                                             

Positions:
   0 Pd     0.000000    1.637674   10.000000    ( 0.0000,  0.0000,  0.0000)
   1 Pt     2.836535    1.637674   10.000000    ( 0.0000,  0.0000,  0.0000)
   2 Ag     5.673071    1.637674   10.000000    ( 0.0000,  0.0000,  0.0000)
   3 Pd     1.418268    4.094186   10.000000    ( 0.0000,  0.0000,  0.0000)
   4 Ag     4.254803    4.094186   10.000000    ( 0.0000,  0.0000,  0.0000)
   5 Ag     7.091338    4.094186   10.000000    ( 0.0000,  0.0000,  0.0000)
   6 Ag     2.836535    6.550698   10.000000    ( 0.0000,  0.0000,  0.0000)
   7 Pd     5.673071    6.550698   10.000000    ( 0.0000,  0.0000,  0.0000)
   8 Pd     8.509606    6.550698   10.000000    ( 0.0000,  0.0000,  0.0000)
   9 Pd     0.000000    0.000000   12.317643    ( 0.0000,  0.0000,  0.0000)
  10 Pd     2.836535    0.000000   12.317643    ( 0.0000,  0.0000,  0.0000)
  11 Pt     5.673071    0.000000   12.317643    ( 0.0000,  0.0000,  0.0000)
  12 Ir     1.418268    2.456512   12.317643    ( 0.0000,  0.0000,  0.0000)
  13 Pt     4.254803    2.456512   12.317643    ( 0.0000,  0.0000,  0.0000)
  14 Ag     7.091338    2.456512   12.317643    ( 0.0000,  0.0000,  0.0000)
  15 Pt     2.836535    4.913023   12.317643    ( 0.0000,  0.0000,  0.0000)
  16 Pd     5.673071    4.913023   12.317643    ( 0.0000,  0.0000,  0.0000)
  17 Pd     8.509606    4.913023   12.317643    ( 0.0000,  0.0000,  0.0000)
  18 Ag     1.382974    0.762118   14.609568    ( 0.0000,  0.0000,  0.0000)
  19 Ag     4.217345    0.785635   14.657093    ( 0.0000,  0.0000,  0.0000)
  20 Pt     7.061440    0.794863   14.661617    ( 0.0000,  0.0000,  0.0000)
  21 Ru     2.754323    3.305775   14.388605    ( 0.0000,  0.0000,  0.0000)
  22 Pd     5.600787    3.219097   14.646113    ( 0.0000,  0.0000,  0.0000)
  23 Pt     8.520406    3.252855   14.663509    ( 0.0000,  0.0000,  0.0000)
  24 Pt     4.171659    5.659187   14.610708    ( 0.0000,  0.0000,  0.0000)
  25 Pt     7.043463    5.603810   14.669374    ( 0.0000,  0.0000,  0.0000)
  26 Ag     9.872022    5.743056   14.696670    ( 0.0000,  0.0000,  0.0000)
  27 Ag     0.005647    1.605045   16.988990    ( 0.0000,  0.0000,  0.0000)
  28 Ag     2.796872    1.620994   16.889604    ( 0.0000,  0.0000,  0.0000)
  29 Pt     5.653721    1.645268   17.026920    ( 0.0000,  0.0000,  0.0000)
  30 Ag     1.334705    4.087408   17.015291    ( 0.0000,  0.0000,  0.0000)
  31 Pd     4.153225    4.028371   16.820669    ( 0.0000,  0.0000,  0.0000)
  32 Ru     6.948446    4.056460   16.867065    ( 0.0000,  0.0000,  0.0000)
  33 Pd     2.789299    6.560210   17.026869    ( 0.0000,  0.0000,  0.0000)
  34 Pt     5.652397    6.420829   16.907077    ( 0.0000,  0.0000,  0.0000)
  35 Pd     8.427263    6.500395   17.068284    ( 0.0000,  0.0000,  0.0000)
  36 Pt     0.079441   -0.044269   19.272605    ( 0.0000,  0.0000,  0.0000)
  37 Pt     2.802830    0.075817   19.249789    ( 0.0000,  0.0000,  0.0000)
  38 Ag     5.714867    0.007325   19.490280    ( 0.0000,  0.0000,  0.0000)
  39 Pt     1.544770    2.466869   19.385457    ( 0.0000,  0.0000,  0.0000)
  40 Ru     4.259302    2.619917   19.337316    ( 0.0000,  0.0000,  0.0000)
  41 Pt     7.135810    2.495924   19.209245    ( 0.0000,  0.0000,  0.0000)
  42 Ir     3.045812    4.830581   19.140850    ( 0.0000,  0.0000,  0.0000)
  43 Pt     5.727658    4.870664   19.153119    ( 0.0000,  0.0000,  0.0000)
  44 Ag     8.573587    4.900944   19.532663    ( 0.0000,  0.0000,  0.0000)
  45 O      4.251044    2.604160   21.372897    ( 0.0000,  0.0000,  0.0000)
  46 H      4.869244    3.224082   21.868728    ( 0.0000,  0.0000,  0.0000)

Unit cell:
           periodic     x           y           z      points  spacing
  1. axis:    yes    8.509606    0.000000    0.000000    40     0.1842
  2. axis:    yes    4.254803    7.369535    0.000000    40     0.1842
  3. axis:    no     0.000000    0.000000   29.270571   140     0.2091

  Lengths:   8.509606   8.509606  29.270571
  Angles:   90.000000  90.000000  60.000000

Effective grid spacing dv^(1/3) = 0.2016

     iter     time        total  log10-change:
                         energy  eigst   dens
iter:   1 15:05:25  -199.453082  -2.79
iter:   2 15:06:34  -224.294265  -2.68  -1.98
iter:   3 15:07:42  -211.116388  -2.61  -1.57
iter:   4 15:08:50  -196.478773  -3.44  -1.68
iter:   5 15:09:58  -195.439334  -4.22  -2.23
iter:   6 15:11:07  -195.214330  -4.72  -2.54
iter:   7 15:12:15  -195.145339c -4.92  -2.72
iter:   8 15:13:23  -195.102825c -4.95  -2.84
iter:   9 15:14:30  -195.284706c -4.84  -2.99
iter:  10 15:15:37  -195.082452c -5.02  -2.49
iter:  11 15:16:45  -195.066422c -5.19  -3.10
iter:  12 15:17:52  -195.066397c -5.80  -3.17
iter:  13 15:18:59  -195.063766c -6.19  -3.30
iter:  14 15:20:06  -195.063240c -6.59  -3.44
iter:  15 15:21:12  -195.064766c -6.10  -3.52
iter:  16 15:22:19  -195.072936c -6.21  -3.21
iter:  17 15:23:26  -195.062350c -6.21  -3.35
iter:  18 15:24:33  -195.067190c -6.76  -3.64
iter:  19 15:25:41  -195.064014c -6.96  -3.65
iter:  20 15:26:49  -195.062834c -7.17  -3.86
iter:  21 15:27:57  -195.063087c -7.06  -3.89
iter:  22 15:29:05  -195.064548c -7.41c -3.97
iter:  23 15:30:13  -195.062498c -7.10  -3.85
iter:  24 15:31:20  -195.063642c -7.69c -4.08c

Converged after 24 iterations.

Dipole moment: (-5.325604, 7.893443, -0.254525) |e|*Ang

Energy contributions relative to reference atoms: (reference = -12373371.003080)

Kinetic:       -233.083546
Potential:     +106.024863
External:        +0.000000
XC:             -60.074018
Entropy (-ST):   -1.886322
Local:           -6.987781
--------------------------
Free energy:   -196.006803
Extrapolated:  -195.063642

Showing only first 2 kpts
 Kpt  Band  Eigenvalues  Occupancy
  0   367      0.80303    0.95298
  0   368      0.84918    0.72917
  0   369      0.87164    0.62855
  0   370      0.88378    0.57745

  1   367      0.66647    1.56200
  1   368      0.70067    1.43397
  1   369      0.73061    1.30505
  1   370      0.75587    1.18656


Fermi level: 0.79362

No gap

Forces in eV/Ang:
  0 Pd    0.71344    0.05524    0.11389
  1 Pt   -0.61268   -0.16388    0.56729
  2 Ag   -0.10022   -0.08169   -0.55036
  3 Pd   -0.05302   -0.33584    0.21779
  4 Ag   -0.00508    0.03534   -0.56550
  5 Ag    0.14756    0.17353   -0.48586
  6 Ag    0.04258   -0.00409   -0.46816
  7 Pd    0.23616    0.35623    0.07376
  8 Pd   -0.13447    0.13141    0.20359
  9 Pd   -0.00120    0.09920   -0.02804
 10 Pd    0.00559   -0.04727   -0.09827
 11 Pt   -0.04715   -0.15537    0.15937
 12 Ir    0.68585    0.15471   -0.00300
 13 Pt   -0.65529   -0.19521    0.27756
 14 Ag    0.10115   -0.01119    0.10718
 15 Pt   -0.29502    0.02143    0.15701
 16 Pd   -0.06184    0.25979    0.16584
 17 Pd    0.13208   -0.00002    0.17738
 18 Ag    0.00783    0.01293    0.01742
 19 Ag   -0.01209   -0.00061    0.03952
 20 Pt   -0.04953   -0.00266   -0.00482
 21 Ru    0.02819    0.00142    0.03838
 22 Pd   -0.04080   -0.01345    0.06700
 23 Pt   -0.00294   -0.01325   -0.00764
 24 Pt   -0.00633    0.01342   -0.00507
 25 Pt   -0.00866    0.00236   -0.00274
 26 Ag   -0.01245   -0.01391    0.00534
 27 Ag   -0.00875   -0.06294   -0.07490
 28 Ag    0.09211    0.04539    0.21170
 29 Pt   -0.04525    0.05490    0.26730
 30 Ag   -0.02967   -0.01694   -0.01086
 31 Pd    0.02782   -0.07097    0.07367
 32 Ru   -0.03973   -0.07204   -0.04928
 33 Pd   -0.00200   -0.04830   -0.02587
 34 Pt   -0.01416    0.01831   -0.06305
 35 Pd    0.00032   -0.01156   -0.01280
 36 Pt   -0.01666    0.00485   -0.06211
 37 Pt   -0.04179   -0.08560    0.00942
 38 Ag    0.06151   -0.04005   -0.06737
 39 Pt   -0.05982   -0.05645   -0.08456
 40 Ru   -0.09486    0.44675    1.15705
 41 Pt    0.11126    0.01124   -0.01394
 42 Ir    0.01354   -0.08944   -0.00072
 43 Pt    0.05639    0.06939    0.01234
 44 Ag    0.03057    0.03698   -0.01577
 45 O     0.20697   -0.12257   -0.40850
 46 H    -0.28538   -0.35573   -0.78333

System changes: positions 

Initializing position-dependent things.

Density initialized from wave functions
                                             
                                             
                                             
                                             
                                             
                                             
                     H                       
                   O                         
                  Ir     Pt     Ag           
             Pt   PRu           Pd           
                         PPt                 
       Pt    APt    PAg    Ru                
                                             
        Ag     Ag    PPt    Pt     Ag        
                              Pt             
                Ru     Pd                    
           Ag    PAg    PPt    Pd            
                                             
            Ir     Pt    PAg    Pd           
       Pd     Pd     Pt                      
             Pd     Ag     Ag                
        Pd     Pt     Ag                     
                                             
                                             
                                             
                                             
                                             

Positions:
   0 Pd     0.000000    1.637674   10.000000    ( 0.0000,  0.0000,  0.0000)
   1 Pt     2.836535    1.637674   10.000000    ( 0.0000,  0.0000,  0.0000)
   2 Ag     5.673071    1.637674   10.000000    ( 0.0000,  0.0000,  0.0000)
   3 Pd     1.418268    4.094186   10.000000    ( 0.0000,  0.0000,  0.0000)
   4 Ag     4.254803    4.094186   10.000000    ( 0.0000,  0.0000,  0.0000)
   5 Ag     7.091338    4.094186   10.000000    ( 0.0000,  0.0000,  0.0000)
   6 Ag     2.836535    6.550698   10.000000    ( 0.0000,  0.0000,  0.0000)
   7 Pd     5.673071    6.550698   10.000000    ( 0.0000,  0.0000,  0.0000)
   8 Pd     8.509606    6.550698   10.000000    ( 0.0000,  0.0000,  0.0000)
   9 Pd     0.000000    0.000000   12.317643    ( 0.0000,  0.0000,  0.0000)
  10 Pd     2.836535    0.000000   12.317643    ( 0.0000,  0.0000,  0.0000)
  11 Pt     5.673071    0.000000   12.317643    ( 0.0000,  0.0000,  0.0000)
  12 Ir     1.418268    2.456512   12.317643    ( 0.0000,  0.0000,  0.0000)
  13 Pt     4.254803    2.456512   12.317643    ( 0.0000,  0.0000,  0.0000)
  14 Ag     7.091338    2.456512   12.317643    ( 0.0000,  0.0000,  0.0000)
  15 Pt     2.836535    4.913023   12.317643    ( 0.0000,  0.0000,  0.0000)
  16 Pd     5.673071    4.913023   12.317643    ( 0.0000,  0.0000,  0.0000)
  17 Pd     8.509606    4.913023   12.317643    ( 0.0000,  0.0000,  0.0000)
  18 Ag     1.380753    0.761438   14.608275    ( 0.0000,  0.0000,  0.0000)
  19 Ag     4.217097    0.784701   14.658590    ( 0.0000,  0.0000,  0.0000)
  20 Pt     7.058967    0.792868   14.661412    ( 0.0000,  0.0000,  0.0000)
  21 Ru     2.757552    3.306418   14.389895    ( 0.0000,  0.0000,  0.0000)
  22 Pd     5.598360    3.218990   14.652296    ( 0.0000,  0.0000,  0.0000)
  23 Pt     8.518896    3.252430   14.662572    ( 0.0000,  0.0000,  0.0000)
  24 Pt     4.172646    5.663859   14.607029    ( 0.0000,  0.0000,  0.0000)
  25 Pt     7.041579    5.601922   14.669976    ( 0.0000,  0.0000,  0.0000)
  26 Ag     9.869796    5.741281   14.696883    ( 0.0000,  0.0000,  0.0000)
  27 Ag     0.003590    1.601836   16.985700    ( 0.0000,  0.0000,  0.0000)
  28 Ag     2.802686    1.623618   16.901478    ( 0.0000,  0.0000,  0.0000)
  29 Pt     5.642753    1.651734   17.046065    ( 0.0000,  0.0000,  0.0000)
  30 Ag     1.332556    4.084860   17.014134    ( 0.0000,  0.0000,  0.0000)
  31 Pd     4.151330    4.022081   16.828866    ( 0.0000,  0.0000,  0.0000)
  32 Ru     6.945496    4.051555   16.864018    ( 0.0000,  0.0000,  0.0000)
  33 Pd     2.788995    6.554041   17.025883    ( 0.0000,  0.0000,  0.0000)
  34 Pt     5.651021    6.419918   16.905577    ( 0.0000,  0.0000,  0.0000)
  35 Pd     8.426997    6.499897   17.067100    ( 0.0000,  0.0000,  0.0000)
  36 Pt     0.080672   -0.046167   19.269776    ( 0.0000,  0.0000,  0.0000)
  37 Pt     2.795767    0.063990   19.246623    ( 0.0000,  0.0000,  0.0000)
  38 Ag     5.719514    0.003583   19.488983    ( 0.0000,  0.0000,  0.0000)
  39 Pt     1.535692    2.463281   19.377589    ( 0.0000,  0.0000,  0.0000)
  40 Ru     4.270180    2.645243   19.535408    ( 0.0000,  0.0000,  0.0000)
  41 Pt     7.151817    2.498717   19.201672    ( 0.0000,  0.0000,  0.0000)
  42 Ir     3.047099    4.830058   19.136278    ( 0.0000,  0.0000,  0.0000)
  43 Pt     5.733334    4.879304   19.147417    ( 0.0000,  0.0000,  0.0000)
  44 Ag     8.574825    4.903888   19.533865    ( 0.0000,  0.0000,  0.0000)
  45 O      4.264353    2.602248   21.249180    ( 0.0000,  0.0000,  0.0000)
  46 H      4.846621    3.194777   21.803005    ( 0.0000,  0.0000,  0.0000)

Unit cell:
           periodic     x           y           z      points  spacing
  1. axis:    yes    8.509606    0.000000    0.000000    40     0.1842
  2. axis:    yes    4.254803    7.369535    0.000000    40     0.1842
  3. axis:    no     0.000000    0.000000   29.270571   140     0.2091

  Lengths:   8.509606   8.509606  29.270571
  Angles:   90.000000  90.000000  60.000000

Effective grid spacing dv^(1/3) = 0.2016

     iter     time        total  log10-change:
                         energy  eigst   dens
iter:   1 15:32:51  -199.418911  -2.70
iter:   2 15:33:58  -204.048310  -2.89  -2.05
iter:   3 15:35:04  -210.229838  -2.93  -1.82
iter:   4 15:36:11  -195.287415  -3.44  -1.67
iter:   5 15:37:18  -194.998923  -4.51  -2.50
iter:   6 15:38:26  -194.882515  -4.59  -2.57
iter:   7 15:39:33  -194.818813c -4.78  -2.67
iter:   8 15:40:39  -194.901419c -4.76  -2.62
iter:   9 15:41:46  -194.727703c -5.02  -2.63
iter:  10 15:42:53  -194.750174c -5.32  -2.96
iter:  11 15:44:01  -194.723996c -5.19  -2.74
iter:  12 15:45:09  -194.702924c -5.23  -2.98
iter:  13 15:46:17  -194.696201c -5.81  -3.20
iter:  14 15:47:25  -194.694169c -6.43  -3.44
iter:  15 15:48:33  -194.709547c -6.33  -3.41
iter:  16 15:49:39  -194.696318c -6.53  -3.24
iter:  17 15:50:48  -194.694691c -6.62  -3.61
iter:  18 15:51:57  -194.696398c -6.93  -3.67
iter:  19 15:53:04  -194.695237c -6.91  -3.63
iter:  20 15:54:11  -194.694555c -7.21  -3.74
iter:  21 15:55:18  -194.711856c -6.41  -3.62
iter:  22 15:56:25  -194.696054c -6.54  -3.24
iter:  23 15:57:31  -194.694938c -7.46c -3.88
iter:  24 15:58:38  -194.696083c -7.30  -3.80
iter:  25 15:59:46  -194.694927c -7.58c -3.99
iter:  26 16:00:53  -194.695035c -7.44c -3.95
iter:  27 16:02:00  -194.696878c -7.28  -4.03c
iter:  28 16:03:08  -194.695593c -7.84c -4.05c

Converged after 28 iterations.

Dipole moment: (-5.038590, 8.351000, 0.061708) |e|*Ang

Energy contributions relative to reference atoms: (reference = -12373371.003080)

Kinetic:       -217.575254
Potential:      +93.293795
External:        +0.000000
XC:             -62.301780
Entropy (-ST):   -1.878794
Local:           -7.172958
--------------------------
Free energy:   -195.634990
Extrapolated:  -194.695593

Showing only first 2 kpts
 Kpt  Band  Eigenvalues  Occupancy
  0   367      0.95243    0.94978
  0   368      1.00200    0.71042
  0   369      1.01899    0.63462
  0   370      1.05186    0.50143

  1   367      0.82478    1.52844
  1   368      0.83451    1.49248
  1   369      0.86535    1.36715
  1   370      0.90971    1.16189


Fermi level: 0.94238

No gap

Forces in eV/Ang:
  0 Pd    0.70193    0.05573    0.09933
  1 Pt   -0.60683   -0.15708    0.55133
  2 Ag   -0.09798   -0.08027   -0.56282
  3 Pd   -0.04946   -0.33277    0.20445
  4 Ag   -0.00274    0.03630   -0.57874
  5 Ag    0.14254    0.16933   -0.49374
  6 Ag    0.04302   -0.00333   -0.48264
  7 Pd    0.22321    0.35050    0.05970
  8 Pd   -0.12486    0.13302    0.18809
  9 Pd   -0.00694    0.10208   -0.02654
 10 Pd    0.01402   -0.04533   -0.09769
 11 Pt   -0.05694   -0.15823    0.15780
 12 Ir    0.69745    0.16512    0.01338
 13 Pt   -0.65146   -0.19627    0.29092
 14 Ag    0.09386   -0.00991    0.11076
 15 Pt   -0.30125    0.01371    0.15519
 16 Pd   -0.06229    0.25183    0.16463
 17 Pd    0.13197    0.00129    0.17393
 18 Ag    0.03957    0.04099    0.03370
 19 Ag   -0.02214    0.01408    0.06369
 20 Pt   -0.05894    0.01432   -0.01392
 21 Ru    0.00601   -0.00773    0.03431
 22 Pd   -0.05520   -0.02991    0.05422
 23 Pt    0.01414   -0.02461   -0.03068
 24 Pt   -0.01699   -0.02819    0.03162
 25 Pt   -0.00006    0.01832   -0.03060
 26 Ag    0.00382   -0.01102   -0.00647
 27 Ag   -0.01115   -0.09168   -0.13336
 28 Ag    0.08702    0.03234    0.21235
 29 Pt    0.06639    0.02120    0.17087
 30 Ag   -0.00645   -0.00625   -0.00803
 31 Pd    0.09281   -0.01015   -0.08038
 32 Ru   -0.05806   -0.08291   -0.09138
 33 Pd   -0.02271   -0.01426   -0.04850
 34 Pt   -0.03395    0.03480   -0.15254
 35 Pd    0.01604   -0.00630   -0.01327
 36 Pt   -0.06049    0.01987   -0.06116
 37 Pt    0.01220   -0.07753    0.07121
 38 Ag    0.04963   -0.04227   -0.13780
 39 Pt   -0.03225   -0.03070   -0.06695
 40 Ru   -0.46288    0.68629   -5.33262
 41 Pt    0.07707   -0.01292    0.08467
 42 Ir   -0.02420   -0.16806    0.00921
 43 Pt    0.02436    0.03441    0.10013
 44 Ag    0.08163    0.04921   -0.02168
 45 O     0.14681   -0.63253    5.72286
 46 H     0.09792    0.03218   -0.26220

System changes: positions 

Initializing position-dependent things.

Density initialized from wave functions
                                             
                                             
                                             
                                             
                                             
                                             
                     H                       
                   O                         
                  Ir     Pt     Ag           
             Pt   PRu           Pd           
                         PPt                 
       Pt    APt    PAg    Ru                
                                             
        Ag     Ag    PPt    Pt     Ag        
                                             
                Ru     Pd     Pt             
           Ag    PAg    PPt    Pd            
                                             
            Ir     Pt    PAg    Pd           
       Pd     Pd     Pt                      
             Pd     Ag     Ag                
        Pd     Pt     Ag                     
                                             
                                             
                                             
                                             
                                             

Positions:
   0 Pd     0.000000    1.637674   10.000000    ( 0.0000,  0.0000,  0.0000)
   1 Pt     2.836535    1.637674   10.000000    ( 0.0000,  0.0000,  0.0000)
   2 Ag     5.673071    1.637674   10.000000    ( 0.0000,  0.0000,  0.0000)
   3 Pd     1.418268    4.094186   10.000000    ( 0.0000,  0.0000,  0.0000)
   4 Ag     4.254803    4.094186   10.000000    ( 0.0000,  0.0000,  0.0000)
   5 Ag     7.091338    4.094186   10.000000    ( 0.0000,  0.0000,  0.0000)
   6 Ag     2.836535    6.550698   10.000000    ( 0.0000,  0.0000,  0.0000)
   7 Pd     5.673071    6.550698   10.000000    ( 0.0000,  0.0000,  0.0000)
   8 Pd     8.509606    6.550698   10.000000    ( 0.0000,  0.0000,  0.0000)
   9 Pd     0.000000    0.000000   12.317643    ( 0.0000,  0.0000,  0.0000)
  10 Pd     2.836535    0.000000   12.317643    ( 0.0000,  0.0000,  0.0000)
  11 Pt     5.673071    0.000000   12.317643    ( 0.0000,  0.0000,  0.0000)
  12 Ir     1.418268    2.456512   12.317643    ( 0.0000,  0.0000,  0.0000)
  13 Pt     4.254803    2.456512   12.317643    ( 0.0000,  0.0000,  0.0000)
  14 Ag     7.091338    2.456512   12.317643    ( 0.0000,  0.0000,  0.0000)
  15 Pt     2.836535    4.913023   12.317643    ( 0.0000,  0.0000,  0.0000)
  16 Pd     5.673071    4.913023   12.317643    ( 0.0000,  0.0000,  0.0000)
  17 Pd     8.509606    4.913023   12.317643    ( 0.0000,  0.0000,  0.0000)
  18 Ag     1.382676    0.762232   14.609569    ( 0.0000,  0.0000,  0.0000)
  19 Ag     4.217114    0.785473   14.658002    ( 0.0000,  0.0000,  0.0000)
  20 Pt     7.060221    0.794436   14.661462    ( 0.0000,  0.0000,  0.0000)
  21 Ru     2.755321    3.305913   14.389349    ( 0.0000,  0.0000,  0.0000)
  22 Pd     5.599683    3.218852   14.648326    ( 0.0000,  0.0000,  0.0000)
  23 Pt     8.520094    3.252554   14.663146    ( 0.0000,  0.0000,  0.0000)
  24 Pt     4.171751    5.660273   14.609936    ( 0.0000,  0.0000,  0.0000)
  25 Pt     7.042950    5.603465   14.669436    ( 0.0000,  0.0000,  0.0000)
  26 Ag     9.871435    5.742484   14.696734    ( 0.0000,  0.0000,  0.0000)
  27 Ag     0.005073    1.603433   16.987131    ( 0.0000,  0.0000,  0.0000)
  28 Ag     2.799309    1.622088   16.895003    ( 0.0000,  0.0000,  0.0000)
  29 Pt     5.651130    1.647293   17.034326    ( 0.0000,  0.0000,  0.0000)
  30 Ag     1.333884    4.086645   17.014904    ( 0.0000,  0.0000,  0.0000)
  31 Pd     4.153399    4.026292   16.822973    ( 0.0000,  0.0000,  0.0000)
  32 Ru     6.947235    4.054416   16.865616    ( 0.0000,  0.0000,  0.0000)
  33 Pd     2.789183    6.558335   17.026252    ( 0.0000,  0.0000,  0.0000)
  34 Pt     5.651881    6.420919   16.905680    ( 0.0000,  0.0000,  0.0000)
  35 Pd     8.427197    6.500141   17.067848    ( 0.0000,  0.0000,  0.0000)
  36 Pt     0.079406   -0.044572   19.271123    ( 0.0000,  0.0000,  0.0000)
  37 Pt     2.800845    0.072168   19.249405    ( 0.0000,  0.0000,  0.0000)
  38 Ag     5.716671    0.006025   19.488898    ( 0.0000,  0.0000,  0.0000)
  39 Pt     1.542127    2.465387   19.382699    ( 0.0000,  0.0000,  0.0000)
  40 Ru     4.259334    2.632092   19.378485    ( 0.0000,  0.0000,  0.0000)
  41 Pt     7.140624    2.496618   19.207718    ( 0.0000,  0.0000,  0.0000)
  42 Ir     3.046232    4.828988   19.139962    ( 0.0000,  0.0000,  0.0000)
  43 Pt     5.729517    4.873345   19.152351    ( 0.0000,  0.0000,  0.0000)
  44 Ag     8.574378    4.902078   19.532663    ( 0.0000,  0.0000,  0.0000)
  45 O      4.256606    2.600813   21.357164    ( 0.0000,  0.0000,  0.0000)
  46 H      4.861459    3.213933   21.845391    ( 0.0000,  0.0000,  0.0000)

Unit cell:
           periodic     x           y           z      points  spacing
  1. axis:    yes    8.509606    0.000000    0.000000    40     0.1842
  2. axis:    yes    4.254803    7.369535    0.000000    40     0.1842
  3. axis:    no     0.000000    0.000000   29.270571   140     0.2091

  Lengths:   8.509606   8.509606  29.270571
  Angles:   90.000000  90.000000  60.000000

Effective grid spacing dv^(1/3) = 0.2016

     iter     time        total  log10-change:
                         energy  eigst   dens
iter:   1 16:04:41  -198.830957  -2.67
iter:   2 16:05:50  -206.217830  -3.12  -2.11
iter:   3 16:06:58  -202.048553  -3.17  -1.74
iter:   4 16:08:07  -196.451984  -3.60  -1.82
iter:   5 16:09:15  -195.781185  -4.13  -2.28
iter:   6 16:10:24  -195.320771  -4.33  -2.44
iter:   7 16:11:32  -195.224075  -5.06  -2.67
iter:   8 16:12:39  -195.212198c -5.39  -2.85
iter:   9 16:13:47  -195.193104c -4.99  -2.83
iter:  10 16:14:54  -195.341298c -4.97  -2.80
iter:  11 16:16:02  -195.144733c -5.01  -2.59
iter:  12 16:17:08  -195.150392c -5.74  -3.22
iter:  13 16:18:15  -195.149518c -6.25  -3.17
iter:  14 16:19:24  -195.142173c -5.97  -3.22
iter:  15 16:20:32  -195.144596c -6.31  -3.40
iter:  16 16:21:41  -195.147317c -6.51  -3.48
iter:  17 16:22:47  -195.140093c -6.62  -3.41
iter:  18 16:23:54  -195.141208c -7.22  -3.50
iter:  19 16:25:02  -195.142615c -6.85  -3.76
iter:  20 16:26:10  -195.139703c -6.94  -3.78
iter:  21 16:27:18  -195.141899c -7.04  -3.66
iter:  22 16:28:27  -195.141131c -7.38  -3.98
iter:  23 16:29:35  -195.140992c -7.61c -4.05c

Converged after 23 iterations.

Dipole moment: (-5.205585, 8.061906, -0.208667) |e|*Ang

Energy contributions relative to reference atoms: (reference = -12373371.003080)

Kinetic:       -232.455210
Potential:     +105.674043
External:        +0.000000
XC:             -60.388125
Entropy (-ST):   -1.887273
Local:           -7.028064
--------------------------
Free energy:   -196.084629
Extrapolated:  -195.140992

Showing only first 2 kpts
 Kpt  Band  Eigenvalues  Occupancy
  0   367      0.82011    0.95100
  0   368      0.86896    0.71484
  0   369      0.88978    0.62232
  0   370      0.90068    0.57656

  1   367      0.68408    1.55882
  1   368      0.71558    1.44112
  1   369      0.74068    1.33473
  1   370      0.77333    1.18281


Fermi level: 0.81031

No gap

Forces in eV/Ang:
  0 Pd    0.72586    0.05329    0.08775
  1 Pt   -0.62816   -0.17273    0.53572
  2 Ag   -0.10125   -0.08604   -0.56886
  3 Pd   -0.05825   -0.33573    0.18984
  4 Ag   -0.00615    0.03852   -0.58091
  5 Ag    0.15158    0.17915   -0.50346
  6 Ag    0.04204   -0.00437   -0.48759
  7 Pd    0.24056    0.36489    0.04551
  8 Pd   -0.13990    0.12920    0.17607
  9 Pd    0.00253    0.09788   -0.03403
 10 Pd    0.00832   -0.04480   -0.11368
 11 Pt   -0.05581   -0.15812    0.15787
 12 Ir    0.69351    0.15564   -0.00910
 13 Pt   -0.65959   -0.19672    0.28189
 14 Ag    0.09901   -0.00940    0.10805
 15 Pt   -0.29967    0.01480    0.15632
 16 Pd   -0.06167    0.26250    0.16477
 17 Pd    0.13441    0.00405    0.17037
 18 Ag    0.01234    0.02071    0.01289
 19 Ag   -0.01166    0.00502    0.04258
 20 Pt   -0.04684    0.00403   -0.00459
 21 Ru    0.01915   -0.00120    0.02853
 22 Pd   -0.03965   -0.01980    0.05268
 23 Pt   -0.00002   -0.01540   -0.02147
 24 Pt   -0.00909    0.00903   -0.01202
 25 Pt   -0.00458    0.00209   -0.02727
 26 Ag   -0.00871   -0.01170   -0.00822
 27 Ag   -0.01316   -0.06558   -0.10890
 28 Ag    0.12322    0.06247    0.22285
 29 Pt   -0.07736    0.06708    0.28224
 30 Ag    0.00017   -0.02598   -0.02771
 31 Pd    0.03657   -0.09389    0.05716
 32 Ru   -0.06994   -0.08776   -0.06128
 33 Pd   -0.01036   -0.03551   -0.05246
 34 Pt   -0.01706    0.01745   -0.10482
 35 Pd    0.00970    0.02099   -0.02563
 36 Pt   -0.03213    0.02043    0.03176
 37 Pt   -0.03202   -0.07012    0.04382
 38 Ag    0.06133   -0.06126   -0.07602
 39 Pt   -0.05386   -0.06430   -0.05639
 40 Ru   -0.17305    0.38718    0.67448
 41 Pt    0.12417    0.00482   -0.01437
 42 Ir   -0.01541   -0.07205   -0.02008
 43 Pt    0.06617    0.07663   -0.00410
 44 Ag    0.04632    0.04305    0.03683
 45 O    -0.10313   -0.47224   -0.44758
 46 H     0.13126    0.06783   -0.40381

System changes: positions 

Initializing position-dependent things.

Density initialized from wave functions
                                             
                                             
                                             
                                             
                                             
                                             
                     H                       
                   O                         
                  Ir     Pt     Ag           
             Pt   PRu           Pd           
                         PPt                 
       Pt    APt    PAg    Ru                
                                             
        Ag     Ag    PPt    Pt     Ag        
                                             
                Ru     Pd     Pt             
           Ag    PAg    PPt    Pd            
                                             
            Ir     Pt    PAg    Pd           
       Pd     Pd     Pt                      
             Pd     Ag     Ag                
        Pd     Pt     Ag                     
                                             
                                             
                                             
                                             
                                             

Positions:
   0 Pd     0.000000    1.637674   10.000000    ( 0.0000,  0.0000,  0.0000)
   1 Pt     2.836535    1.637674   10.000000    ( 0.0000,  0.0000,  0.0000)
   2 Ag     5.673071    1.637674   10.000000    ( 0.0000,  0.0000,  0.0000)
   3 Pd     1.418268    4.094186   10.000000    ( 0.0000,  0.0000,  0.0000)
   4 Ag     4.254803    4.094186   10.000000    ( 0.0000,  0.0000,  0.0000)
   5 Ag     7.091338    4.094186   10.000000    ( 0.0000,  0.0000,  0.0000)
   6 Ag     2.836535    6.550698   10.000000    ( 0.0000,  0.0000,  0.0000)
   7 Pd     5.673071    6.550698   10.000000    ( 0.0000,  0.0000,  0.0000)
   8 Pd     8.509606    6.550698   10.000000    ( 0.0000,  0.0000,  0.0000)
   9 Pd     0.000000    0.000000   12.317643    ( 0.0000,  0.0000,  0.0000)
  10 Pd     2.836535    0.000000   12.317643    ( 0.0000,  0.0000,  0.0000)
  11 Pt     5.673071    0.000000   12.317643    ( 0.0000,  0.0000,  0.0000)
  12 Ir     1.418268    2.456512   12.317643    ( 0.0000,  0.0000,  0.0000)
  13 Pt     4.254803    2.456512   12.317643    ( 0.0000,  0.0000,  0.0000)
  14 Ag     7.091338    2.456512   12.317643    ( 0.0000,  0.0000,  0.0000)
  15 Pt     2.836535    4.913023   12.317643    ( 0.0000,  0.0000,  0.0000)
  16 Pd     5.673071    4.913023   12.317643    ( 0.0000,  0.0000,  0.0000)
  17 Pd     8.509606    4.913023   12.317643    ( 0.0000,  0.0000,  0.0000)
  18 Ag     1.382598    0.762468   14.609595    ( 0.0000,  0.0000,  0.0000)
  19 Ag     4.216953    0.785468   14.658700    ( 0.0000,  0.0000,  0.0000)
  20 Pt     7.059383    0.794271   14.661333    ( 0.0000,  0.0000,  0.0000)
  21 Ru     2.755846    3.305966   14.389747    ( 0.0000,  0.0000,  0.0000)
  22 Pd     5.598925    3.218580   14.649651    ( 0.0000,  0.0000,  0.0000)
  23 Pt     8.519961    3.252302   14.662741    ( 0.0000,  0.0000,  0.0000)
  24 Pt     4.171729    5.660870   14.609402    ( 0.0000,  0.0000,  0.0000)
  25 Pt     7.042671    5.603273   14.669195    ( 0.0000,  0.0000,  0.0000)
  26 Ag     9.871133    5.742129   14.696591    ( 0.0000,  0.0000,  0.0000)
  27 Ag     0.004660    1.602249   16.985372    ( 0.0000,  0.0000,  0.0000)
  28 Ag     2.801374    1.623037   16.898985    ( 0.0000,  0.0000,  0.0000)
  29 Pt     5.649241    1.648757   17.039609    ( 0.0000,  0.0000,  0.0000)
  30 Ag     1.333666    4.086027   17.014435    ( 0.0000,  0.0000,  0.0000)
  31 Pd     4.153779    4.024659   16.824257    ( 0.0000,  0.0000,  0.0000)
  32 Ru     6.946028    4.052806   16.864437    ( 0.0000,  0.0000,  0.0000)
  33 Pd     2.789041    6.557293   17.025469    ( 0.0000,  0.0000,  0.0000)
  34 Pt     5.651528    6.421036   16.904119    ( 0.0000,  0.0000,  0.0000)
  35 Pd     8.427218    6.500362   17.067385    ( 0.0000,  0.0000,  0.0000)
  36 Pt     0.079161   -0.044513   19.271192    ( 0.0000,  0.0000,  0.0000)
  37 Pt     2.799665    0.070051   19.249693    ( 0.0000,  0.0000,  0.0000)
  38 Ag     5.717920    0.004939   19.487725    ( 0.0000,  0.0000,  0.0000)
  39 Pt     1.540567    2.464220   19.381230    ( 0.0000,  0.0000,  0.0000)
  40 Ru     4.257818    2.640011   19.398938    ( 0.0000,  0.0000,  0.0000)
  41 Pt     7.143826    2.496964   19.206875    ( 0.0000,  0.0000,  0.0000)
  42 Ir     3.046221    4.827859   19.139331    ( 0.0000,  0.0000,  0.0000)
  43 Pt     5.730843    4.875162   19.151868    ( 0.0000,  0.0000,  0.0000)
  44 Ag     8.575120    4.902895   19.533222    ( 0.0000,  0.0000,  0.0000)
  45 O      4.256669    2.594036   21.347456    ( 0.0000,  0.0000,  0.0000)
  46 H      4.861226    3.212210   21.834188    ( 0.0000,  0.0000,  0.0000)

Unit cell:
           periodic     x           y           z      points  spacing
  1. axis:    yes    8.509606    0.000000    0.000000    40     0.1842
  2. axis:    yes    4.254803    7.369535    0.000000    40     0.1842
  3. axis:    no     0.000000    0.000000   29.270571   140     0.2091

  Lengths:   8.509606   8.509606  29.270571
  Angles:   90.000000  90.000000  60.000000

Effective grid spacing dv^(1/3) = 0.2016

     iter     time        total  log10-change:
                         energy  eigst   dens
iter:   1 16:31:05  -200.874120  -3.74
iter:   2 16:32:12  -273.681011  -2.37  -1.87
iter:   3 16:33:19  -199.419409  -2.62  -1.34
iter:   4 16:34:26  -195.604962  -3.68  -1.99
iter:   5 16:35:34  -195.247290  -4.42  -2.47
iter:   6 16:36:41  -195.210620  -5.11  -2.91
iter:   7 16:37:47  -195.192117c -5.44  -3.10
iter:   8 16:38:54  -195.179895c -5.44  -3.24
iter:   9 16:40:00  -195.178956c -6.10  -3.16
iter:  10 16:41:07  -195.175394c -6.36  -3.50
iter:  11 16:42:13  -195.172307c -6.20  -3.56
iter:  12 16:43:20  -195.172798c -6.49  -3.60
iter:  13 16:44:28  -195.172939c -7.04  -3.85
iter:  14 16:45:37  -195.172550c -7.31  -3.92
iter:  15 16:46:46  -195.172302c -7.53c -4.06c

Converged after 15 iterations.

Dipole moment: (-5.106991, 8.174738, -0.184063) |e|*Ang

Energy contributions relative to reference atoms: (reference = -12373371.003080)

Kinetic:       -226.944714
Potential:     +100.498641
External:        +0.000000
XC:             -60.801322
Entropy (-ST):   -1.883838
Local:           -6.982988
--------------------------
Free energy:   -196.114221
Extrapolated:  -195.172302

Showing only first 2 kpts
 Kpt  Band  Eigenvalues  Occupancy
  0   367      0.83578    0.95153
  0   368      0.88549    0.71137
  0   369      0.90721    0.61523
  0   370      0.91893    0.56644

  1   367      0.70122    1.55412
  1   368      0.72970    1.44778
  1   369      0.75362    1.34723
  1   370      0.78966    1.18010


Fermi level: 0.82608

No gap

Forces in eV/Ang:
  0 Pd    0.70401    0.05541    0.11546
  1 Pt   -0.60425   -0.15101    0.56536
  2 Ag   -0.10009   -0.08125   -0.54915
  3 Pd   -0.04581   -0.33615    0.21426
  4 Ag   -0.00910    0.03151   -0.56558
  5 Ag    0.14421    0.16971   -0.47977
  6 Ag    0.04301   -0.00291   -0.47041
  7 Pd    0.22918    0.35063    0.07449
  8 Pd   -0.13394    0.13096    0.20386
  9 Pd    0.00184    0.10763   -0.03473
 10 Pd    0.00805   -0.03687   -0.11092
 11 Pt   -0.05522   -0.15430    0.15509
 12 Ir    0.69162    0.15822   -0.00018
 13 Pt   -0.66583   -0.19333    0.28004
 14 Ag    0.10218   -0.01029    0.10307
 15 Pt   -0.30099    0.00368    0.15838
 16 Pd   -0.06544    0.25511    0.16262
 17 Pd    0.13776   -0.00421    0.16899
 18 Ag    0.02384    0.02606    0.00265
 19 Ag   -0.01744    0.01001    0.04105
 20 Pt   -0.04883    0.00886   -0.01354
 21 Ru    0.01503   -0.00306    0.00864
 22 Pd   -0.03723   -0.02067    0.03831
 23 Pt    0.00304   -0.01038   -0.03563
 24 Pt   -0.01045   -0.00214   -0.00754
 25 Pt   -0.00388    0.00074   -0.02889
 26 Ag   -0.00646   -0.01671   -0.01501
 27 Ag   -0.01366   -0.06567   -0.09493
 28 Ag    0.10118    0.03835    0.20952
 29 Pt   -0.04339    0.05187    0.24468
 30 Ag   -0.01178   -0.01334   -0.01520
 31 Pd    0.05693   -0.04084    0.03096
 32 Ru   -0.06001   -0.06820   -0.04476
 33 Pd   -0.00424   -0.03455   -0.04297
 34 Pt   -0.01228    0.00458   -0.08374
 35 Pd    0.00134    0.00378   -0.01830
 36 Pt   -0.03655    0.01381   -0.03820
 37 Pt   -0.01749   -0.04481    0.01440
 38 Ag    0.05104   -0.03751   -0.11344
 39 Pt   -0.02486   -0.06074   -0.06986
 40 Ru   -0.19969    0.35339    0.29835
 41 Pt    0.09369    0.01529   -0.02498
 42 Ir   -0.00996   -0.06314   -0.03910
 43 Pt    0.03649    0.03929   -0.01767
 44 Ag    0.04570    0.03345   -0.01647
 45 O    -0.01373   -0.41566   -0.18488
 46 H     0.07273    0.00403   -0.45391

System changes: positions 

Initializing position-dependent things.

Density initialized from wave functions
                                             
                                             
                                             
                                             
                                             
                                             
                     H                       
                   O                         
                  Ir     Pt     Ag           
             Pt   PRu           Pd           
                         PPt                 
       Pt    APt    PAg    Ru                
                                             
        Ag     Ag    PPt    Pt     Ag        
                              Pt             
                Ru     Pd                    
           Ag    PAg    PPt    Pd            
                                             
            Ir     Pt    PAg    Pd           
       Pd     Pd     Pt                      
             Pd     Ag     Ag                
        Pd     Pt     Ag                     
                                             
                                             
                                             
                                             
                                             

Positions:
   0 Pd     0.000000    1.637674   10.000000    ( 0.0000,  0.0000,  0.0000)
   1 Pt     2.836535    1.637674   10.000000    ( 0.0000,  0.0000,  0.0000)
   2 Ag     5.673071    1.637674   10.000000    ( 0.0000,  0.0000,  0.0000)
   3 Pd     1.418268    4.094186   10.000000    ( 0.0000,  0.0000,  0.0000)
   4 Ag     4.254803    4.094186   10.000000    ( 0.0000,  0.0000,  0.0000)
   5 Ag     7.091338    4.094186   10.000000    ( 0.0000,  0.0000,  0.0000)
   6 Ag     2.836535    6.550698   10.000000    ( 0.0000,  0.0000,  0.0000)
   7 Pd     5.673071    6.550698   10.000000    ( 0.0000,  0.0000,  0.0000)
   8 Pd     8.509606    6.550698   10.000000    ( 0.0000,  0.0000,  0.0000)
   9 Pd     0.000000    0.000000   12.317643    ( 0.0000,  0.0000,  0.0000)
  10 Pd     2.836535    0.000000   12.317643    ( 0.0000,  0.0000,  0.0000)
  11 Pt     5.673071    0.000000   12.317643    ( 0.0000,  0.0000,  0.0000)
  12 Ir     1.418268    2.456512   12.317643    ( 0.0000,  0.0000,  0.0000)
  13 Pt     4.254803    2.456512   12.317643    ( 0.0000,  0.0000,  0.0000)
  14 Ag     7.091338    2.456512   12.317643    ( 0.0000,  0.0000,  0.0000)
  15 Pt     2.836535    4.913023   12.317643    ( 0.0000,  0.0000,  0.0000)
  16 Pd     5.673071    4.913023   12.317643    ( 0.0000,  0.0000,  0.0000)
  17 Pd     8.509606    4.913023   12.317643    ( 0.0000,  0.0000,  0.0000)
  18 Ag     1.383092    0.763636   14.609402    ( 0.0000,  0.0000,  0.0000)
  19 Ag     4.216143    0.785774   14.660995    ( 0.0000,  0.0000,  0.0000)
  20 Pt     7.056515    0.794135   14.660506    ( 0.0000,  0.0000,  0.0000)
  21 Ru     2.757212    3.306002   14.390203    ( 0.0000,  0.0000,  0.0000)
  22 Pd     5.596565    3.217563   14.653107    ( 0.0000,  0.0000,  0.0000)
  23 Pt     8.519784    3.251663   14.660774    ( 0.0000,  0.0000,  0.0000)
  24 Pt     4.171459    5.662003   14.608069    ( 0.0000,  0.0000,  0.0000)
  25 Pt     7.041924    5.602746   14.668159    ( 0.0000,  0.0000,  0.0000)
  26 Ag     9.870386    5.740833   14.695754    ( 0.0000,  0.0000,  0.0000)
  27 Ag     0.003400    1.598313   16.979959    ( 0.0000,  0.0000,  0.0000)
  28 Ag     2.807360    1.625208   16.911664    ( 0.0000,  0.0000,  0.0000)
  29 Pt     5.644994    1.652720   17.055270    ( 0.0000,  0.0000,  0.0000)
  30 Ag     1.332594    4.084625   17.013388    ( 0.0000,  0.0000,  0.0000)
  31 Pd     4.156253    4.021625   16.827069    ( 0.0000,  0.0000,  0.0000)
  32 Ru     6.942391    4.048349   16.861274    ( 0.0000,  0.0000,  0.0000)
  33 Pd     2.788854    6.554252   17.023126    ( 0.0000,  0.0000,  0.0000)
  34 Pt     5.650649    6.421012   16.899569    ( 0.0000,  0.0000,  0.0000)
  35 Pd     8.426958    6.500496   17.066143    ( 0.0000,  0.0000,  0.0000)
  36 Pt     0.077923   -0.044328   19.268779    ( 0.0000,  0.0000,  0.0000)
  37 Pt     2.796828    0.064940   19.249819    ( 0.0000,  0.0000,  0.0000)
  38 Ag     5.721508    0.002436   19.481973    ( 0.0000,  0.0000,  0.0000)
  39 Pt     1.537260    2.460457   19.376216    ( 0.0000,  0.0000,  0.0000)
  40 Ru     4.250066    2.664069   19.443851    ( 0.0000,  0.0000,  0.0000)
  41 Pt     7.152236    2.498362   19.204142    ( 0.0000,  0.0000,  0.0000)
  42 Ir     3.046281    4.824260   19.136741    ( 0.0000,  0.0000,  0.0000)
  43 Pt     5.733768    4.879146   19.150093    ( 0.0000,  0.0000,  0.0000)
  44 Ag     8.577608    4.905100   19.532806    ( 0.0000,  0.0000,  0.0000)
  45 O      4.258977    2.572313   21.327494    ( 0.0000,  0.0000,  0.0000)
  46 H      4.860345    3.206464   21.798391    ( 0.0000,  0.0000,  0.0000)

Unit cell:
           periodic     x           y           z      points  spacing
  1. axis:    yes    8.509606    0.000000    0.000000    40     0.1842
  2. axis:    yes    4.254803    7.369535    0.000000    40     0.1842
  3. axis:    no     0.000000    0.000000   29.270571   140     0.2091

  Lengths:   8.509606   8.509606  29.270571
  Angles:   90.000000  90.000000  60.000000

Effective grid spacing dv^(1/3) = 0.2016

     iter     time        total  log10-change:
                         energy  eigst   dens
iter:   1 16:48:18  -197.868769  -3.60
iter:   2 16:49:26  -238.880762  -2.69  -2.03
iter:   3 16:50:34  -197.388404  -2.87  -1.48
iter:   4 16:51:42  -195.419981  -3.94  -2.13
iter:   5 16:52:50  -195.284370  -4.73  -2.69
iter:   6 16:53:58  -195.259364c -5.37  -2.96
iter:   7 16:55:06  -195.234666c -5.62  -3.06
iter:   8 16:56:15  -195.218595c -5.59  -3.17
iter:   9 16:57:23  -195.216130c -5.85  -3.41
iter:  10 16:58:32  -195.213134c -5.98  -3.41
iter:  11 16:59:39  -195.212660c -6.44  -3.59
iter:  12 17:00:47  -195.210565c -6.89  -3.83
iter:  13 17:01:54  -195.212510c -7.15  -3.62
iter:  14 17:03:02  -195.211611c -7.22  -3.93
iter:  15 17:04:10  -195.212093c -7.16  -4.05c
iter:  16 17:05:18  -195.211991c -7.61c -4.14c

Converged after 16 iterations.

Dipole moment: (-4.895726, 8.442894, -0.134354) |e|*Ang

Energy contributions relative to reference atoms: (reference = -12373371.003080)

Kinetic:       -226.938122
Potential:     +100.796771
External:        +0.000000
XC:             -61.135806
Entropy (-ST):   -1.875048
Local:           -6.997309
--------------------------
Free energy:   -196.149515
Extrapolated:  -195.211991

Showing only first 2 kpts
 Kpt  Band  Eigenvalues  Occupancy
  0   367      0.85643    0.95167
  0   368      0.90727    0.70633
  0   369      0.92813    0.61419
  0   370      0.94782    0.53371

  1   367      0.72546    1.54165
  1   368      0.74490    1.46937
  1   369      0.76909    1.36991
  1   370      0.81092    1.17728


Fermi level: 0.84676

No gap

Forces in eV/Ang:
  0 Pd    0.70774    0.05036    0.08098
  1 Pt   -0.61267   -0.16366    0.53087
  2 Ag   -0.09633   -0.08417   -0.57584
  3 Pd   -0.05384   -0.32908    0.18612
  4 Ag   -0.00341    0.04020   -0.58862
  5 Ag    0.14579    0.17484   -0.50830
  6 Ag    0.04308   -0.00278   -0.49477
  7 Pd    0.22816    0.35335    0.04403
  8 Pd   -0.13145    0.12660    0.17345
  9 Pd   -0.00238    0.10116   -0.03178
 10 Pd    0.01329   -0.04350   -0.10711
 11 Pt   -0.06106   -0.15910    0.14906
 12 Ir    0.69716    0.15797   -0.00401
 13 Pt   -0.65674   -0.19938    0.28451
 14 Ag    0.09172   -0.00748    0.10353
 15 Pt   -0.29983    0.01461    0.14732
 16 Pd   -0.06364    0.25616    0.16018
 17 Pd    0.13242    0.00477    0.15923
 18 Ag    0.03154    0.03160    0.03530
 19 Ag   -0.02114    0.01016    0.06529
 20 Pt   -0.04016    0.01365    0.01594
 21 Ru    0.00696   -0.00699    0.03468
 22 Pd   -0.03346   -0.02924    0.02085
 23 Pt    0.00067   -0.01268   -0.00330
 24 Pt   -0.01176   -0.00359    0.01441
 25 Pt    0.00315   -0.00115   -0.02675
 26 Ag   -0.00868   -0.00792   -0.00069
 27 Ag    0.00006   -0.05730   -0.09148
 28 Ag    0.04013    0.02022    0.14297
 29 Pt    0.01037    0.01270    0.18211
 30 Ag   -0.02490   -0.02005   -0.01428
 31 Pd    0.03282    0.01859   -0.04781
 32 Ru   -0.00503   -0.04836   -0.03458
 33 Pd   -0.00576   -0.01909   -0.03148
 34 Pt   -0.01522    0.02566   -0.06654
 35 Pd    0.00479   -0.02693   -0.00447
 36 Pt   -0.04157    0.01898   -0.04678
 37 Pt   -0.00422   -0.09270    0.06064
 38 Ag    0.02993   -0.02687   -0.07865
 39 Pt   -0.07104   -0.04111   -0.04408
 40 Ru   -0.23475    0.24468   -0.60602
 41 Pt    0.08316    0.02329    0.03574
 42 Ir   -0.05857    0.01349   -0.02296
 43 Pt    0.06368    0.05320    0.03067
 44 Ag    0.05129    0.03766    0.00027
 45 O     0.10001   -0.39924    0.70945
 46 H     0.06768   -0.01218   -0.33456

System changes: positions 

Initializing position-dependent things.

Density initialized from wave functions
                                             
                                             
                                             
                                             
                                             
                                             
                     H                       
                   O                         
                  Ir     Pt     Ag           
             Pt   PRu           Pd           
                         PPt                 
       Pt    APt    PAg    Ru                
                                             
        Ag     Ag    PPt    Pt     Ag        
                              Pt             
                Ru     Pd                    
           Ag    PAg    PPt    Pd            
                                             
            Ir     Pt    PAg    Pd           
       Pd     Pd     Pt                      
             Pd     Ag     Ag                
        Pd     Pt     Ag                     
                                             
                                             
                                             
                                             
                                             

Positions:
   0 Pd     0.000000    1.637674   10.000000    ( 0.0000,  0.0000,  0.0000)
   1 Pt     2.836535    1.637674   10.000000    ( 0.0000,  0.0000,  0.0000)
   2 Ag     5.673071    1.637674   10.000000    ( 0.0000,  0.0000,  0.0000)
   3 Pd     1.418268    4.094186   10.000000    ( 0.0000,  0.0000,  0.0000)
   4 Ag     4.254803    4.094186   10.000000    ( 0.0000,  0.0000,  0.0000)
   5 Ag     7.091338    4.094186   10.000000    ( 0.0000,  0.0000,  0.0000)
   6 Ag     2.836535    6.550698   10.000000    ( 0.0000,  0.0000,  0.0000)
   7 Pd     5.673071    6.550698   10.000000    ( 0.0000,  0.0000,  0.0000)
   8 Pd     8.509606    6.550698   10.000000    ( 0.0000,  0.0000,  0.0000)
   9 Pd     0.000000    0.000000   12.317643    ( 0.0000,  0.0000,  0.0000)
  10 Pd     2.836535    0.000000   12.317643    ( 0.0000,  0.0000,  0.0000)
  11 Pt     5.673071    0.000000   12.317643    ( 0.0000,  0.0000,  0.0000)
  12 Ir     1.418268    2.456512   12.317643    ( 0.0000,  0.0000,  0.0000)
  13 Pt     4.254803    2.456512   12.317643    ( 0.0000,  0.0000,  0.0000)
  14 Ag     7.091338    2.456512   12.317643    ( 0.0000,  0.0000,  0.0000)
  15 Pt     2.836535    4.913023   12.317643    ( 0.0000,  0.0000,  0.0000)
  16 Pd     5.673071    4.913023   12.317643    ( 0.0000,  0.0000,  0.0000)
  17 Pd     8.509606    4.913023   12.317643    ( 0.0000,  0.0000,  0.0000)
  18 Ag     1.383602    0.764295   14.609941    ( 0.0000,  0.0000,  0.0000)
  19 Ag     4.215762    0.785986   14.662262    ( 0.0000,  0.0000,  0.0000)
  20 Pt     7.055526    0.794323   14.660597    ( 0.0000,  0.0000,  0.0000)
  21 Ru     2.757461    3.305912   14.390767    ( 0.0000,  0.0000,  0.0000)
  22 Pd     5.595742    3.216984   14.653938    ( 0.0000,  0.0000,  0.0000)
  23 Pt     8.519798    3.251357   14.660469    ( 0.0000,  0.0000,  0.0000)
  24 Pt     4.171213    5.662108   14.608070    ( 0.0000,  0.0000,  0.0000)
  25 Pt     7.041864    5.602673   14.667641    ( 0.0000,  0.0000,  0.0000)
  26 Ag     9.870207    5.740550   14.695577    ( 0.0000,  0.0000,  0.0000)
  27 Ag     0.003221    1.596902   16.977727    ( 0.0000,  0.0000,  0.0000)
  28 Ag     2.808947    1.625897   16.915716    ( 0.0000,  0.0000,  0.0000)
  29 Pt     5.644540    1.653520   17.060302    ( 0.0000,  0.0000,  0.0000)
  30 Ag     1.332169    4.084062   17.012947    ( 0.0000,  0.0000,  0.0000)
  31 Pd     4.157151    4.021269   16.826827    ( 0.0000,  0.0000,  0.0000)
  32 Ru     6.941668    4.046901   16.860197    ( 0.0000,  0.0000,  0.0000)
  33 Pd     2.788768    6.553626   17.022222    ( 0.0000,  0.0000,  0.0000)
  34 Pt     5.650336    6.421446   16.897756    ( 0.0000,  0.0000,  0.0000)
  35 Pd     8.426947    6.500284   17.065822    ( 0.0000,  0.0000,  0.0000)
  36 Pt     0.077171   -0.043925   19.268184    ( 0.0000,  0.0000,  0.0000)
  37 Pt     2.796297    0.063007   19.250951    ( 0.0000,  0.0000,  0.0000)
  38 Ag     5.722520    0.001644   19.480066    ( 0.0000,  0.0000,  0.0000)
  39 Pt     1.535857    2.459226   19.375052    ( 0.0000,  0.0000,  0.0000)
  40 Ru     4.245203    2.671259   19.443180    ( 0.0000,  0.0000,  0.0000)
  41 Pt     7.154579    2.498813   19.204411    ( 0.0000,  0.0000,  0.0000)
  42 Ir     3.045502    4.823687   19.136288    ( 0.0000,  0.0000,  0.0000)
  43 Pt     5.735143    4.880546   19.150467    ( 0.0000,  0.0000,  0.0000)
  44 Ag     8.578698    4.905943   19.532988    ( 0.0000,  0.0000,  0.0000)
  45 O      4.259705    2.562526   21.332632    ( 0.0000,  0.0000,  0.0000)
  46 H      4.862212    3.206577   21.789466    ( 0.0000,  0.0000,  0.0000)

Unit cell:
           periodic     x           y           z      points  spacing
  1. axis:    yes    8.509606    0.000000    0.000000    40     0.1842
  2. axis:    yes    4.254803    7.369535    0.000000    40     0.1842
  3. axis:    no     0.000000    0.000000   29.270571   140     0.2091

  Lengths:   8.509606   8.509606  29.270571
  Angles:   90.000000  90.000000  60.000000

Effective grid spacing dv^(1/3) = 0.2016

     iter     time        total  log10-change:
                         energy  eigst   dens
iter:   1 17:06:51  -195.942339  -4.46
iter:   2 17:07:58  -211.220770  -3.24  -2.32
iter:   3 17:09:07  -195.525972  -3.47  -1.67
iter:   4 17:10:15  -195.262634  -4.81  -2.53
iter:   5 17:11:23  -195.235648c -5.49  -2.99
iter:   6 17:12:31  -195.232324c -6.05  -3.41
iter:   7 17:13:40  -195.231416c -6.45  -3.80
iter:   8 17:14:48  -195.230021c -6.66  -3.87
iter:   9 17:15:57  -195.233169c -6.97  -3.91
iter:  10 17:17:04  -195.230410c -7.24  -3.81
iter:  11 17:18:12  -195.230771c -7.45c -4.16c

Converged after 11 iterations.

Dipole moment: (-4.733312, 8.552147, -0.147380) |e|*Ang

Energy contributions relative to reference atoms: (reference = -12373371.003080)

Kinetic:       -226.537240
Potential:     +100.456667
External:        +0.000000
XC:             -61.170396
Entropy (-ST):   -1.870908
Local:           -7.044348
--------------------------
Free energy:   -196.166225
Extrapolated:  -195.230771

Showing only first 2 kpts
 Kpt  Band  Eigenvalues  Occupancy
  0   367      0.85413    0.95142
  0   368      0.90494    0.70625
  0   369      0.92589    0.61374
  0   370      0.94648    0.52980

  1   367      0.72283    1.54263
  1   368      0.74248    1.46968
  1   369      0.76608    1.37279
  1   370      0.80792    1.18047


Fermi level: 0.84441

No gap

Forces in eV/Ang:
  0 Pd    0.70941    0.05170    0.10533
  1 Pt   -0.60926   -0.16138    0.55409
  2 Ag   -0.09965   -0.08118   -0.55748
  3 Pd   -0.04955   -0.33418    0.20571
  4 Ag   -0.00542    0.03515   -0.57147
  5 Ag    0.14431    0.17124   -0.48966
  6 Ag    0.04307   -0.00373   -0.47751
  7 Pd    0.22969    0.35723    0.07026
  8 Pd   -0.13366    0.13060    0.19531
  9 Pd   -0.00354    0.10453   -0.02473
 10 Pd    0.01536   -0.03850   -0.09878
 11 Pt   -0.06342   -0.15431    0.15854
 12 Ir    0.69957    0.15950   -0.00007
 13 Pt   -0.65930   -0.20027    0.29321
 14 Ag    0.08988   -0.00749    0.10801
 15 Pt   -0.29934    0.00744    0.15688
 16 Pd   -0.06633    0.25139    0.16399
 17 Pd    0.13387    0.00108    0.16464
 18 Ag    0.03243    0.02639    0.02419
 19 Ag   -0.01939    0.00840    0.06376
 20 Pt   -0.03847    0.00951    0.00082
 21 Ru    0.01038   -0.00334    0.02557
 22 Pd   -0.02830   -0.02394    0.00888
 23 Pt   -0.00298   -0.00405   -0.01639
 24 Pt   -0.01062   -0.00228    0.00913
 25 Pt    0.00320   -0.00270   -0.02334
 26 Ag   -0.00895   -0.00616   -0.00397
 27 Ag   -0.00323   -0.04895   -0.07532
[...]
  20 Pt     7.035977    0.794750   14.658620    ( 0.0000,  0.0000,  0.0000)
  21 Ru     2.758106    3.306969   14.393501    ( 0.0000,  0.0000,  0.0000)
  22 Pd     5.582978    3.206118   14.663545    ( 0.0000,  0.0000,  0.0000)
  23 Pt     8.513634    3.248161   14.651445    ( 0.0000,  0.0000,  0.0000)
  24 Pt     4.164502    5.667425   14.602392    ( 0.0000,  0.0000,  0.0000)
  25 Pt     7.033950    5.595198   14.663079    ( 0.0000,  0.0000,  0.0000)
  26 Ag     9.858627    5.734993   14.692840    ( 0.0000,  0.0000,  0.0000)
  27 Ag    -0.020186    1.574711   16.942992    ( 0.0000,  0.0000,  0.0000)
  28 Ag     2.802251    1.618059   16.959545    ( 0.0000,  0.0000,  0.0000)
  29 Pt     5.616460    1.674610   17.137879    ( 0.0000,  0.0000,  0.0000)
  30 Ag     1.317370    4.062628   17.015799    ( 0.0000,  0.0000,  0.0000)
  31 Pd     4.140330    4.033718   16.822726    ( 0.0000,  0.0000,  0.0000)
  32 Ru     6.932334    4.035815   16.861670    ( 0.0000,  0.0000,  0.0000)
  33 Pd     2.762134    6.547434   17.006890    ( 0.0000,  0.0000,  0.0000)
  34 Pt     5.641551    6.411659   16.889075    ( 0.0000,  0.0000,  0.0000)
  35 Pd     8.413190    6.480451   17.069959    ( 0.0000,  0.0000,  0.0000)
  36 Pt     0.056241   -0.065828   19.240290    ( 0.0000,  0.0000,  0.0000)
  37 Pt     2.774610    0.027458   19.271898    ( 0.0000,  0.0000,  0.0000)
  38 Ag     5.722128    0.019534   19.471079    ( 0.0000,  0.0000,  0.0000)
  39 Pt     1.484508    2.415620   19.377013    ( 0.0000,  0.0000,  0.0000)
  40 Ru     4.139768    2.666561   19.451665    ( 0.0000,  0.0000,  0.0000)
  41 Pt     7.211166    2.523068   19.207777    ( 0.0000,  0.0000,  0.0000)
  42 Ir     3.026769    4.833959   19.143323    ( 0.0000,  0.0000,  0.0000)
  43 Pt     5.726734    4.846941   19.158869    ( 0.0000,  0.0000,  0.0000)
  44 Ag     8.597595    4.928751   19.549668    ( 0.0000,  0.0000,  0.0000)
  45 O      4.361446    2.407436   21.339786    ( 0.0000,  0.0000,  0.0000)
  46 H      4.961435    3.119978   21.683409    ( 0.0000,  0.0000,  0.0000)

Unit cell:
           periodic     x           y           z      points  spacing
  1. axis:    yes    8.509606    0.000000    0.000000    40     0.1842
  2. axis:    yes    4.254803    7.369535    0.000000    40     0.1842
  3. axis:    no     0.000000    0.000000   29.270571   140     0.2091

  Lengths:   8.509606   8.509606  29.270571
  Angles:   90.000000  90.000000  60.000000

Effective grid spacing dv^(1/3) = 0.2016

     iter     time        total  log10-change:
                         energy  eigst   dens
iter:   1 07:30:33  -195.922625  -2.95
iter:   2 07:31:33  -203.948558  -3.43  -2.38
iter:   3 07:32:32  -196.370802  -3.48  -1.80
iter:   4 07:33:31  -195.539025  -4.53  -2.27
iter:   5 07:34:31  -195.384559  -4.91  -2.66
iter:   6 07:35:30  -195.373044c -5.54  -2.93
iter:   7 07:36:30  -195.360063c -5.74  -3.10
iter:   8 07:37:29  -195.458731c -5.40  -3.05
iter:   9 07:38:28  -195.359287c -5.22  -2.72
iter:  10 07:39:28  -195.359916c -5.65  -3.06
iter:  11 07:40:27  -195.348487c -5.94  -3.22
iter:  12 07:41:26  -195.350997c -6.46  -3.29
iter:  13 07:42:25  -195.348967c -6.96  -3.60
iter:  14 07:43:24  -195.350584c -6.44  -3.66
iter:  15 07:44:23  -195.349347c -7.20  -3.77
iter:  16 07:45:21  -195.350292c -7.16  -3.83
iter:  17 07:46:20  -195.349791c -7.40c -3.88
iter:  18 07:47:20  -195.349829c -7.32  -3.97
iter:  19 07:48:19  -195.347505c -7.34  -4.08c
iter:  20 07:49:18  -195.349917c -7.34  -3.69
iter:  21 07:50:17  -195.349656c -8.04c -4.10c

Converged after 21 iterations.

Dipole moment: (-2.494351, 9.915453, -0.210442) |e|*Ang

Energy contributions relative to reference atoms: (reference = -12373371.003080)

Kinetic:       -227.147172
Potential:     +100.794664
External:        +0.000000
XC:             -61.068372
Entropy (-ST):   -1.851180
Local:           -7.003186
--------------------------
Free energy:   -196.275246
Extrapolated:  -195.349656

Showing only first 2 kpts
 Kpt  Band  Eigenvalues  Occupancy
  0   367      0.83408    0.92980
  0   368      0.88084    0.70490
  0   369      0.89946    0.62243
  0   370      0.93686    0.47426

  1   367      0.69135    1.56716
  1   368      0.71664    1.47528
  1   369      0.74831    1.34391
  1   370      0.78204    1.18763


Fermi level: 0.82001

No gap

Forces in eV/Ang:
  0 Pd    0.70679    0.05035    0.10246
  1 Pt   -0.60487   -0.15892    0.55649
  2 Ag   -0.09888   -0.08027   -0.55768
  3 Pd   -0.04884   -0.33462    0.21024
  4 Ag   -0.00506    0.03516   -0.57223
  5 Ag    0.14443    0.17043   -0.49034
  6 Ag    0.04383   -0.00408   -0.47835
  7 Pd    0.22592    0.35842    0.07110
  8 Pd   -0.13131    0.13017    0.19254
  9 Pd   -0.00581    0.12350   -0.00732
 10 Pd    0.04828   -0.02752   -0.05168
 11 Pt   -0.11188   -0.14452    0.19415
 12 Ir    0.70517    0.15101   -0.00204
 13 Pt   -0.66203   -0.23851    0.34445
 14 Ag    0.06743   -0.00459    0.10428
 15 Pt   -0.31291    0.00027    0.15364
 16 Pd   -0.07421    0.23554    0.16290
 17 Pd    0.12306    0.00845    0.14719
 18 Ag   -0.00212   -0.01221    0.00658
 19 Ag   -0.00311   -0.00441   -0.00043
 20 Pt   -0.00771   -0.00620    0.00457
 21 Ru   -0.00070   -0.00309    0.02320
 22 Pd   -0.00602    0.00006    0.01369
 23 Pt   -0.00914    0.00228    0.00793
 24 Pt   -0.00618   -0.00508    0.02707
 25 Pt   -0.00205    0.00545    0.02386
 26 Ag   -0.00131    0.00340    0.01214
 27 Ag   -0.01496   -0.01055    0.01431
 28 Ag   -0.00998   -0.01587   -0.04651
 29 Pt    0.00004   -0.01154   -0.02695
 30 Ag   -0.00380    0.02426   -0.00146
 31 Pd   -0.01937   -0.00825   -0.02938
 32 Ru   -0.01420    0.00316   -0.01042
 33 Pd   -0.02359   -0.01907    0.02651
 34 Pt    0.00458   -0.01329    0.00638
 35 Pd   -0.01036   -0.00308   -0.00651
 36 Pt   -0.00675   -0.03561   -0.00420
 37 Pt   -0.02267   -0.02928    0.00959
 38 Ag    0.00728   -0.03217    0.00811
 39 Pt   -0.00615    0.02386    0.02871
 40 Ru    0.01127   -0.01085    0.03218
 41 Pt   -0.02128   -0.02513   -0.01939
 42 Ir   -0.01792    0.01893   -0.01447
 43 Pt    0.01712    0.04935   -0.02611
 44 Ag    0.00392    0.00232   -0.00811
 45 O     0.07217    0.00602   -0.08368
 46 H    -0.01246   -0.07327   -0.00824

System changes: positions 

Initializing position-dependent things.

Density initialized from wave functions
                                             
                                             
                                             
                                             
                                             
                                             
                      H                      
                    O           Ag           
                  Ir     Pt                  
             Pt   PRu      Pt   Pd           
                         Pt                  
       Pt    APt    PAg    Ru                
                      Pt                     
        Ag     Ag    Pt     Pt     Ag        
                       Pd     Pt             
                Ru                           
           Ag    PAg    PPt    Pd            
                                             
            Ir     Pt     Ag    Pd           
       Pd     Pd     Pt                      
             Pd     Ag     Ag                
        Pd     Pt     Ag                     
                                             
                                             
                                             
                                             
                                             

Positions:
   0 Pd     0.000000    1.637674   10.000000    ( 0.0000,  0.0000,  0.0000)
   1 Pt     2.836535    1.637674   10.000000    ( 0.0000,  0.0000,  0.0000)
   2 Ag     5.673071    1.637674   10.000000    ( 0.0000,  0.0000,  0.0000)
   3 Pd     1.418268    4.094186   10.000000    ( 0.0000,  0.0000,  0.0000)
   4 Ag     4.254803    4.094186   10.000000    ( 0.0000,  0.0000,  0.0000)
   5 Ag     7.091338    4.094186   10.000000    ( 0.0000,  0.0000,  0.0000)
   6 Ag     2.836535    6.550698   10.000000    ( 0.0000,  0.0000,  0.0000)
   7 Pd     5.673071    6.550698   10.000000    ( 0.0000,  0.0000,  0.0000)
   8 Pd     8.509606    6.550698   10.000000    ( 0.0000,  0.0000,  0.0000)
   9 Pd     0.000000    0.000000   12.317643    ( 0.0000,  0.0000,  0.0000)
  10 Pd     2.836535    0.000000   12.317643    ( 0.0000,  0.0000,  0.0000)
  11 Pt     5.673071    0.000000   12.317643    ( 0.0000,  0.0000,  0.0000)
  12 Ir     1.418268    2.456512   12.317643    ( 0.0000,  0.0000,  0.0000)
  13 Pt     4.254803    2.456512   12.317643    ( 0.0000,  0.0000,  0.0000)
  14 Ag     7.091338    2.456512   12.317643    ( 0.0000,  0.0000,  0.0000)
  15 Pt     2.836535    4.913023   12.317643    ( 0.0000,  0.0000,  0.0000)
  16 Pd     5.673071    4.913023   12.317643    ( 0.0000,  0.0000,  0.0000)
  17 Pd     8.509606    4.913023   12.317643    ( 0.0000,  0.0000,  0.0000)
  18 Ag     1.390311    0.770116   14.613165    ( 0.0000,  0.0000,  0.0000)
  19 Ag     4.207649    0.786831   14.696070    ( 0.0000,  0.0000,  0.0000)
  20 Pt     7.036321    0.794794   14.658928    ( 0.0000,  0.0000,  0.0000)
  21 Ru     2.758328    3.307132   14.393856    ( 0.0000,  0.0000,  0.0000)
  22 Pd     5.583116    3.206074   14.663666    ( 0.0000,  0.0000,  0.0000)
  23 Pt     8.513601    3.248319   14.651459    ( 0.0000,  0.0000,  0.0000)
  24 Pt     4.164795    5.667519   14.602877    ( 0.0000,  0.0000,  0.0000)
  25 Pt     7.034259    5.595389   14.663098    ( 0.0000,  0.0000,  0.0000)
  26 Ag     9.858911    5.735487   14.692847    ( 0.0000,  0.0000,  0.0000)
  27 Ag    -0.019409    1.575351   16.943649    ( 0.0000,  0.0000,  0.0000)
  28 Ag     2.803098    1.618090   16.959294    ( 0.0000,  0.0000,  0.0000)
  29 Pt     5.617712    1.674409   17.137138    ( 0.0000,  0.0000,  0.0000)
  30 Ag     1.318687    4.063465   17.015191    ( 0.0000,  0.0000,  0.0000)
  31 Pd     4.141198    4.033735   16.822797    ( 0.0000,  0.0000,  0.0000)
  32 Ru     6.932860    4.036293   16.861300    ( 0.0000,  0.0000,  0.0000)
  33 Pd     2.762879    6.547476   17.007121    ( 0.0000,  0.0000,  0.0000)
  34 Pt     5.642488    6.412273   16.888964    ( 0.0000,  0.0000,  0.0000)
  35 Pd     8.413726    6.480658   17.069914    ( 0.0000,  0.0000,  0.0000)
  36 Pt     0.056522   -0.064570   19.240881    ( 0.0000,  0.0000,  0.0000)
  37 Pt     2.774469    0.026905   19.272805    ( 0.0000,  0.0000,  0.0000)
  38 Ag     5.722889    0.018177   19.470970    ( 0.0000,  0.0000,  0.0000)
  39 Pt     1.485255    2.416989   19.377899    ( 0.0000,  0.0000,  0.0000)
  40 Ru     4.140499    2.667127   19.450476    ( 0.0000,  0.0000,  0.0000)
  41 Pt     7.210839    2.523360   19.207865    ( 0.0000,  0.0000,  0.0000)
  42 Ir     3.027404    4.835023   19.143191    ( 0.0000,  0.0000,  0.0000)
  43 Pt     5.727313    4.849014   19.158476    ( 0.0000,  0.0000,  0.0000)
  44 Ag     8.598444    4.928676   19.549205    ( 0.0000,  0.0000,  0.0000)
  45 O      4.360979    2.406302   21.336866    ( 0.0000,  0.0000,  0.0000)
  46 H      4.954282    3.121613   21.686193    ( 0.0000,  0.0000,  0.0000)

Unit cell:
           periodic     x           y           z      points  spacing
  1. axis:    yes    8.509606    0.000000    0.000000    40     0.1842
  2. axis:    yes    4.254803    7.369535    0.000000    40     0.1842
  3. axis:    no     0.000000    0.000000   29.270571   140     0.2091

  Lengths:   8.509606   8.509606  29.270571
  Angles:   90.000000  90.000000  60.000000

Effective grid spacing dv^(1/3) = 0.2016

     iter     time        total  log10-change:
                         energy  eigst   dens
iter:   1 07:51:36  -195.398105  -5.19
iter:   2 07:52:35  -197.122440  -4.15  -2.78
iter:   3 07:53:34  -195.417444  -4.54  -2.13
iter:   4 07:54:33  -195.357253  -5.53  -2.98
iter:   5 07:55:32  -195.351508c -6.65  -3.54
iter:   6 07:56:31  -195.349082c -6.97  -3.95
iter:   7 07:57:30  -195.349751c -7.44c -4.27c

Converged after 7 iterations.

Dipole moment: (-2.414654, 9.959714, -0.205576) |e|*Ang

Energy contributions relative to reference atoms: (reference = -12373371.003080)

Kinetic:       -227.753947
Potential:     +101.385610
External:        +0.000000
XC:             -61.032815
Entropy (-ST):   -1.850989
Local:           -7.023105
--------------------------
Free energy:   -196.275245
Extrapolated:  -195.349751

Showing only first 2 kpts
 Kpt  Band  Eigenvalues  Occupancy
  0   367      0.83571    0.93054
  0   368      0.88235    0.70617
  0   369      0.90117    0.62274
  0   370      0.93847    0.47490

  1   367      0.69355    1.56572
  1   368      0.71842    1.47528
  1   369      0.75022    1.34335
  1   370      0.78381    1.18769


Fermi level: 0.82180

No gap

Forces in eV/Ang:
  0 Pd    0.70540    0.04958    0.10337
  1 Pt   -0.60360   -0.15921    0.55851
  2 Ag   -0.09778   -0.07937   -0.55861
  3 Pd   -0.04779   -0.33485    0.21010
  4 Ag   -0.00492    0.03577   -0.57294
  5 Ag    0.14367    0.16949   -0.49130
  6 Ag    0.04504   -0.00396   -0.48002
  7 Pd    0.22497    0.35795    0.07416
  8 Pd   -0.13268    0.12977    0.19330
  9 Pd   -0.00592    0.12315   -0.00285
 10 Pd    0.04518   -0.02326   -0.05249
 11 Pt   -0.10747   -0.14137    0.19730
 12 Ir    0.70918    0.15190    0.00561
 13 Pt   -0.66540   -0.23635    0.34941
 14 Ag    0.06748   -0.00752    0.10570
 15 Pt   -0.30925   -0.00223    0.16290
 16 Pd   -0.07911    0.23621    0.16670
 17 Pd    0.12579    0.00560    0.14803
 18 Ag   -0.01033   -0.00371    0.00038
 19 Ag   -0.00295   -0.00190   -0.01079
 20 Pt   -0.00090   -0.00640   -0.01119
 21 Ru   -0.00520   -0.00187    0.00370
 22 Pd   -0.01069    0.00615    0.00381
 23 Pt    0.00308   -0.00098    0.00877
 24 Pt   -0.00640   -0.00793    0.01080
 25 Pt   -0.00439   -0.00250    0.01045
 26 Ag   -0.00227   -0.00454    0.00162
 27 Ag   -0.00232   -0.01057    0.01213
 28 Ag   -0.01383   -0.01560   -0.01539
 29 Pt   -0.02657   -0.00140    0.00103
 30 Ag   -0.02155   -0.00559    0.00026
 31 Pd   -0.00633   -0.01636   -0.01029
 32 Ru   -0.01717   -0.01210    0.00015
 33 Pd   -0.01015   -0.00179    0.01083
 34 Pt   -0.01919   -0.00471    0.00966
 35 Pd   -0.01595    0.01660    0.00144
 36 Pt   -0.00477   -0.01819   -0.00098
 37 Pt    0.00406    0.02295    0.00320
 38 Ag   -0.01523   -0.00044    0.02425
 39 Pt   -0.00549    0.01200    0.00947
 40 Ru    0.00904   -0.03490   -0.00366
 41 Pt   -0.02062   -0.00874   -0.00822
 42 Ir   -0.00180   -0.01599   -0.00131
 43 Pt    0.00227   -0.00338   -0.03623
 44 Ag   -0.00173   -0.01237    0.00657
 45 O     0.00621   -0.02672   -0.03616
 46 H    -0.03185   -0.07469   -0.00979

Timing:                                      incl.     excl.
-------------------------------------------------------------------
Density initialized from wave functions:   198.614   198.611   0.3% |
 Symmetrize density:                         0.003     0.003   0.0% |
Forces:                                    965.393   965.393   1.5% ||
Hamiltonian:                               110.152     0.604   0.0% |
 Atomic:                                    12.708     7.415   0.0% |
  XC Correction:                             5.293     5.293   0.0% |
 Calculate atomic Hamiltonians:             76.990    76.990   0.1% |
 Communicate:                                3.576     3.576   0.0% |
 Initialize Hamiltonian:                     0.001     0.001   0.0% |
 Poisson:                                    0.302     0.302   0.0% |
 XC 3D grid:                                15.972    15.972   0.0% |
LCAO initialization:                       138.252     2.830   0.0% |
 LCAO eigensolver:                          14.946     0.001   0.0% |
  Blacs Orbital Layouts:                     0.354     0.000   0.0% |
   General diagonalize:                      0.347     0.347   0.0% |
   Redistribute coefs:                       0.004     0.004   0.0% |
   Send coefs to domains:                    0.003     0.003   0.0% |
  Calculate projections:                     0.004     0.004   0.0% |
  Distribute overlap matrix:                13.736     0.000   0.0% |
   Scalapack redistribute:                   0.011     0.011   0.0% |
   blocked summation:                       13.724    13.724   0.0% |
  Potential matrix:                          0.807     0.807   0.0% |
  SparseAtomicCorrection:                    0.004     0.004   0.0% |
  Sum over cells:                            0.040     0.040   0.0% |
 LCAO to grid:                             117.275   117.275   0.2% |
 Set positions (LCAO WFS):                   3.201     0.005   0.0% |
  Basic WFS set positions:                   0.002     0.002   0.0% |
  Basis functions set positions:             0.000     0.000   0.0% |
  P tci:                                     0.000     0.000   0.0% |
  ST tci:                                    0.289     0.289   0.0% |
  Scalapack redistribute:                    0.008     0.008   0.0% |
  blocked summation:                         2.787     2.787   0.0% |
  mktci:                                     0.110     0.110   0.0% |
PWDescriptor:                                0.586     0.586   0.0% |
Redistribute:                                0.109     0.109   0.0% |
SCF-cycle:                               62934.024   362.252   0.6% |
 Davidson:                               58212.163 13578.766  21.0% |-------|
  Apply H:                                5900.702  5785.134   8.9% |---|
   HMM T:                                  115.568   115.568   0.2% |
  Subspace diag:                          6753.130     0.201   0.0% |
   calc_h_matrix:                         4373.295  1301.244   2.0% ||
    Apply H:                              3072.051  3005.146   4.6% |-|
     HMM T:                                 66.905    66.905   0.1% |
   diagonalize:                            241.616   241.616   0.4% |
   rotate_psi:                            2138.018  2138.018   3.3% ||
  calc. matrices:                        22090.920 13452.343  20.8% |-------|
   Apply H:                               8638.577  8464.901  13.1% |----|
    HMM T:                                 173.675   173.675   0.3% |
  diagonalize:                            3310.266  3310.266   5.1% |-|
  rotate_psi:                             6578.379  6578.379  10.2% |---|
 Density:                                 2640.175     0.041   0.0% |
  Atomic density matrices:                  18.281    18.281   0.0% |
  Mix:                                    1107.412  1107.412   1.7% ||
  Multipole moments:                         1.703     1.703   0.0% |
  Pseudo density:                         1512.739  1512.703   2.3% ||
   Symmetrize density:                       0.036     0.036   0.0% |
 Hamiltonian:                             1426.754     7.753   0.0% |
  Atomic:                                  163.313    95.948   0.1% |
   XC Correction:                           67.364    67.364   0.1% |
  Calculate atomic Hamiltonians:          1004.987  1004.987   1.6% ||
  Communicate:                              48.299    48.299   0.1% |
  Poisson:                                   3.784     3.784   0.0% |
  XC 3D grid:                              198.618   198.618   0.3% |
 Orthonormalize:                           292.680     0.025   0.0% |
  calc_s_matrix:                            47.112    47.112   0.1% |
  inverse-cholesky:                         15.312    15.312   0.0% |
  projections:                             151.882   151.882   0.2% |
  rotate_psi_s:                             78.348    78.348   0.1% |
Set symmetry:                                0.002     0.002   0.0% |
Other:                                     316.775   316.775   0.5% |
-------------------------------------------------------------------
Total:                                             64663.907 100.0%

Memory usage: 873.11 MiB
Date: Sat Jun 15 07:57:46 2024
