
  ___ ___ ___ _ _ _  
 |   |   |_  | | | | 
 | | | | | . | | | | 
 |__ |  _|___|_____|  22.1.0
 |___|_|             

User:   clausen@node489.cluster
Date:   Thu Jun 13 20:19:02 2024
Arch:   x86_64
Pid:    10194
Python: 3.10.4
gpaw:   /groups/kemi/clausen/miniconda3/envs/gpaw22/lib/python3.10/site-packages/gpaw
_gpaw:  /groups/kemi/clausen/miniconda3/envs/gpaw22/lib/python3.10/site-packages/
        _gpaw.cpython-310-x86_64-linux-gnu.so
ase:    /groups/kemi/clausen/miniconda3/envs/gpaw22/lib/python3.10/site-packages/ase (version 3.22.1)
numpy:  /groups/kemi/clausen/miniconda3/envs/gpaw22/lib/python3.10/site-packages/numpy (version 1.23.1)
scipy:  /groups/kemi/clausen/miniconda3/envs/gpaw22/lib/python3.10/site-packages/scipy (version 1.8.1)
libxc:  5.2.3
units:  Angstrom and eV
cores: 24
OpenMP: True
OMP_NUM_THREADS: 1

Input parameters:
  eigensolver: {name: dav,
                niter: 3}
  kpts: [4 4 1]
  mixer: {backend: pulay,
          beta: 0.05,
          method: difference,
          nmaxold: 5,
          weight: 50.0}
  mode: {ecut: 400.0,
         name: pw}
  xc: RPBE

System changes: positions, numbers, cell, pbc, initial_charges, initial_magmoms 

Initialize ...

Pd-setup:
  name: Palladium
  id: 6da19bfba079f22767af9506641940b9
  Z: 46.0
  valence: 16
  core: 30
  charge: 0.0
  file: /groups/kemi/clausen/miniconda3/envs/gpaw22/share/gpaw/Pd.RPBE.gz
  compensation charges: gauss, rc=0.38, lmax=2
  cutoffs: 2.38(filt), 2.28(core),
  valence states:
                energy  radius
    5s(0.00)    -3.225   1.228
    4p(6.00)   -51.131   1.360
    5p(0.00)    -0.373   1.360
    4d(10.00)    -3.964   1.228
    *s          23.987   1.228
    *d          23.247   1.228

  Using partial waves for Pd as LCAO basis

Pt-setup:
  name: Platinum
  id: f04f522592575c47ad794f6b4a415b4b
  Z: 78.0
  valence: 16
  core: 62
  charge: 0.0
  file: /groups/kemi/clausen/miniconda3/envs/gpaw22/share/gpaw/Pt.RPBE.gz
  compensation charges: gauss, rc=0.41, lmax=2
  cutoffs: 2.26(filt), 2.26(core),
  valence states:
                energy  radius
    6s(1.00)    -5.516   1.307
    5p(6.00)   -55.971   1.371
    6p(0.00)    -0.856   1.371
    5d(9.00)    -6.087   1.307
    *s          21.695   1.307
    *d          21.125   1.307

  Using partial waves for Pt as LCAO basis

Ru-setup:
  name: Ruthenium
  id: 76477906e28f51dc1b29884d53556fe9
  Z: 44.0
  valence: 16
  core: 28
  charge: 0.0
  file: /groups/kemi/clausen/miniconda3/envs/gpaw22/share/gpaw/Ru.RPBE.gz
  compensation charges: gauss, rc=0.39, lmax=2
  cutoffs: 2.16(filt), 1.30(core),
  valence states:
                energy  radius
    4s(2.00)   -76.255   1.281
    5s(1.00)    -4.126   1.281
    4p(6.00)   -46.371   1.286
    5p(0.00)    -0.913   1.286
    4d(7.00)    -5.146   1.254
    *d          22.066   1.254

  Using partial waves for Ru as LCAO basis

Ag-setup:
  name: Silver
  id: c05e55bab2c3858b3f9398f6d75cb77c
  Z: 47.0
  valence: 17
  core: 30
  charge: 0.0
  file: /groups/kemi/clausen/miniconda3/envs/gpaw22/share/gpaw/Ag.RPBE.gz
  compensation charges: gauss, rc=0.40, lmax=2
  cutoffs: 2.35(filt), 2.19(core),
  valence states:
                energy  radius
    5s(1.00)    -4.277   1.286
    4p(6.00)   -58.523   1.328
    5p(0.00)    -0.755   1.328
    4d(10.00)    -7.386   1.180
    *s          22.934   1.286
    *d          19.826   1.180

  Using partial waves for Ag as LCAO basis

Ir-setup:
  name: Iridium
  id: 73b603359d1d5397a85ae3c2440f9033
  Z: 77.0
  valence: 15
  core: 62
  charge: 0.0
  file: /groups/kemi/clausen/miniconda3/envs/gpaw22/share/gpaw/Ir.RPBE.gz
  compensation charges: gauss, rc=0.40, lmax=2
  cutoffs: 2.40(filt), 2.36(core),
  valence states:
                energy  radius
    6s(2.00)    -6.219   1.296
    5p(6.00)   -54.684   1.328
    6p(0.00)    -1.215   1.328
    5d(7.00)    -7.118   1.286
    *s          20.992   1.296
    *d          20.093   1.286

  Using partial waves for Ir as LCAO basis

H-setup:
  name: Hydrogen
  id: ea3f9156a1dc40d47a60fdce8f8bd75d
  Z: 1.0
  valence: 1
  core: 0
  charge: 0.0
  file: /groups/kemi/clausen/miniconda3/envs/gpaw22/share/gpaw/H.RPBE.gz
  compensation charges: gauss, rc=0.15, lmax=2
  cutoffs: 0.85(filt), 0.53(core),
  valence states:
                energy  radius
    1s(1.00)    -6.572   0.476
    *s          20.639   0.476
    *p           0.000   0.476

  Using partial waves for H as LCAO basis

Reference energy: -14172748.147892

Spin-paired calculation

Convergence criteria:
 Maximum [total energy] change in last 3 cyles: 0.0005 eV / electron
 Maximum integral of absolute [dens]ity change: 0.0001 electrons / valence electron
 Maximum integral of absolute [eigenst]ate change: 4e-08 eV^2 / valence electron
 Maximum number of scf [iter]ations: 333
 (Square brackets indicate name in SCF output, whereas a 'c' in
 the SCF output indicates the quantity has converged.)

Symmetries present (total): 1

  ( 1  0  0)
  ( 0  1  0)
  ( 0  0  1)

16 k-points: 4 x 4 x 1 Monkhorst-Pack grid
8 k-points in the irreducible part of the Brillouin zone
       k-points in crystal coordinates                weights
   0:     0.12500000   -0.37500000    0.00000000          2/16
   1:     0.12500000   -0.12500000    0.00000000          2/16
   2:     0.12500000    0.12500000    0.00000000          2/16
   3:     0.12500000    0.37500000    0.00000000          2/16
   4:     0.37500000   -0.37500000    0.00000000          2/16
   5:     0.37500000   -0.12500000    0.00000000          2/16
   6:     0.37500000    0.12500000    0.00000000          2/16
   7:     0.37500000    0.37500000    0.00000000          2/16

Wave functions: Plane wave expansion
  Cutoff energy: 400.000 eV
  Number of coefficients (min, max): 33332, 33436
  Pulay-stress correction: 0.000000 eV/Ang^3 (de/decut=0.000000)
  Using FFTW library
  ScaLapack parameters: grid=3x1, blocksize=64
  Wavefunction extrapolation:
    Improved wavefunction reuse through dual PAW basis 

Occupation numbers: Fermi-Dirac: width=0.1000 eV
 

Eigensolver
   Davidson(niter=3) 

Densities:
  Coarse grid: 40*40*140 grid
  Fine grid: 80*80*280 grid
  Total Charge: 0.000000 

Density mixing:
  Method: separate
  Backend: pulay
  Linear mixing parameter: 0.05
  Mixing with 5 old densities
  Damping of long wave oscillations: 50 

Hamiltonian:
  XC and Coulomb potentials evaluated on a 80*80*280 grid
  Using the RPBE Exchange-Correlation functional
  External potential:
    NoExternalPotential
 

XC parameters: RPBE with 2 nearest neighbor stencil

Memory estimate:
  Process memory now: 193.18 MiB
  Calculator: 554.47 MiB
    Density: 47.45 MiB
      Arrays: 14.92 MiB
      Localized functions: 26.79 MiB
      Mixer: 5.74 MiB
    Hamiltonian: 10.59 MiB
      Arrays: 9.75 MiB
      XC: 0.00 MiB
      Poisson: 0.00 MiB
      vbar: 0.84 MiB
    Wavefunctions: 496.43 MiB
      Arrays psit_nG: 225.00 MiB
      Eigensolver: 257.23 MiB
      Projections: 1.83 MiB
      Projectors: 3.57 MiB
      PW-descriptor: 8.80 MiB

Total number of cores used: 24
Parallelization over k-points: 8
Domain decomposition: 1 x 1 x 3
                      2 x 2 x 6 (xc only)

Number of atoms: 46
Number of atomic orbitals: 543
Number of bands in calculation: 441
Number of valence electrons: 727
Bands to converge: occupied

... initialized

Initializing position-dependent things.

Density initialized from atomic densities
Creating initial wave functions:
  441 bands from LCAO basis set

                                             
                                             
                                             
                                             
                                             
                                             
                H       Ag                   
                 Pt            Pt            
            Pt    PPd    APd    Pt           
                                             
       Pt    IPt    PPt    Pd                
                                             
        Pt     Pd    APd    Pt     Ag        
                Pt     Pd     Pt             
                                             
           Pt    APt    ARu    Pt            
                                             
            Pd    PPt    PAg    Ru           
       Pd     Pt     Pd                      
             Pd     Pd     Pt                
        Pd     Pt     Pt                     
                                             
                                             
                                             
                                             
                                             

Positions:
   0 Pd     0.000000    1.639149   10.000000    ( 0.0000,  0.0000,  0.0000)
   1 Pt     2.839089    1.639149   10.000000    ( 0.0000,  0.0000,  0.0000)
   2 Pt     5.678177    1.639149   10.000000    ( 0.0000,  0.0000,  0.0000)
   3 Pd     1.419544    4.097872   10.000000    ( 0.0000,  0.0000,  0.0000)
   4 Pd     4.258633    4.097872   10.000000    ( 0.0000,  0.0000,  0.0000)
   5 Pt     7.097722    4.097872   10.000000    ( 0.0000,  0.0000,  0.0000)
   6 Pd     2.839089    6.556595   10.000000    ( 0.0000,  0.0000,  0.0000)
   7 Pt     5.678177    6.556595   10.000000    ( 0.0000,  0.0000,  0.0000)
   8 Ru     8.517266    6.556595   10.000000    ( 0.0000,  0.0000,  0.0000)
   9 Pd     0.000000    0.000000   12.317643    ( 0.0000,  0.0000,  0.0000)
  10 Pt     2.839089    0.000000   12.317643    ( 0.0000,  0.0000,  0.0000)
  11 Pd     5.678177    0.000000   12.317643    ( 0.0000,  0.0000,  0.0000)
  12 Pd     1.419544    2.458723   12.317643    ( 0.0000,  0.0000,  0.0000)
  13 Pt     4.258633    2.458723   12.317643    ( 0.0000,  0.0000,  0.0000)
  14 Ag     7.097722    2.458723   12.317643    ( 0.0000,  0.0000,  0.0000)
  15 Ag     2.839089    4.917446   12.317643    ( 0.0000,  0.0000,  0.0000)
  16 Ag     5.678177    4.917446   12.317643    ( 0.0000,  0.0000,  0.0000)
  17 Pt     8.517266    4.917446   12.317643    ( 0.0000,  0.0000,  0.0000)
  18 Pt     1.382601    0.802015   14.574458    ( 0.0000,  0.0000,  0.0000)
  19 Pt     4.320375    0.816336   14.613039    ( 0.0000,  0.0000,  0.0000)
  20 Ru     7.144265    0.918131   14.702206    ( 0.0000,  0.0000,  0.0000)
  21 Pt     2.831254    3.224549   14.674209    ( 0.0000,  0.0000,  0.0000)
  22 Pd     5.669505    3.253449   14.666412    ( 0.0000,  0.0000,  0.0000)
  23 Pt     8.531860    3.282380   14.648110    ( 0.0000,  0.0000,  0.0000)
  24 Ag     4.274318    5.722991   14.646070    ( 0.0000,  0.0000,  0.0000)
  25 Pt     7.164045    5.771726   14.621475    ( 0.0000,  0.0000,  0.0000)
  26 Ag     9.986908    5.738787   14.643456    ( 0.0000,  0.0000,  0.0000)
  27 Pt    -0.010030    1.649760   16.860047    ( 0.0000,  0.0000,  0.0000)
  28 Pd     2.846447    1.596866   16.907942    ( 0.0000,  0.0000,  0.0000)
  29 Pd     5.675289    1.629573   16.927321    ( 0.0000,  0.0000,  0.0000)
  30 Ir     1.434330    4.054121   16.976739    ( 0.0000,  0.0000,  0.0000)
  31 Pt     4.206017    4.046333   16.977057    ( 0.0000,  0.0000,  0.0000)
  32 Pd     7.080668    4.096815   16.929692    ( 0.0000,  0.0000,  0.0000)
  33 Pd     2.838049    6.583929   16.905471    ( 0.0000,  0.0000,  0.0000)
  34 Ag     5.672922    6.523405   16.970943    ( 0.0000,  0.0000,  0.0000)
  35 Pt     8.525101    6.536969   16.950374    ( 0.0000,  0.0000,  0.0000)
  36 Pt    -0.017716    0.053004   19.239954    ( 0.0000,  0.0000,  0.0000)
  37 Pt     2.857597    0.044181   19.266473    ( 0.0000,  0.0000,  0.0000)
  38 Pt     5.659519   -0.012970   19.233800    ( 0.0000,  0.0000,  0.0000)
  39 Pt     1.394642    2.415452   19.172426    ( 0.0000,  0.0000,  0.0000)
  40 Pd     4.249890    2.430035   19.273035    ( 0.0000,  0.0000,  0.0000)
  41 Pd     7.120027    2.427105   19.248801    ( 0.0000,  0.0000,  0.0000)
  42 Pt     2.796750    4.960022   19.159701    ( 0.0000,  0.0000,  0.0000)
  43 Ag     5.679377    4.925181   19.423236    ( 0.0000,  0.0000,  0.0000)
  44 Pt     8.558870    4.929592   19.192007    ( 0.0000,  0.0000,  0.0000)
  45 H      2.813761    3.268503   20.723236    ( 0.0000,  0.0000,  0.0000)

Unit cell:
           periodic     x           y           z      points  spacing
  1. axis:    yes    8.517266    0.000000    0.000000    40     0.1844
  2. axis:    yes    4.258633    7.376169    0.000000    40     0.1844
  3. axis:    no     0.000000    0.000000   29.270571   140     0.2091

  Lengths:   8.517266   8.517266  29.270571
  Angles:   90.000000  90.000000  60.000000

Effective grid spacing dv^(1/3) = 0.2017

     iter     time        total  log10-change:
                         energy  eigst   dens
iter:   1 20:22:39  -253.522467
iter:   2 20:23:43  -218.810421  -1.66  -1.21
iter:   3 20:24:49  -216.811032  -2.30  -1.38
iter:   4 20:25:55  -257.641968  -2.32  -1.40
iter:   5 20:27:01  -213.120674  -2.46  -1.27
iter:   6 20:28:08  -204.519988  -2.60  -1.49
iter:   7 20:29:14  -201.338349  -2.68  -1.63
iter:   8 20:30:20  -200.581714  -2.82  -1.81
iter:   9 20:31:27  -200.250080  -3.53  -1.98
iter:  10 20:32:34  -200.230520c -3.66  -2.07
iter:  11 20:33:43  -201.022558  -3.95  -2.13
iter:  12 20:34:51  -200.213404  -3.88  -2.02
iter:  13 20:35:59  -200.676304  -3.91  -2.17
iter:  14 20:37:07  -199.744959  -3.99  -2.13
iter:  15 20:38:14  -199.817664  -4.14  -2.42
iter:  16 20:39:22  -199.623823c -4.20  -2.40
iter:  17 20:40:29  -199.589589c -4.13  -2.64
iter:  18 20:41:37  -199.572847c -4.61  -2.80
iter:  19 20:42:45  -199.550489c -4.84  -2.84
iter:  20 20:43:52  -199.551098c -5.45  -3.04
iter:  21 20:45:00  -199.556770c -5.48  -3.13
iter:  22 20:46:09  -199.554440c -5.65  -3.08
iter:  23 20:47:17  -199.549869c -5.73  -3.09
iter:  24 20:48:24  -199.549613c -5.86  -3.28
iter:  25 20:49:31  -199.548873c -5.82  -3.42
iter:  26 20:50:38  -199.550490c -6.42  -3.45
iter:  27 20:51:45  -199.550657c -6.42  -3.51
iter:  28 20:52:53  -199.549071c -6.88  -3.48
iter:  29 20:54:00  -199.549025c -6.80  -3.57
iter:  30 20:55:07  -199.549383c -6.76  -3.64
iter:  31 20:56:16  -199.548853c -7.02  -3.61
iter:  32 20:57:25  -199.548717c -6.89  -3.74
iter:  33 20:58:35  -199.549181c -7.10  -3.87
iter:  34 20:59:44  -199.548717c -7.47c -3.95
iter:  35 21:00:54  -199.548895c -7.65c -4.04c

Converged after 35 iterations.

Dipole moment: (27.938236, 10.941873, -0.034622) |e|*Ang

Energy contributions relative to reference atoms: (reference = -14172748.147892)

Kinetic:       -325.942998
Potential:     +178.497298
External:        +0.000000
XC:             -39.885256
Entropy (-ST):   -2.353687
Local:          -11.041095
--------------------------
Free energy:   -200.725738
Extrapolated:  -199.548895

Showing only first 2 kpts
 Kpt  Band  Eigenvalues  Occupancy
  0   361      0.65029    0.98445
  0   362      0.66670    0.90270
  0   363      0.70882    0.70120
  0   364      0.71567    0.67031

  1   361      0.52098    1.55875
  1   362      0.54946    1.45311
  1   363      0.58191    1.31522
  1   364      0.60885    1.18931


Fermi level: 0.64718

No gap

Forces in eV/Ang:
  0 Pd    0.00739   -0.00866   -0.26878
  1 Pt    0.30894   -0.52388    0.37546
  2 Pt   -0.33848   -0.14321    0.00872
  3 Pd   -0.41651    0.17977   -0.08262
  4 Pd    0.22324   -0.22701   -0.24473
  5 Pt    0.22577    0.32189   -0.19775
  6 Pd   -0.21947    0.23212   -0.10078
  7 Pt    0.55615    0.16319    0.08015
  8 Ru   -0.48792    0.06804    1.35961
  9 Pd   -0.22913    0.17062    0.20070
 10 Pt    0.28943    0.00514   -0.22733
 11 Pd    0.04152    0.04114   -0.07080
 12 Pd    0.08978    0.11034    0.01237
 13 Pt   -0.20537   -0.16312    0.17331
 14 Ag    0.05466   -0.12079    0.08305
 15 Ag   -0.00911   -0.07841   -0.10168
 16 Ag   -0.06195   -0.05877    0.08508
 17 Pt    0.03560    0.23237   -0.56034
 18 Pt   -0.02116    0.02280    0.02791
 19 Pt    0.06062    0.01505   -0.00899
 20 Ru   -0.02729   -0.07506   -0.29205
 21 Pt    0.04291   -0.01902   -0.00678
 22 Pd    0.05931   -0.02828   -0.00183
 23 Pt   -0.03664   -0.05131    0.04299
 24 Ag    0.03430   -0.00692   -0.01018
 25 Pt   -0.00024   -0.02170    0.00066
 26 Ag    0.00929    0.02626   -0.04939
 27 Pt    0.14138    0.17035    0.08670
 28 Pd    0.02070   -0.01296   -0.11221
 29 Pd   -0.01946    0.03835    0.02762
 30 Ir   -0.02710   -0.01042   -0.14745
 31 Pt   -0.01179   -0.04663   -0.12959
 32 Pd    0.00188   -0.04671   -0.01660
 33 Pd   -0.02408   -0.09437    0.19115
 34 Ag    0.00087   -0.04352    0.01488
 35 Pt    0.03382   -0.06129   -0.01864
 36 Pt   -0.04003   -0.05032   -0.03887
 37 Pt    0.02679   -0.19253   -0.02342
 38 Pt   -0.02541   -0.04513   -0.06664
 39 Pt    0.30569    0.14913    0.71909
 40 Pd   -0.27736    0.18916    0.66549
 41 Pd   -0.02088    0.03330   -0.05858
 42 Pt    0.06899   -0.18024    0.68937
 43 Ag    0.03004    0.03954    0.08427
 44 Pt   -0.11040    0.09011   -0.06054
 45 H    -0.05808    0.00987   -1.87781

System changes: positions 

Initializing position-dependent things.

Density initialized from wave functions
                                             
                                             
                                             
                                             
                                             
                                             
                H       Ag                   
                 Pt            Pt            
            Pt    PPd    APd    Pt           
                                             
       Pt    IPt    PPt    Pd                
                                             
        Pt     Pd    APd    Pt     Ag        
                Pt     Pd     Pt             
                                             
           Pt    APt    ARu    Pt            
                                             
            Pd    PPt    PAg    Ru           
       Pd     Pt     Pd                      
             Pd     Pd     Pt                
        Pd     Pt     Pt                     
                                             
                                             
                                             
                                             
                                             

Positions:
   0 Pd     0.000000    1.639149   10.000000    ( 0.0000,  0.0000,  0.0000)
   1 Pt     2.839089    1.639149   10.000000    ( 0.0000,  0.0000,  0.0000)
   2 Pt     5.678177    1.639149   10.000000    ( 0.0000,  0.0000,  0.0000)
   3 Pd     1.419544    4.097872   10.000000    ( 0.0000,  0.0000,  0.0000)
   4 Pd     4.258633    4.097872   10.000000    ( 0.0000,  0.0000,  0.0000)
   5 Pt     7.097722    4.097872   10.000000    ( 0.0000,  0.0000,  0.0000)
   6 Pd     2.839089    6.556595   10.000000    ( 0.0000,  0.0000,  0.0000)
   7 Pt     5.678177    6.556595   10.000000    ( 0.0000,  0.0000,  0.0000)
   8 Ru     8.517266    6.556595   10.000000    ( 0.0000,  0.0000,  0.0000)
   9 Pd     0.000000    0.000000   12.317643    ( 0.0000,  0.0000,  0.0000)
  10 Pt     2.839089    0.000000   12.317643    ( 0.0000,  0.0000,  0.0000)
  11 Pd     5.678177    0.000000   12.317643    ( 0.0000,  0.0000,  0.0000)
  12 Pd     1.419544    2.458723   12.317643    ( 0.0000,  0.0000,  0.0000)
  13 Pt     4.258633    2.458723   12.317643    ( 0.0000,  0.0000,  0.0000)
  14 Ag     7.097722    2.458723   12.317643    ( 0.0000,  0.0000,  0.0000)
  15 Ag     2.839089    4.917446   12.317643    ( 0.0000,  0.0000,  0.0000)
  16 Ag     5.678177    4.917446   12.317643    ( 0.0000,  0.0000,  0.0000)
  17 Pt     8.517266    4.917446   12.317643    ( 0.0000,  0.0000,  0.0000)
  18 Pt     1.382298    0.802341   14.574856    ( 0.0000,  0.0000,  0.0000)
  19 Pt     4.321241    0.816551   14.612910    ( 0.0000,  0.0000,  0.0000)
  20 Ru     7.143875    0.917059   14.698034    ( 0.0000,  0.0000,  0.0000)
  21 Pt     2.831867    3.224277   14.674113    ( 0.0000,  0.0000,  0.0000)
  22 Pd     5.670352    3.253045   14.666386    ( 0.0000,  0.0000,  0.0000)
  23 Pt     8.531337    3.281647   14.648725    ( 0.0000,  0.0000,  0.0000)
  24 Ag     4.274808    5.722892   14.645925    ( 0.0000,  0.0000,  0.0000)
  25 Pt     7.164041    5.771416   14.621484    ( 0.0000,  0.0000,  0.0000)
  26 Ag     9.987041    5.739162   14.642750    ( 0.0000,  0.0000,  0.0000)
  27 Pt    -0.008010    1.652194   16.861285    ( 0.0000,  0.0000,  0.0000)
  28 Pd     2.846743    1.596680   16.906339    ( 0.0000,  0.0000,  0.0000)
  29 Pd     5.675011    1.630121   16.927715    ( 0.0000,  0.0000,  0.0000)
  30 Ir     1.433943    4.053972   16.974633    ( 0.0000,  0.0000,  0.0000)
  31 Pt     4.205849    4.045667   16.975206    ( 0.0000,  0.0000,  0.0000)
  32 Pd     7.080695    4.096147   16.929455    ( 0.0000,  0.0000,  0.0000)
  33 Pd     2.837705    6.582581   16.908202    ( 0.0000,  0.0000,  0.0000)
  34 Ag     5.672934    6.522784   16.971155    ( 0.0000,  0.0000,  0.0000)
  35 Pt     8.525584    6.536093   16.950108    ( 0.0000,  0.0000,  0.0000)
  36 Pt    -0.018288    0.052285   19.239399    ( 0.0000,  0.0000,  0.0000)
  37 Pt     2.857979    0.041431   19.266138    ( 0.0000,  0.0000,  0.0000)
  38 Pt     5.659156   -0.013615   19.232848    ( 0.0000,  0.0000,  0.0000)
  39 Pt     1.399009    2.417583   19.182699    ( 0.0000,  0.0000,  0.0000)
  40 Pd     4.245927    2.432737   19.282542    ( 0.0000,  0.0000,  0.0000)
  41 Pd     7.119729    2.427581   19.247965    ( 0.0000,  0.0000,  0.0000)
  42 Pt     2.797735    4.957447   19.169549    ( 0.0000,  0.0000,  0.0000)
  43 Ag     5.679806    4.925746   19.424440    ( 0.0000,  0.0000,  0.0000)
  44 Pt     8.557293    4.930880   19.191142    ( 0.0000,  0.0000,  0.0000)
  45 H      2.812931    3.268644   20.696410    ( 0.0000,  0.0000,  0.0000)

Unit cell:
           periodic     x           y           z      points  spacing
  1. axis:    yes    8.517266    0.000000    0.000000    40     0.1844
  2. axis:    yes    4.258633    7.376169    0.000000    40     0.1844
  3. axis:    no     0.000000    0.000000   29.270571   140     0.2091

  Lengths:   8.517266   8.517266  29.270571
  Angles:   90.000000  90.000000  60.000000

Effective grid spacing dv^(1/3) = 0.2017

     iter     time        total  log10-change:
                         energy  eigst   dens
iter:   1 21:02:26  -200.261845  -4.21
iter:   2 21:03:35  -221.639876  -3.11  -2.29
iter:   3 21:04:44  -200.449726  -3.39  -1.62
iter:   4 21:05:53  -199.730904  -4.52  -2.31
iter:   5 21:07:03  -199.639516  -5.29  -2.72
iter:   6 21:08:12  -199.635991c -5.72  -3.34
iter:   7 21:09:23  -199.638137c -6.04  -3.22
iter:   8 21:10:34  -199.628113c -6.10  -3.26
iter:   9 21:11:44  -199.627062c -6.52  -3.83
iter:  10 21:12:54  -199.627856c -6.94  -3.79
iter:  11 21:14:04  -199.627219c -7.23  -3.90
iter:  12 21:15:14  -199.627284c -7.50c -4.03c

Converged after 12 iterations.

Dipole moment: (27.801170, 11.078005, -0.025898) |e|*Ang

Energy contributions relative to reference atoms: (reference = -14172748.147892)

Kinetic:       -329.567913
Potential:     +182.035196
External:        +0.000000
XC:             -39.888473
Entropy (-ST):   -2.353162
Local:          -11.029513
--------------------------
Free energy:   -200.803865
Extrapolated:  -199.627284

Showing only first 2 kpts
 Kpt  Band  Eigenvalues  Occupancy
  0   361      0.65385    0.98392
  0   362      0.67017    0.90262
  0   363      0.71266    0.69944
  0   364      0.71970    0.66777

  1   361      0.52378    1.56098
  1   362      0.55169    1.45794
  1   363      0.58514    1.31623
  1   364      0.61296    1.18618


Fermi level: 0.65063

No gap

Forces in eV/Ang:
  0 Pd    0.01012   -0.01021   -0.26408
  1 Pt    0.30208   -0.51982    0.38193
  2 Pt   -0.33461   -0.14798    0.01223
  3 Pd   -0.41320    0.17781   -0.08463
  4 Pd    0.21781   -0.22371   -0.24428
  5 Pt    0.22718    0.31787   -0.19516
  6 Pd   -0.21993    0.23056   -0.10107
  7 Pt    0.54781    0.16610    0.08286
  8 Ru   -0.47703    0.06753    1.34260
  9 Pd   -0.23073    0.17148    0.17952
 10 Pt    0.28872    0.00911   -0.25491
 11 Pd    0.04416    0.04202   -0.09007
 12 Pd    0.08757    0.10505   -0.01153
 13 Pt   -0.20479   -0.16996    0.14702
 14 Ag    0.05600   -0.12044    0.06546
 15 Ag   -0.00946   -0.07286   -0.11022
 16 Ag   -0.06109   -0.05745    0.07386
 17 Pt    0.03550    0.23185   -0.58451
 18 Pt   -0.01252    0.01212    0.01997
 19 Pt    0.05508    0.00979   -0.01441
 20 Ru   -0.02774   -0.07939   -0.25993
 21 Pt    0.04064   -0.01284   -0.02261
 22 Pd    0.05054   -0.02148   -0.00680
 23 Pt   -0.03202   -0.04016    0.02427
 24 Ag    0.03001   -0.00488   -0.00929
 25 Pt   -0.00610   -0.01815   -0.00992
 26 Ag    0.01633    0.02606   -0.04797
 27 Pt    0.10993    0.12481    0.09979
 28 Pd    0.01821   -0.01627   -0.05401
 29 Pd   -0.01399    0.02735    0.04318
 30 Ir   -0.01600   -0.00819   -0.10098
 31 Pt   -0.01085   -0.04117   -0.07654
 32 Pd   -0.00736   -0.04096   -0.00559
 33 Pd   -0.01383   -0.07242    0.16621
 34 Ag   -0.00565   -0.03563    0.01544
 35 Pt    0.03117   -0.04248   -0.02058
 36 Pt   -0.03650   -0.02511   -0.09642
 37 Pt    0.02414   -0.16494   -0.09464
 38 Pt   -0.01520   -0.02369   -0.11251
 39 Pt    0.26518    0.12680    0.56887
 40 Pd   -0.21156    0.13434    0.49108
 41 Pd   -0.01658    0.01756   -0.10071
 42 Pt    0.05002   -0.16552    0.53910
 43 Ag    0.03489    0.03542    0.03407
 44 Pt   -0.10131    0.07530   -0.11008
 45 H    -0.07112    0.01621   -1.86368

System changes: positions 

Initializing position-dependent things.

Density initialized from wave functions
                                             
                                             
                                             
                                             
                                             
                                             
                HPt     Ag                   
                               Pt            
            Pt    PPd    APd    Pt           
                                             
       Pt    IPt    PPt    Pd                
                      Pd                     
        Pt     Pd    Ag     Pt     Ag        
                Pt     Pd     Pt             
                                             
           Pt    APt    ARu    Pt            
                                             
            Pd    PPt    PAg    Ru           
       Pd    PPt    PPd    Pt                
                                             
        Pd     Pt     Pt                     
                                             
                                             
                                             
                                             
                                             

Positions:
   0 Pd     0.000000    1.639149   10.000000    ( 0.0000,  0.0000,  0.0000)
   1 Pt     2.839089    1.639149   10.000000    ( 0.0000,  0.0000,  0.0000)
   2 Pt     5.678177    1.639149   10.000000    ( 0.0000,  0.0000,  0.0000)
   3 Pd     1.419544    4.097872   10.000000    ( 0.0000,  0.0000,  0.0000)
   4 Pd     4.258633    4.097872   10.000000    ( 0.0000,  0.0000,  0.0000)
   5 Pt     7.097722    4.097872   10.000000    ( 0.0000,  0.0000,  0.0000)
   6 Pd     2.839089    6.556595   10.000000    ( 0.0000,  0.0000,  0.0000)
   7 Pt     5.678177    6.556595   10.000000    ( 0.0000,  0.0000,  0.0000)
   8 Ru     8.517266    6.556595   10.000000    ( 0.0000,  0.0000,  0.0000)
   9 Pd     0.000000    0.000000   12.317643    ( 0.0000,  0.0000,  0.0000)
  10 Pt     2.839089    0.000000   12.317643    ( 0.0000,  0.0000,  0.0000)
  11 Pd     5.678177    0.000000   12.317643    ( 0.0000,  0.0000,  0.0000)
  12 Pd     1.419544    2.458723   12.317643    ( 0.0000,  0.0000,  0.0000)
  13 Pt     4.258633    2.458723   12.317643    ( 0.0000,  0.0000,  0.0000)
  14 Ag     7.097722    2.458723   12.317643    ( 0.0000,  0.0000,  0.0000)
  15 Ag     2.839089    4.917446   12.317643    ( 0.0000,  0.0000,  0.0000)
  16 Ag     5.678177    4.917446   12.317643    ( 0.0000,  0.0000,  0.0000)
  17 Pt     8.517266    4.917446   12.317643    ( 0.0000,  0.0000,  0.0000)
  18 Pt     1.380813    0.803818   14.577129    ( 0.0000,  0.0000,  0.0000)
  19 Pt     4.327233    0.817688   14.611458    ( 0.0000,  0.0000,  0.0000)
  20 Ru     7.140912    0.908628   14.669654    ( 0.0000,  0.0000,  0.0000)
  21 Pt     2.836257    3.222799   14.671956    ( 0.0000,  0.0000,  0.0000)
  22 Pd     5.675912    3.250629   14.665741    ( 0.0000,  0.0000,  0.0000)
  23 Pt     8.527830    3.277158   14.651638    ( 0.0000,  0.0000,  0.0000)
  24 Ag     4.278095    5.722335   14.644914    ( 0.0000,  0.0000,  0.0000)
  25 Pt     7.163486    5.769412   14.620599    ( 0.0000,  0.0000,  0.0000)
  26 Ag     9.988672    5.741957   14.637588    ( 0.0000,  0.0000,  0.0000)
  27 Pt     0.004291    1.666325   16.871754    ( 0.0000,  0.0000,  0.0000)
  28 Pd     2.848735    1.594993   16.899579    ( 0.0000,  0.0000,  0.0000)
  29 Pd     5.673421    1.633235   16.932079    ( 0.0000,  0.0000,  0.0000)
  30 Ir     1.432043    4.053057   16.963037    ( 0.0000,  0.0000,  0.0000)
  31 Pt     4.204671    4.041166   16.966118    ( 0.0000,  0.0000,  0.0000)
  32 Pd     7.080062    4.091664   16.928672    ( 0.0000,  0.0000,  0.0000)
  33 Pd     2.836052    6.574456   16.926423    ( 0.0000,  0.0000,  0.0000)
  34 Ag     5.672438    6.518835   16.972799    ( 0.0000,  0.0000,  0.0000)
  35 Pt     8.528967    6.531228   16.947936    ( 0.0000,  0.0000,  0.0000)
  36 Pt    -0.022256    0.049173   19.230036    ( 0.0000,  0.0000,  0.0000)
  37 Pt     2.860610    0.023302   19.257195    ( 0.0000,  0.0000,  0.0000)
  38 Pt     5.657356   -0.016512   19.221566    ( 0.0000,  0.0000,  0.0000)
  39 Pt     1.428091    2.431539   19.246149    ( 0.0000,  0.0000,  0.0000)
  40 Pd     4.222164    2.448045   19.338065    ( 0.0000,  0.0000,  0.0000)
  41 Pd     7.117881    2.429725   19.237884    ( 0.0000,  0.0000,  0.0000)
  42 Pt     2.803411    4.939471   19.229811    ( 0.0000,  0.0000,  0.0000)
  43 Ag     5.683462    4.929609   19.428930    ( 0.0000,  0.0000,  0.0000)
  44 Pt     8.546289    4.939193   19.180181    ( 0.0000,  0.0000,  0.0000)
  45 H      2.805532    3.270274   20.496553    ( 0.0000,  0.0000,  0.0000)

Unit cell:
           periodic     x           y           z      points  spacing
  1. axis:    yes    8.517266    0.000000    0.000000    40     0.1844
  2. axis:    yes    4.258633    7.376169    0.000000    40     0.1844
  3. axis:    no     0.000000    0.000000   29.270571   140     0.2091

  Lengths:   8.517266   8.517266  29.270571
  Angles:   90.000000  90.000000  60.000000

Effective grid spacing dv^(1/3) = 0.2017

     iter     time        total  log10-change:
                         energy  eigst   dens
iter:   1 21:16:49  -208.875590  -2.77
iter:   2 21:17:59  -347.355875  -1.86  -1.75
iter:   3 21:19:09  -214.653700  -2.44  -1.19
iter:   4 21:20:19  -202.559319  -3.13  -1.75
iter:   5 21:21:29  -200.927167  -4.06  -2.17
iter:   6 21:22:38  -200.357284  -4.21  -2.42
iter:   7 21:23:48  -200.597305  -4.36  -2.57
iter:   8 21:24:58  -200.140885  -4.40  -2.40
iter:   9 21:26:09  -200.124780  -4.72  -2.92
iter:  10 21:27:20  -200.092083c -4.53  -2.91
iter:  11 21:28:30  -200.076522c -5.34  -2.94
iter:  12 21:29:40  -200.087840c -5.78  -3.16
iter:  13 21:30:51  -200.069281c -5.81  -2.99
iter:  14 21:32:01  -200.068066c -5.92  -3.36
iter:  15 21:33:11  -200.068630c -6.18  -3.59
iter:  16 21:34:21  -200.064942c -6.40  -3.40
iter:  17 21:35:31  -200.066087c -6.80  -3.57
iter:  18 21:36:41  -200.065365c -6.90  -3.73
iter:  19 21:37:50  -200.064852c -6.99  -3.81
iter:  20 21:39:01  -200.064832c -6.93  -3.85
iter:  21 21:40:11  -200.064643c -7.30  -3.87
iter:  22 21:41:21  -200.064409c -7.23  -4.13c
iter:  23 21:42:30  -200.065618c -7.49c -4.15c

Converged after 23 iterations.

Dipole moment: (26.911620, 11.860526, -0.016237) |e|*Ang

Energy contributions relative to reference atoms: (reference = -14172748.147892)

Kinetic:       -333.518242
Potential:     +185.661973
External:        +0.000000
XC:             -40.010152
Entropy (-ST):   -2.354362
Local:          -11.022016
--------------------------
Free energy:   -201.242799
Extrapolated:  -200.065618

Showing only first 2 kpts
 Kpt  Band  Eigenvalues  Occupancy
  0   361      0.66467    0.97229
  0   362      0.67897    0.90109
  0   363      0.72053    0.70229
  0   364      0.72734    0.67155

  1   361      0.53705    1.54441
  1   362      0.55203    1.48958
  1   363      0.59358    1.31648
  1   364      0.62197    1.18367


Fermi level: 0.65913

No gap

Forces in eV/Ang:
  0 Pd    0.00797   -0.01141   -0.25187
  1 Pt    0.30600   -0.52433    0.39359
  2 Pt   -0.33880   -0.14902    0.02427
  3 Pd   -0.41646    0.18104   -0.07179
  4 Pd    0.22000   -0.22551   -0.23301
  5 Pt    0.22861    0.31295   -0.17178
  6 Pd   -0.22121    0.23200   -0.09425
  7 Pt    0.54396    0.17307    0.10365
  8 Ru   -0.47222    0.07650    1.38111
  9 Pd   -0.21833    0.16974    0.19047
 10 Pt    0.28393    0.00798   -0.22427
 11 Pd    0.05613    0.04992   -0.07268
 12 Pd    0.08465    0.10674    0.01213
 13 Pt   -0.19827   -0.16570    0.15442
 14 Ag    0.06102   -0.09415    0.03098
 15 Ag   -0.00394   -0.07786   -0.10789
 16 Ag   -0.06246   -0.06117    0.07522
 17 Pt    0.02893    0.21987   -0.56983
 18 Pt   -0.01627   -0.00042    0.02761
 19 Pt    0.02941   -0.01247    0.00710
 20 Ru    0.03053   -0.04251   -0.02638
 21 Pt    0.01268   -0.00466   -0.02698
 22 Pd    0.03844   -0.02609   -0.00664
 23 Pt    0.00855   -0.02502    0.02086
 24 Ag    0.00212    0.01081    0.02714
 25 Pt    0.01661    0.00233    0.00813
 26 Ag    0.02930   -0.00525    0.00425
 27 Pt    0.00939   -0.01529    0.02452
 28 Pd   -0.00261    0.02715    0.10977
 29 Pd    0.02652   -0.01581   -0.00668
 30 Ir    0.07189   -0.02508    0.09674
 31 Pt   -0.09686   -0.02762    0.10928
 32 Pd   -0.03005   -0.01047   -0.02542
 33 Pd    0.00988   -0.05334    0.05072
 34 Ag   -0.01699   -0.02394   -0.03859
 35 Pt    0.01376   -0.01018   -0.11338
 36 Pt    0.01597    0.06977   -0.00375
 37 Pt    0.02354    0.01339   -0.01678
 38 Pt    0.00265   -0.00714   -0.00549
 39 Pt    0.01326   -0.00586    0.24277
 40 Pd    0.05268   -0.01735    0.23791
 41 Pd    0.03623    0.01027   -0.02593
 42 Pt   -0.01548   -0.02930    0.18909
 43 Ag   -0.03903   -0.02732    0.04738
 44 Pt    0.04555   -0.03352   -0.01953
 45 H    -0.15321    0.05230   -1.37725

System changes: positions 

Initializing position-dependent things.

Density initialized from wave functions
                                             
                                             
                                             
                                             
                                             
                                             
                HPt     Ag     Pt            
                                             
            Pt    PPd    APd    Pt           
              Pt                             
       Pt    Ir     PPt    Pd                
        Pt     Pd     Pd                     
                     Ag     Pt     Ag        
                Pt     Pd     Pt             
                                             
           Pt    APt    ARu    Pt            
                                             
            Pd    PPt    PAg    Ru           
       Pd    PPt    PPd    Pt                
                                             
        Pd     Pt     Pt                     
                                             
                                             
                                             
                                             
                                             

Positions:
   0 Pd     0.000000    1.639149   10.000000    ( 0.0000,  0.0000,  0.0000)
   1 Pt     2.839089    1.639149   10.000000    ( 0.0000,  0.0000,  0.0000)
   2 Pt     5.678177    1.639149   10.000000    ( 0.0000,  0.0000,  0.0000)
   3 Pd     1.419544    4.097872   10.000000    ( 0.0000,  0.0000,  0.0000)
   4 Pd     4.258633    4.097872   10.000000    ( 0.0000,  0.0000,  0.0000)
   5 Pt     7.097722    4.097872   10.000000    ( 0.0000,  0.0000,  0.0000)
   6 Pd     2.839089    6.556595   10.000000    ( 0.0000,  0.0000,  0.0000)
   7 Pt     5.678177    6.556595   10.000000    ( 0.0000,  0.0000,  0.0000)
   8 Ru     8.517266    6.556595   10.000000    ( 0.0000,  0.0000,  0.0000)
   9 Pd     0.000000    0.000000   12.317643    ( 0.0000,  0.0000,  0.0000)
  10 Pt     2.839089    0.000000   12.317643    ( 0.0000,  0.0000,  0.0000)
  11 Pd     5.678177    0.000000   12.317643    ( 0.0000,  0.0000,  0.0000)
  12 Pd     1.419544    2.458723   12.317643    ( 0.0000,  0.0000,  0.0000)
  13 Pt     4.258633    2.458723   12.317643    ( 0.0000,  0.0000,  0.0000)
  14 Ag     7.097722    2.458723   12.317643    ( 0.0000,  0.0000,  0.0000)
  15 Ag     2.839089    4.917446   12.317643    ( 0.0000,  0.0000,  0.0000)
  16 Ag     5.678177    4.917446   12.317643    ( 0.0000,  0.0000,  0.0000)
  17 Pt     8.517266    4.917446   12.317643    ( 0.0000,  0.0000,  0.0000)
  18 Pt     1.379144    0.805124   14.579709    ( 0.0000,  0.0000,  0.0000)
  19 Pt     4.332991    0.818408   14.610416    ( 0.0000,  0.0000,  0.0000)
  20 Ru     7.139076    0.900574   14.644836    ( 0.0000,  0.0000,  0.0000)
  21 Pt     2.840271    3.221406   14.669628    ( 0.0000,  0.0000,  0.0000)
  22 Pd     5.681522    3.247968   14.665078    ( 0.0000,  0.0000,  0.0000)
  23 Pt     8.525019    3.272738   14.654678    ( 0.0000,  0.0000,  0.0000)
  24 Ag     4.280952    5.722089   14.644651    ( 0.0000,  0.0000,  0.0000)
  25 Pt     7.163416    5.767745   14.620090    ( 0.0000,  0.0000,  0.0000)
  26 Ag     9.990658    5.744210   14.633300    ( 0.0000,  0.0000,  0.0000)
  27 Pt     0.015108    1.678233   16.881087    ( 0.0000,  0.0000,  0.0000)
  28 Pd     2.850381    1.594181   16.895922    ( 0.0000,  0.0000,  0.0000)
  29 Pd     5.672625    1.635590   16.935537    ( 0.0000,  0.0000,  0.0000)
  30 Ir     1.431951    4.051717   16.955067    ( 0.0000,  0.0000,  0.0000)
  31 Pt     4.201535    4.036712   16.960509    ( 0.0000,  0.0000,  0.0000)
  32 Pd     7.078919    4.087601   16.927383    ( 0.0000,  0.0000,  0.0000)
  33 Pd     2.834808    6.566267   16.943127    ( 0.0000,  0.0000,  0.0000)
  34 Ag     5.671682    6.514916   16.973339    ( 0.0000,  0.0000,  0.0000)
  35 Pt     8.532152    6.526770   16.943611    ( 0.0000,  0.0000,  0.0000)
  36 Pt    -0.025289    0.047923   19.222361    ( 0.0000,  0.0000,  0.0000)
  37 Pt     2.863373    0.008072   19.249671    ( 0.0000,  0.0000,  0.0000)
  38 Pt     5.655829   -0.019251   19.212158    ( 0.0000,  0.0000,  0.0000)
  39 Pt     1.453266    2.443368   19.306150    ( 0.0000,  0.0000,  0.0000)
  40 Pd     4.202799    2.460959   19.391386    ( 0.0000,  0.0000,  0.0000)
  41 Pd     7.117087    2.431862   19.229021    ( 0.0000,  0.0000,  0.0000)
  42 Pt     2.807992    4.923507   19.285929    ( 0.0000,  0.0000,  0.0000)
  43 Ag     5.685671    4.932306   19.434076    ( 0.0000,  0.0000,  0.0000)
  44 Pt     8.537914    4.945587   19.170758    ( 0.0000,  0.0000,  0.0000)
  45 H      2.795966    3.272769   20.296798    ( 0.0000,  0.0000,  0.0000)

Unit cell:
           periodic     x           y           z      points  spacing
  1. axis:    yes    8.517266    0.000000    0.000000    40     0.1844
  2. axis:    yes    4.258633    7.376169    0.000000    40     0.1844
  3. axis:    no     0.000000    0.000000   29.270571   140     0.2091

  Lengths:   8.517266   8.517266  29.270571
  Angles:   90.000000  90.000000  60.000000

Effective grid spacing dv^(1/3) = 0.2017

     iter     time        total  log10-change:
                         energy  eigst   dens
iter:   1 21:44:03  -203.522151  -2.80
iter:   2 21:45:12  -208.480583  -2.72  -1.98
iter:   3 21:46:21  -202.282758  -3.27  -1.84
iter:   4 21:47:29  -201.400186  -3.96  -2.07
iter:   5 21:48:39  -200.445875  -4.71  -2.19
iter:   6 21:49:48  -200.301338  -4.94  -2.59
iter:   7 21:50:58  -200.263937c -4.54  -2.91
iter:   8 21:52:07  -200.234369c -4.97  -2.90
iter:   9 21:53:17  -200.234595c -5.47  -3.20
iter:  10 21:54:26  -200.241456c -5.79  -3.22
iter:  11 21:55:37  -200.248726c -5.87  -3.14
iter:  12 21:56:47  -200.231916c -5.99  -3.01
iter:  13 21:57:56  -200.231485c -6.26  -3.37
iter:  14 21:59:06  -200.231261c -6.48  -3.54
iter:  15 22:00:16  -200.229521c -6.50  -3.49
iter:  16 22:01:26  -200.231135c -6.82  -3.66
iter:  17 22:02:36  -200.230028c -6.29  -3.61
iter:  18 22:03:46  -200.229509c -6.54  -3.60
iter:  19 22:04:56  -200.229408c -6.44  -3.61
iter:  20 22:06:06  -200.228746c -7.04  -3.72
iter:  21 22:07:16  -200.228552c -7.32  -4.09c
iter:  22 22:08:27  -200.229174c -7.55c -4.09c

Converged after 22 iterations.

Dipole moment: (26.164065, 12.429350, -0.015912) |e|*Ang

Energy contributions relative to reference atoms: (reference = -14172748.147892)

Kinetic:       -331.301979
Potential:     +183.921235
External:        +0.000000
XC:             -40.641427
Entropy (-ST):   -2.353208
Local:          -11.030399
--------------------------
Free energy:   -201.405778
Extrapolated:  -200.229174

Showing only first 2 kpts
 Kpt  Band  Eigenvalues  Occupancy
  0   361      0.66322    0.97101
  0   362      0.67627    0.90604
  0   363      0.71509    0.71936
  0   364      0.72210    0.68740

  1   361      0.53430    1.54805
  1   362      0.55262    1.48078
  1   363      0.59427    1.30566
  1   364      0.62397    1.16568


Fermi level: 0.65742

No gap

Forces in eV/Ang:
  0 Pd    0.00703   -0.01160   -0.26087
  1 Pt    0.30572   -0.52194    0.38271
  2 Pt   -0.33992   -0.14923    0.01349
  3 Pd   -0.41406    0.18082   -0.07874
  4 Pd    0.21685   -0.22377   -0.23932
  5 Pt    0.22855    0.30567   -0.17408
  6 Pd   -0.22092    0.22888   -0.10370
  7 Pt    0.53628    0.17598    0.09757
  8 Ru   -0.46240    0.07934    1.37008
  9 Pd   -0.20767    0.16623    0.17709
 10 Pt    0.28145    0.00743   -0.22547
 11 Pd    0.06257    0.05366   -0.08852
 12 Pd    0.08166    0.10625    0.01093
 13 Pt   -0.19240   -0.16530    0.13664
 14 Ag    0.06534   -0.07036   -0.01398
 15 Ag    0.00091   -0.08002   -0.11761
 16 Ag   -0.06258   -0.06382    0.06802
 17 Pt    0.02337    0.21241   -0.58347
 18 Pt   -0.00620   -0.01127    0.02254
 19 Pt   -0.00300   -0.02831    0.01359
 20 Ru    0.07150   -0.00197    0.16056
 21 Pt   -0.01073    0.00042   -0.02868
 22 Pd    0.01116   -0.01592   -0.01149
 23 Pt    0.04771   -0.00402    0.00493
 24 Ag   -0.01941    0.00880    0.05004
 25 Pt    0.03087    0.01746    0.00887
 26 Ag    0.04035   -0.04092    0.04427
 27 Pt   -0.07972   -0.14044   -0.03391
 28 Pd   -0.01832    0.05187    0.24379
 29 Pd    0.05343   -0.05604   -0.03820
 30 Ir    0.11819   -0.02979    0.21909
 31 Pt   -0.13846   -0.01510    0.25866
 32 Pd   -0.04313    0.02433   -0.02526
 33 Pd    0.02833   -0.03009   -0.07499
 34 Ag   -0.02278   -0.01328   -0.06451
 35 Pt   -0.00081    0.01873   -0.15740
 36 Pt    0.05505    0.13214    0.09442
 37 Pt    0.02114    0.16354    0.05166
 38 Pt    0.01640    0.00862    0.10452
 39 Pt   -0.50086   -0.28399   -0.27388
 40 Pd    0.56292   -0.30472   -0.18227
 41 Pd    0.07107   -0.00028    0.05925
 42 Pt   -0.06681    0.33519   -0.25613
 43 Ag   -0.09052   -0.06986    0.06533
 44 Pt    0.15655   -0.11831    0.06523
 45 H    -0.18026    0.15611   -0.40721

System changes: positions 

Initializing position-dependent things.

Density initialized from wave functions
                                             
                                             
                                             
                                             
                                             
                                             
                HPt     Ag     Pt            
                                             
            Pt    PPd    APd    Pt           
       Pt     Pt                             
             Ir     PPt    Pd                
        Pt     Pd     Pd                     
                     Ag     Pt     Ag        
                Pt     Pd     Pt             
                                             
           Pt    APt    ARu    Pt            
                                             
            Pd    PPt    PAg    Ru           
       Pd    PPt    PPd    Pt                
                                             
        Pd     Pt     Pt                     
                                             
                                             
                                             
                                             
                                             

Positions:
   0 Pd     0.000000    1.639149   10.000000    ( 0.0000,  0.0000,  0.0000)
   1 Pt     2.839089    1.639149   10.000000    ( 0.0000,  0.0000,  0.0000)
   2 Pt     5.678177    1.639149   10.000000    ( 0.0000,  0.0000,  0.0000)
   3 Pd     1.419544    4.097872   10.000000    ( 0.0000,  0.0000,  0.0000)
   4 Pd     4.258633    4.097872   10.000000    ( 0.0000,  0.0000,  0.0000)
   5 Pt     7.097722    4.097872   10.000000    ( 0.0000,  0.0000,  0.0000)
   6 Pd     2.839089    6.556595   10.000000    ( 0.0000,  0.0000,  0.0000)
   7 Pt     5.678177    6.556595   10.000000    ( 0.0000,  0.0000,  0.0000)
   8 Ru     8.517266    6.556595   10.000000    ( 0.0000,  0.0000,  0.0000)
   9 Pd     0.000000    0.000000   12.317643    ( 0.0000,  0.0000,  0.0000)
  10 Pt     2.839089    0.000000   12.317643    ( 0.0000,  0.0000,  0.0000)
  11 Pd     5.678177    0.000000   12.317643    ( 0.0000,  0.0000,  0.0000)
  12 Pd     1.419544    2.458723   12.317643    ( 0.0000,  0.0000,  0.0000)
  13 Pt     4.258633    2.458723   12.317643    ( 0.0000,  0.0000,  0.0000)
  14 Ag     7.097722    2.458723   12.317643    ( 0.0000,  0.0000,  0.0000)
  15 Ag     2.839089    4.917446   12.317643    ( 0.0000,  0.0000,  0.0000)
  16 Ag     5.678177    4.917446   12.317643    ( 0.0000,  0.0000,  0.0000)
  17 Pt     8.517266    4.917446   12.317643    ( 0.0000,  0.0000,  0.0000)
  18 Pt     1.379014    0.805024   14.580061    ( 0.0000,  0.0000,  0.0000)
  19 Pt     4.332980    0.818045   14.610630    ( 0.0000,  0.0000,  0.0000)
  20 Ru     7.140061    0.900567   14.646875    ( 0.0000,  0.0000,  0.0000)
  21 Pt     2.840136    3.221380   14.669314    ( 0.0000,  0.0000,  0.0000)
  22 Pd     5.681723    3.247713   14.664945    ( 0.0000,  0.0000,  0.0000)
  23 Pt     8.525651    3.272624   14.654842    ( 0.0000,  0.0000,  0.0000)
  24 Ag     4.280708    5.722201   14.645335    ( 0.0000,  0.0000,  0.0000)
  25 Pt     7.163871    5.767966   14.620267    ( 0.0000,  0.0000,  0.0000)
  26 Ag     9.991178    5.743650   14.633901    ( 0.0000,  0.0000,  0.0000)
  27 Pt     0.014175    1.676536   16.880556    ( 0.0000,  0.0000,  0.0000)
  28 Pd     2.850142    1.594911   16.898979    ( 0.0000,  0.0000,  0.0000)
  29 Pd     5.673332    1.634876   16.934933    ( 0.0000,  0.0000,  0.0000)
  30 Ir     1.433521    4.051295   16.957844    ( 0.0000,  0.0000,  0.0000)
  31 Pt     4.199624    4.036475   16.963796    ( 0.0000,  0.0000,  0.0000)
  32 Pd     7.078372    4.087905   16.926978    ( 0.0000,  0.0000,  0.0000)
  33 Pd     2.835145    6.565739   16.942227    ( 0.0000,  0.0000,  0.0000)
  34 Ag     5.671402    6.514692   16.972448    ( 0.0000,  0.0000,  0.0000)
  35 Pt     8.532155    6.526930   16.941453    ( 0.0000,  0.0000,  0.0000)
  36 Pt    -0.024550    0.049613   19.223950    ( 0.0000,  0.0000,  0.0000)
  37 Pt     2.863678    0.010177   19.250741    ( 0.0000,  0.0000,  0.0000)
  38 Pt     5.656003   -0.019242   19.213825    ( 0.0000,  0.0000,  0.0000)
  39 Pt     1.446603    2.439586   19.303172    ( 0.0000,  0.0000,  0.0000)
  40 Pd     4.210188    2.457058   19.389788    ( 0.0000,  0.0000,  0.0000)
  41 Pd     7.118043    2.431939   19.230047    ( 0.0000,  0.0000,  0.0000)
  42 Pt     2.807171    4.928026   19.283190    ( 0.0000,  0.0000,  0.0000)
  43 Ag     5.684401    4.931366   19.435231    ( 0.0000,  0.0000,  0.0000)
  44 Pt     8.540020    4.944037   19.171904    ( 0.0000,  0.0000,  0.0000)
  45 H      2.793549    3.274881   20.291051    ( 0.0000,  0.0000,  0.0000)

Unit cell:
           periodic     x           y           z      points  spacing
  1. axis:    yes    8.517266    0.000000    0.000000    40     0.1844
  2. axis:    yes    4.258633    7.376169    0.000000    40     0.1844
  3. axis:    no     0.000000    0.000000   29.270571   140     0.2091

  Lengths:   8.517266   8.517266  29.270571
  Angles:   90.000000  90.000000  60.000000

Effective grid spacing dv^(1/3) = 0.2017

     iter     time        total  log10-change:
                         energy  eigst   dens
iter:   1 22:10:01  -200.274555  -4.52
iter:   2 22:11:11  -200.526506  -4.67  -3.01
iter:   3 22:12:21  -200.483731c -4.78  -2.52
iter:   4 22:13:32  -200.254404c -5.47  -2.51
iter:   5 22:14:42  -200.251026c -6.54  -3.39
iter:   6 22:15:52  -200.250326c -6.97  -3.60
iter:   7 22:17:03  -200.250006c -6.95  -3.96
iter:   8 22:18:12  -200.249721c -7.15  -4.16c
iter:   9 22:19:22  -200.250027c -7.94c -4.18c

Converged after 9 iterations.

Dipole moment: (26.442457, 12.246684, -0.013494) |e|*Ang

Energy contributions relative to reference atoms: (reference = -14172748.147892)

Kinetic:       -331.670692
Potential:     +184.211702
External:        +0.000000
XC:             -40.590760
Entropy (-ST):   -2.352703
Local:          -11.023925
--------------------------
Free energy:   -201.426378
Extrapolated:  -200.250027

Showing only first 2 kpts
 Kpt  Band  Eigenvalues  Occupancy
  0   361      0.66388    0.97093
  0   362      0.67693    0.90596
  0   363      0.71579    0.71911
  0   364      0.72348    0.68409

  1   361      0.53456    1.54941
  1   362      0.55295    1.48199
  1   363      0.59443    1.30782
  1   364      0.62467    1.16543


Fermi level: 0.65806

No gap

Forces in eV/Ang:
  0 Pd    0.00770   -0.01129   -0.26301
  1 Pt    0.30436   -0.51994    0.37832
  2 Pt   -0.33946   -0.14805    0.01016
  3 Pd   -0.41295    0.17896   -0.08268
  4 Pd    0.21640   -0.22447   -0.24255
  5 Pt    0.22799    0.30423   -0.17784
  6 Pd   -0.22004    0.22854   -0.10831
  7 Pt    0.53448    0.17619    0.09301
  8 Ru   -0.46223    0.07938    1.36677
  9 Pd   -0.20700    0.16551    0.18068
 10 Pt    0.28041    0.00727   -0.22541
 11 Pd    0.06110    0.05275   -0.08407
 12 Pd    0.08275    0.10709    0.01189
 13 Pt   -0.19351   -0.16331    0.13982
 14 Ag    0.06629   -0.07103   -0.00640
 15 Ag    0.00141   -0.08130   -0.11478
 16 Ag   -0.06222   -0.06409    0.07122
 17 Pt    0.02309    0.21173   -0.58025
 18 Pt    0.00254   -0.00833    0.02058
 19 Pt   -0.00440   -0.02027    0.01616
 20 Ru    0.05979    0.00264    0.12967
 21 Pt   -0.00541   -0.00617   -0.01366
 22 Pd    0.00359   -0.00893   -0.00731
 23 Pt    0.04034   -0.00214    0.00494
 24 Ag   -0.01509    0.00134    0.04499
 25 Pt    0.02320    0.01149    0.00356
 26 Ag    0.03782   -0.03708    0.04222
 27 Pt   -0.06195   -0.11599   -0.01942
 28 Pd   -0.01419    0.02724    0.17606
 29 Pd    0.03246   -0.03921   -0.01677
 30 Ir    0.08978   -0.02337    0.17483
 31 Pt   -0.09090   -0.00702    0.20787
 32 Pd   -0.03530    0.01783   -0.00771
 33 Pd    0.02269   -0.02534   -0.05760
 34 Ag   -0.01917   -0.01116   -0.04070
 35 Pt   -0.00062    0.01802   -0.11553
 36 Pt    0.05175    0.09772    0.08099
 37 Pt    0.01129    0.09687    0.03280
 38 Pt    0.01774    0.00818    0.08324
 39 Pt   -0.36534   -0.20926   -0.25088
 40 Pd    0.40899   -0.21813   -0.17369
 41 Pd    0.05129    0.00743    0.04374
 42 Pt   -0.04894    0.23907   -0.23523
 43 Ag   -0.05810   -0.04513    0.05158
 44 Pt    0.09310   -0.08161    0.04059
 45 H    -0.18026    0.15231   -0.45285

System changes: positions 

Initializing position-dependent things.

Density initialized from wave functions
                                            
                                            
                                            
                                            
                                            
                H       Ag                  
                 Pt            Pt           
            Pt    PPd   AgPd   Pt           
       Pt     Pt     Pt                     
             Ir    Pt      Pd               
        Pt     Pd     Pd                    
                     Ag     Pt     Ag       
                Pt     Pd     Pt            
                  Pt     Ru                 
           Pt    Ag     Ag    Pt            
            Pd     Pt     Ag                
                  Pd     Pt    Ru           
       Pd    PPt    PPd    Pt               
                                            
        Pd     Pt     Pt                    
                                            
                                            
                                            
                                            

Positions:
   0 Pd     0.000000    1.639149   10.000000    ( 0.0000,  0.0000,  0.0000)
   1 Pt     2.839089    1.639149   10.000000    ( 0.0000,  0.0000,  0.0000)
   2 Pt     5.678177    1.639149   10.000000    ( 0.0000,  0.0000,  0.0000)
   3 Pd     1.419544    4.097872   10.000000    ( 0.0000,  0.0000,  0.0000)
   4 Pd     4.258633    4.097872   10.000000    ( 0.0000,  0.0000,  0.0000)
   5 Pt     7.097722    4.097872   10.000000    ( 0.0000,  0.0000,  0.0000)
   6 Pd     2.839089    6.556595   10.000000    ( 0.0000,  0.0000,  0.0000)
   7 Pt     5.678177    6.556595   10.000000    ( 0.0000,  0.0000,  0.0000)
   8 Ru     8.517266    6.556595   10.000000    ( 0.0000,  0.0000,  0.0000)
   9 Pd     0.000000    0.000000   12.317643    ( 0.0000,  0.0000,  0.0000)
  10 Pt     2.839089    0.000000   12.317643    ( 0.0000,  0.0000,  0.0000)
  11 Pd     5.678177    0.000000   12.317643    ( 0.0000,  0.0000,  0.0000)
  12 Pd     1.419544    2.458723   12.317643    ( 0.0000,  0.0000,  0.0000)
  13 Pt     4.258633    2.458723   12.317643    ( 0.0000,  0.0000,  0.0000)
  14 Ag     7.097722    2.458723   12.317643    ( 0.0000,  0.0000,  0.0000)
  15 Ag     2.839089    4.917446   12.317643    ( 0.0000,  0.0000,  0.0000)
  16 Ag     5.678177    4.917446   12.317643    ( 0.0000,  0.0000,  0.0000)
  17 Pt     8.517266    4.917446   12.317643    ( 0.0000,  0.0000,  0.0000)
  18 Pt     1.378151    0.804917   14.583330    ( 0.0000,  0.0000,  0.0000)
  19 Pt     4.334729    0.816196   14.611982    ( 0.0000,  0.0000,  0.0000)
  20 Ru     7.145803    0.898095   14.651197    ( 0.0000,  0.0000,  0.0000)
  21 Pt     2.840886    3.220266   14.667234    ( 0.0000,  0.0000,  0.0000)
  22 Pd     5.684515    3.245478   14.664016    ( 0.0000,  0.0000,  0.0000)
  23 Pt     8.528819    3.270460   14.657009    ( 0.0000,  0.0000,  0.0000)
  24 Ag     4.280193    5.722377   14.649875    ( 0.0000,  0.0000,  0.0000)
  25 Pt     7.166612    5.768604   14.620954    ( 0.0000,  0.0000,  0.0000)
  26 Ag     9.995494    5.740563   14.636677    ( 0.0000,  0.0000,  0.0000)
  27 Pt     0.012204    1.669788   16.880912    ( 0.0000,  0.0000,  0.0000)
  28 Pd     2.849244    1.598225   16.915476    ( 0.0000,  0.0000,  0.0000)
  29 Pd     5.676765    1.631597   16.933247    ( 0.0000,  0.0000,  0.0000)
  30 Ir     1.442946    4.048229   16.972328    ( 0.0000,  0.0000,  0.0000)
  31 Pt     4.187966    4.033799   16.982468    ( 0.0000,  0.0000,  0.0000)
  32 Pd     7.074525    4.088322   16.924867    ( 0.0000,  0.0000,  0.0000)
  33 Pd     2.836811    6.559476   16.942446    ( 0.0000,  0.0000,  0.0000)
  34 Ag     5.669340    6.511883   16.967827    ( 0.0000,  0.0000,  0.0000)
  35 Pt     8.533275    6.526577   16.927197    ( 0.0000,  0.0000,  0.0000)
  36 Pt    -0.020421    0.059153   19.231939    ( 0.0000,  0.0000,  0.0000)
  37 Pt     2.866157    0.015787   19.254546    ( 0.0000,  0.0000,  0.0000)
  38 Pt     5.656859   -0.020096   19.221278    ( 0.0000,  0.0000,  0.0000)
  39 Pt     1.415050    2.420697   19.302572    ( 0.0000,  0.0000,  0.0000)
  40 Pd     4.247778    2.438437   19.396030    ( 0.0000,  0.0000,  0.0000)
  41 Pd     7.123369    2.433723   19.233410    ( 0.0000,  0.0000,  0.0000)
  42 Pt     2.803944    4.949612   19.283103    ( 0.0000,  0.0000,  0.0000)
  43 Ag     5.678166    4.927155   19.444390    ( 0.0000,  0.0000,  0.0000)
  44 Pt     8.548126    4.937423   19.175271    ( 0.0000,  0.0000,  0.0000)
  45 H      2.772692    3.291114   20.179087    ( 0.0000,  0.0000,  0.0000)

Unit cell:
           periodic     x           y           z      points  spacing
  1. axis:    yes    8.517266    0.000000    0.000000    40     0.1844
  2. axis:    yes    4.258633    7.376169    0.000000    40     0.1844
  3. axis:    no     0.000000    0.000000   29.270571   140     0.2091

  Lengths:   8.517266   8.517266  29.270571
  Angles:   90.000000  90.000000  60.000000

Effective grid spacing dv^(1/3) = 0.2017

     iter     time        total  log10-change:
                         energy  eigst   dens
iter:   1 22:20:54  -200.943894  -3.18
iter:   2 22:22:04  -210.517108  -3.26  -2.35
iter:   3 22:23:13  -201.281360  -3.65  -1.78
iter:   4 22:24:23  -200.396003  -4.29  -2.27
iter:   5 22:25:33  -200.347276  -5.21  -2.97
iter:   6 22:26:43  -200.349539c -5.72  -3.19
iter:   7 22:27:52  -200.357774c -5.84  -3.08
iter:   8 22:29:01  -200.341532c -5.95  -3.13
iter:   9 22:30:08  -200.339470c -5.90  -3.36
iter:  10 22:31:18  -200.339947c -6.06  -3.57
iter:  11 22:32:27  -200.338556c -6.50  -3.63
iter:  12 22:33:36  -200.339045c -6.64  -3.66
iter:  13 22:34:45  -200.339147c -6.93  -3.82
iter:  14 22:35:55  -200.339979c -6.80  -3.68
iter:  15 22:37:04  -200.338646c -7.07  -3.81
iter:  16 22:38:12  -200.339099c -7.21  -4.10c
iter:  17 22:39:22  -200.338717c -7.49c -4.16c

Converged after 17 iterations.

Dipole moment: (27.909133, 11.438595, -0.012116) |e|*Ang

Energy contributions relative to reference atoms: (reference = -14172748.147892)

Kinetic:       -330.554833
Potential:     +183.165454
External:        +0.000000
XC:             -40.753804
Entropy (-ST):   -2.349039
Local:          -11.021015
--------------------------
Free energy:   -201.513236
Extrapolated:  -200.338717

Showing only first 2 kpts
 Kpt  Band  Eigenvalues  Occupancy
  0   361      0.66468    0.97150
  0   362      0.67754    0.90746
  0   363      0.71530    0.72558
  0   364      0.72713    0.67185

  1   361      0.53372    1.55547
  1   362      0.55541    1.47604
  1   363      0.59391    1.31434
  1   364      0.62646    1.16116


Fermi level: 0.65898

No gap

Forces in eV/Ang:
  0 Pd    0.00954   -0.01101   -0.26296
  1 Pt    0.30507   -0.51947    0.38105
  2 Pt   -0.34345   -0.14964    0.00749
  3 Pd   -0.41342    0.18052   -0.08195
  4 Pd    0.21526   -0.22536   -0.24422
  5 Pt    0.22983    0.30708   -0.18210
  6 Pd   -0.22251    0.22779   -0.10598
  7 Pt    0.53803    0.17633    0.08922
  8 Ru   -0.46385    0.07745    1.36118
  9 Pd   -0.19985    0.16052    0.18837
 10 Pt    0.28150    0.01038   -0.21272
 11 Pd    0.05942    0.04495   -0.07258
 12 Pd    0.08287    0.09930    0.01268
 13 Pt   -0.19414   -0.17420    0.14509
 14 Ag    0.07120   -0.07897    0.00601
 15 Ag    0.00196   -0.07538   -0.11468
 16 Ag   -0.06336   -0.05640    0.08490
 17 Pt    0.03048    0.21524   -0.56827
 18 Pt    0.05491   -0.00070    0.00080
 19 Pt   -0.02330    0.01464    0.00118
 20 Ru    0.02026    0.02371    0.12397
 21 Pt    0.02300   -0.03559    0.07301
 22 Pd   -0.03982    0.00876    0.03167
 23 Pt    0.05386    0.02907    0.03406
 24 Ag    0.01070   -0.05945    0.02232
 25 Pt    0.00468   -0.01383   -0.03899
 26 Ag    0.02205   -0.06164    0.01123
 27 Pt   -0.08512   -0.07560   -0.08401
 28 Pd    0.00454    0.02002    0.14599
 29 Pd    0.02807   -0.04524   -0.01840
 30 Ir   -0.00472   -0.03131    0.08603
 31 Pt    0.00719   -0.03871    0.13205
 32 Pd   -0.00629    0.01577    0.01915
 33 Pd    0.00230    0.04785   -0.04346
 34 Ag    0.01755   -0.01176    0.05217
 35 Pt   -0.00702    0.00515    0.07591
 36 Pt    0.02667   -0.02467    0.03282
 37 Pt    0.03037    0.00403   -0.03591
 38 Pt   -0.02249   -0.01052   -0.00104
 39 Pt   -0.16317   -0.13387   -0.31863
 40 Pd    0.24137   -0.18671   -0.25456
 41 Pd   -0.00088    0.02556    0.02674
 42 Pt   -0.01365    0.14414   -0.25095
 43 Ag   -0.00777    0.01431   -0.00256
 44 Pt    0.00656    0.00611   -0.04139
 45 H    -0.10512    0.15627   -0.16138

System changes: positions 

Initializing position-dependent things.

Density initialized from wave functions
                                            
                                            
                                            
                                            
                                            
                HPt     Ag                  
                               Pt           
            Pt    PPd   AgPd   Pt           
       Pt     Pt     Pt                     
             Ir    Pt      Pd               
        Pt     Pd     Pd                    
                     Ag     Pt     Ag       
                Pt     Pd     Pt            
           Pt     Pt     Ru                 
                 Ag     Ag    Pt            
            Pd     Pt     Ag                
                  Pd     Pt    Ru           
       Pd    PPt    PPd    Pt               
                                            
        Pd     Pt     Pt                    
                                            
                                            
                                            
                                            

Positions:
   0 Pd     0.000000    1.639149   10.000000    ( 0.0000,  0.0000,  0.0000)
   1 Pt     2.839089    1.639149   10.000000    ( 0.0000,  0.0000,  0.0000)
   2 Pt     5.678177    1.639149   10.000000    ( 0.0000,  0.0000,  0.0000)
   3 Pd     1.419544    4.097872   10.000000    ( 0.0000,  0.0000,  0.0000)
   4 Pd     4.258633    4.097872   10.000000    ( 0.0000,  0.0000,  0.0000)
   5 Pt     7.097722    4.097872   10.000000    ( 0.0000,  0.0000,  0.0000)
   6 Pd     2.839089    6.556595   10.000000    ( 0.0000,  0.0000,  0.0000)
   7 Pt     5.678177    6.556595   10.000000    ( 0.0000,  0.0000,  0.0000)
   8 Ru     8.517266    6.556595   10.000000    ( 0.0000,  0.0000,  0.0000)
   9 Pd     0.000000    0.000000   12.317643    ( 0.0000,  0.0000,  0.0000)
  10 Pt     2.839089    0.000000   12.317643    ( 0.0000,  0.0000,  0.0000)
  11 Pd     5.678177    0.000000   12.317643    ( 0.0000,  0.0000,  0.0000)
  12 Pd     1.419544    2.458723   12.317643    ( 0.0000,  0.0000,  0.0000)
  13 Pt     4.258633    2.458723   12.317643    ( 0.0000,  0.0000,  0.0000)
  14 Ag     7.097722    2.458723   12.317643    ( 0.0000,  0.0000,  0.0000)
  15 Ag     2.839089    4.917446   12.317643    ( 0.0000,  0.0000,  0.0000)
  16 Ag     5.678177    4.917446   12.317643    ( 0.0000,  0.0000,  0.0000)
  17 Pt     8.517266    4.917446   12.317643    ( 0.0000,  0.0000,  0.0000)
  18 Pt     1.379014    0.804737   14.585808    ( 0.0000,  0.0000,  0.0000)
  19 Pt     4.334907    0.815014   14.613346    ( 0.0000,  0.0000,  0.0000)
  20 Ru     7.151284    0.897710   14.660685    ( 0.0000,  0.0000,  0.0000)
  21 Pt     2.841630    3.218528   14.667839    ( 0.0000,  0.0000,  0.0000)
  22 Pd     5.685154    3.244159   14.664186    ( 0.0000,  0.0000,  0.0000)
  23 Pt     8.533095    3.269875   14.659427    ( 0.0000,  0.0000,  0.0000)
  24 Ag     4.279722    5.721011   14.654240    ( 0.0000,  0.0000,  0.0000)
  25 Pt     7.169023    5.768941   14.620663    ( 0.0000,  0.0000,  0.0000)
  26 Ag     9.999344    5.736179   14.639819    ( 0.0000,  0.0000,  0.0000)
  27 Pt     0.007375    1.661199   16.877921    ( 0.0000,  0.0000,  0.0000)
  28 Pd     2.848439    1.601456   16.932535    ( 0.0000,  0.0000,  0.0000)
  29 Pd     5.680260    1.627617   16.930976    ( 0.0000,  0.0000,  0.0000)
  30 Ir     1.450480    4.045070   16.987052    ( 0.0000,  0.0000,  0.0000)
  31 Pt     4.179103    4.031183   17.001422    ( 0.0000,  0.0000,  0.0000)
  32 Pd     7.071404    4.089493   16.923786    ( 0.0000,  0.0000,  0.0000)
  33 Pd     2.838315    6.556362   16.939716    ( 0.0000,  0.0000,  0.0000)
  34 Ag     5.668216    6.509700   16.965349    ( 0.0000,  0.0000,  0.0000)
  35 Pt     8.533646    6.526851   16.918001    ( 0.0000,  0.0000,  0.0000)
  36 Pt    -0.015944    0.066281   19.240712    ( 0.0000,  0.0000,  0.0000)
  37 Pt     2.868585    0.021860   19.258135    ( 0.0000,  0.0000,  0.0000)
  38 Pt     5.657153   -0.020870   19.228838    ( 0.0000,  0.0000,  0.0000)
  39 Pt     1.382875    2.400870   19.287777    ( 0.0000,  0.0000,  0.0000)
  40 Pd     4.285930    2.417672   19.389454    ( 0.0000,  0.0000,  0.0000)
  41 Pd     7.127744    2.435753   19.238183    ( 0.0000,  0.0000,  0.0000)
  42 Pt     2.800565    4.972292   19.270826    ( 0.0000,  0.0000,  0.0000)
  43 Ag     5.672662    4.923841   19.451565    ( 0.0000,  0.0000,  0.0000)
  44 Pt     8.555633    4.931580   19.178406    ( 0.0000,  0.0000,  0.0000)
  45 H      2.753845    3.308173   20.105888    ( 0.0000,  0.0000,  0.0000)

Unit cell:
           periodic     x           y           z      points  spacing
  1. axis:    yes    8.517266    0.000000    0.000000    40     0.1844
  2. axis:    yes    4.258633    7.376169    0.000000    40     0.1844
  3. axis:    no     0.000000    0.000000   29.270571   140     0.2091

  Lengths:   8.517266   8.517266  29.270571
  Angles:   90.000000  90.000000  60.000000

Effective grid spacing dv^(1/3) = 0.2017

     iter     time        total  log10-change:
                         energy  eigst   dens
iter:   1 22:40:56  -200.840105  -3.20
iter:   2 22:42:08  -213.131965  -3.30  -2.38
iter:   3 22:43:20  -200.830079  -3.65  -1.70
iter:   4 22:44:29  -200.414482  -4.49  -2.48
iter:   5 22:45:39  -200.389267  -5.37  -2.89
iter:   6 22:46:48  -200.379989c -5.73  -3.12
iter:   7 22:47:57  -200.382659c -6.16  -3.15
iter:   8 22:49:07  -200.392030c -5.93  -3.20
iter:   9 22:50:17  -200.374214c -5.69  -3.05
iter:  10 22:51:26  -200.375336c -6.29  -3.53
iter:  11 22:52:36  -200.374125c -6.62  -3.65
iter:  12 22:53:45  -200.374320c -6.54  -3.53
iter:  13 22:54:54  -200.374765c -6.79  -3.86
iter:  14 22:56:04  -200.375352c -6.67  -3.85
iter:  15 22:57:14  -200.374178c -7.08  -3.72
iter:  16 22:58:24  -200.374658c -7.16  -4.05c
iter:  17 22:59:34  -200.373938c -7.41c -3.99
iter:  18 23:00:45  -200.374262c -7.67c -4.22c

Converged after 18 iterations.

Dipole moment: (29.383383, 10.796913, -0.005309) |e|*Ang

Energy contributions relative to reference atoms: (reference = -14172748.147892)

Kinetic:       -329.366540
Potential:     +182.101180
External:        +0.000000
XC:             -40.917124
Entropy (-ST):   -2.344094
Local:          -11.019730
--------------------------
Free energy:   -201.546309
Extrapolated:  -200.374262

Showing only first 2 kpts
 Kpt  Band  Eigenvalues  Occupancy
  0   361      0.66732    0.97169
  0   362      0.68004    0.90835
  0   363      0.71732    0.72865
  0   364      0.73173    0.66329

  1   361      0.53712    1.55298
  1   362      0.55999    1.46864
  1   363      0.59542    1.31960
  1   364      0.62824    1.16554


Fermi level: 0.66166

No gap

Forces in eV/Ang:
  0 Pd    0.00995   -0.01122   -0.26299
  1 Pt    0.30374   -0.51738    0.38202
  2 Pt   -0.34323   -0.14797    0.00788
  3 Pd   -0.41330    0.17959   -0.08268
  4 Pd    0.21566   -0.22499   -0.24492
  5 Pt    0.22889    0.30675   -0.18390
  6 Pd   -0.22088    0.22809   -0.10491
  7 Pt    0.53663    0.17560    0.08745
  8 Ru   -0.46634    0.07530    1.35694
  9 Pd   -0.19786    0.15820    0.20158
 10 Pt    0.28290    0.01297   -0.21498
 11 Pd    0.05823    0.04094   -0.06626
 12 Pd    0.08388    0.09626    0.01578
 13 Pt   -0.19495   -0.17679    0.14885
 14 Ag    0.07601   -0.09034    0.02805
 15 Ag    0.00528   -0.07531   -0.11303
 16 Ag   -0.06495   -0.05394    0.09032
 17 Pt    0.03587    0.21406   -0.56583
 18 Pt    0.06725   -0.00564   -0.01280
 19 Pt   -0.02348    0.01930   -0.00725
 20 Ru   -0.01033    0.02292    0.06672
 21 Pt    0.04122   -0.05570    0.11380
 22 Pd   -0.04978    0.01533    0.03368
 23 Pt    0.03216    0.02821    0.01852
 24 Ag    0.03112   -0.07602   -0.00348
 25 Pt   -0.00906   -0.02478   -0.05551
 26 Ag    0.00267   -0.04334   -0.01899
 27 Pt   -0.06920   -0.03582   -0.08674
 28 Pd    0.01500   -0.02587    0.02226
 29 Pd    0.01560   -0.03451    0.00040
 30 Ir   -0.07370   -0.01725   -0.01642
 31 Pt    0.10833   -0.03182    0.02322
 32 Pd    0.01479   -0.00742    0.04547
 33 Pd   -0.00469    0.09665   -0.02668
 34 Ag    0.03079    0.00364    0.10849
 35 Pt   -0.00771    0.00644    0.16969
 36 Pt   -0.02504   -0.13265   -0.03620
 37 Pt    0.01042   -0.10302   -0.06517
 38 Pt   -0.01630   -0.01286   -0.07053
 39 Pt    0.15347    0.05693   -0.25760
 40 Pd   -0.05404   -0.02794   -0.24462
 41 Pd   -0.04836    0.02092   -0.01251
 42 Pt    0.02630   -0.06364   -0.18501
 43 Ag    0.04823    0.05662   -0.03459
 44 Pt   -0.09936    0.06314   -0.08440
 45 H    -0.05150    0.12089   -0.11488

System changes: positions 

Initializing position-dependent things.

Density initialized from wave functions
                                            
                                            
                                            
                                            
                                            
                HPt     Ag                  
                               Pt           
            Pt    PPd   AgPd   Pt           
       Pt     Pt     Pt                     
             Ir    Pt      Pd               
        Pt     Pd     Pd                    
                     Ag     Pt     Ag       
                Pt     Pd     Pt            
           Pt     Pt     Ru                 
                 Ag     Ag    Pt            
            Pd     Pt     Ag                
                  Pd     Pt    Ru           
       Pd    PPt    PPd    Pt               
                                            
        Pd     Pt     Pt                    
                                            
                                            
                                            
                                            

Positions:
   0 Pd     0.000000    1.639149   10.000000    ( 0.0000,  0.0000,  0.0000)
   1 Pt     2.839089    1.639149   10.000000    ( 0.0000,  0.0000,  0.0000)
   2 Pt     5.678177    1.639149   10.000000    ( 0.0000,  0.0000,  0.0000)
   3 Pd     1.419544    4.097872   10.000000    ( 0.0000,  0.0000,  0.0000)
   4 Pd     4.258633    4.097872   10.000000    ( 0.0000,  0.0000,  0.0000)
   5 Pt     7.097722    4.097872   10.000000    ( 0.0000,  0.0000,  0.0000)
   6 Pd     2.839089    6.556595   10.000000    ( 0.0000,  0.0000,  0.0000)
   7 Pt     5.678177    6.556595   10.000000    ( 0.0000,  0.0000,  0.0000)
   8 Ru     8.517266    6.556595   10.000000    ( 0.0000,  0.0000,  0.0000)
   9 Pd     0.000000    0.000000   12.317643    ( 0.0000,  0.0000,  0.0000)
  10 Pt     2.839089    0.000000   12.317643    ( 0.0000,  0.0000,  0.0000)
  11 Pd     5.678177    0.000000   12.317643    ( 0.0000,  0.0000,  0.0000)
  12 Pd     1.419544    2.458723   12.317643    ( 0.0000,  0.0000,  0.0000)
  13 Pt     4.258633    2.458723   12.317643    ( 0.0000,  0.0000,  0.0000)
  14 Ag     7.097722    2.458723   12.317643    ( 0.0000,  0.0000,  0.0000)
  15 Ag     2.839089    4.917446   12.317643    ( 0.0000,  0.0000,  0.0000)
  16 Ag     5.678177    4.917446   12.317643    ( 0.0000,  0.0000,  0.0000)
  17 Pt     8.517266    4.917446   12.317643    ( 0.0000,  0.0000,  0.0000)
  18 Pt     1.380099    0.804616   14.585820    ( 0.0000,  0.0000,  0.0000)
  19 Pt     4.334429    0.815152   14.613427    ( 0.0000,  0.0000,  0.0000)
  20 Ru     7.151757    0.898251   14.663302    ( 0.0000,  0.0000,  0.0000)
  21 Pt     2.842193    3.217560   14.669670    ( 0.0000,  0.0000,  0.0000)
  22 Pd     5.684358    3.244302   14.664718    ( 0.0000,  0.0000,  0.0000)
  23 Pt     8.534066    3.270320   14.659888    ( 0.0000,  0.0000,  0.0000)
  24 Ag     4.280055    5.719775   14.654640    ( 0.0000,  0.0000,  0.0000)
  25 Pt     7.169160    5.768659   14.619873    ( 0.0000,  0.0000,  0.0000)
  26 Ag     9.999694    5.735043   14.639984    ( 0.0000,  0.0000,  0.0000)
  27 Pt     0.005622    1.659542   16.876029    ( 0.0000,  0.0000,  0.0000)
  28 Pd     2.848529    1.601435   16.934553    ( 0.0000,  0.0000,  0.0000)
  29 Pd     5.680868    1.626657   16.930596    ( 0.0000,  0.0000,  0.0000)
  30 Ir     1.450160    4.044532   16.988451    ( 0.0000,  0.0000,  0.0000)
  31 Pt     4.179865    4.030578   17.003736    ( 0.0000,  0.0000,  0.0000)
  32 Pd     7.071356    4.089602   16.924344    ( 0.0000,  0.0000,  0.0000)
  33 Pd     2.838419    6.557655   16.938600    ( 0.0000,  0.0000,  0.0000)
  34 Ag     5.668586    6.509636   16.966652    ( 0.0000,  0.0000,  0.0000)
  35 Pt     8.533482    6.527065   16.919641    ( 0.0000,  0.0000,  0.0000)
  36 Pt    -0.015789    0.065039   19.241446    ( 0.0000,  0.0000,  0.0000)
  37 Pt     2.868898    0.021374   19.257983    ( 0.0000,  0.0000,  0.0000)
  38 Pt     5.656981   -0.021107   19.228983    ( 0.0000,  0.0000,  0.0000)
  39 Pt     1.381269    2.399448   19.281142    ( 0.0000,  0.0000,  0.0000)
  40 Pd     4.289384    2.414945   19.384096    ( 0.0000,  0.0000,  0.0000)
  41 Pd     7.127501    2.436231   19.238858    ( 0.0000,  0.0000,  0.0000)
  42 Pt     2.800514    4.974046   19.265600    ( 0.0000,  0.0000,  0.0000)
  43 Ag     5.672718    4.924247   19.451777    ( 0.0000,  0.0000,  0.0000)
  44 Pt     8.555188    4.931729   19.177924    ( 0.0000,  0.0000,  0.0000)
  45 H      2.751477    3.311570   20.102573    ( 0.0000,  0.0000,  0.0000)

Unit cell:
           periodic     x           y           z      points  spacing
  1. axis:    yes    8.517266    0.000000    0.000000    40     0.1844
  2. axis:    yes    4.258633    7.376169    0.000000    40     0.1844
  3. axis:    no     0.000000    0.000000   29.270571   140     0.2091

  Lengths:   8.517266   8.517266  29.270571
  Angles:   90.000000  90.000000  60.000000

Effective grid spacing dv^(1/3) = 0.2017

     iter     time        total  log10-change:
                         energy  eigst   dens
iter:   1 23:02:17  -201.837106  -4.33
iter:   2 23:03:25  -247.198235  -2.75  -2.12
iter:   3 23:04:36  -202.929559  -3.10  -1.44
iter:   4 23:05:45  -200.661537  -4.11  -2.07
iter:   5 23:06:54  -200.480338  -5.08  -2.54
iter:   6 23:08:04  -200.386674c -5.23  -2.76
iter:   7 23:09:14  -200.385213c -5.84  -3.47
iter:   8 23:10:24  -200.381408c -6.06  -3.66
iter:   9 23:11:35  -200.381972c -6.49  -3.62
iter:  10 23:12:45  -200.381887c -6.78  -3.75
iter:  11 23:13:54  -200.381375c -6.99  -3.68
iter:  12 23:15:03  -200.380698c -6.90  -3.93
iter:  13 23:16:12  -200.380729c -7.55c -4.21c

Converged after 13 iterations.

Dipole moment: (29.508951, 10.897222, -0.007021) |e|*Ang

Energy contributions relative to reference atoms: (reference = -14172748.147892)

Kinetic:       -328.928810
Potential:     +181.681030
External:        +0.000000
XC:             -40.936687
Entropy (-ST):   -2.343390
Local:          -11.024567
--------------------------
Free energy:   -201.552424
Extrapolated:  -200.380729

Showing only first 2 kpts
 Kpt  Band  Eigenvalues  Occupancy
  0   361      0.66658    0.97164
  0   362      0.67935    0.90806
  0   363      0.71690    0.72714
  0   364      0.73063    0.66487

  1   361      0.53670    1.55184
  1   362      0.55945    1.46784
  1   363      0.59478    1.31912
  1   364      0.62675    1.16917


Fermi level: 0.66091

No gap

Forces in eV/Ang:
  0 Pd    0.00809   -0.00923   -0.26355
  1 Pt    0.30139   -0.51804    0.37532
  2 Pt   -0.33899   -0.14790    0.01010
  3 Pd   -0.41186    0.17950   -0.08560
  4 Pd    0.21441   -0.22195   -0.24433
  5 Pt    0.22741    0.30601   -0.18456
  6 Pd   -0.21989    0.22649   -0.10296
  7 Pt    0.53659    0.17244    0.08514
  8 Ru   -0.46689    0.07425    1.34602
  9 Pd   -0.20458    0.15743    0.20554
 10 Pt    0.28197    0.01257   -0.21835
 11 Pd    0.06478    0.04201   -0.06520
 12 Pd    0.08054    0.09897    0.01824
 13 Pt   -0.18784   -0.17157    0.15275
 14 Ag    0.07399   -0.09432    0.03266
 15 Ag    0.00776   -0.07395   -0.10521
 16 Ag   -0.06770   -0.05818    0.09321
 17 Pt    0.03826    0.20999   -0.56386
 18 Pt    0.04817   -0.00964   -0.00563
 19 Pt   -0.01195    0.00586    0.00067
 20 Ru   -0.01181    0.01410    0.04814
 21 Pt    0.03277   -0.03555    0.10184
 22 Pd   -0.03295    0.01511    0.02287
 23 Pt    0.01973    0.02496    0.01444
 24 Ag    0.02578   -0.06513   -0.00544
 25 Pt   -0.00439   -0.02763   -0.02733
 26 Ag    0.00053   -0.03280   -0.01383
 27 Pt   -0.04553   -0.01863   -0.06451
 28 Pd    0.01533   -0.03335   -0.01401
 29 Pd    0.00398   -0.02053    0.00203
 30 Ir   -0.06849   -0.00186   -0.03495
 31 Pt    0.09987   -0.02253   -0.01214
 32 Pd    0.01984   -0.00978    0.02874
 33 Pd   -0.00848    0.07113   -0.03354
 34 Ag    0.02989    0.00426    0.08662
 35 Pt   -0.00730   -0.00209    0.13376
 36 Pt   -0.02431   -0.10578   -0.00268
 37 Pt    0.00643   -0.08177   -0.01370
 38 Pt   -0.01456   -0.01457   -0.02912
 39 Pt    0.18088    0.07328   -0.18567
 40 Pd   -0.10363   -0.00091   -0.18642
 41 Pd   -0.03196    0.00190    0.01186
 42 Pt    0.01480   -0.09726   -0.12051
 43 Ag    0.04267    0.04692   -0.00591
 44 Pt   -0.08263    0.05671   -0.04011
 45 H    -0.05105    0.11720   -0.13896

System changes: positions 

Initializing position-dependent things.

Density initialized from wave functions
                                             
                                             
                                             
                                             
                                             
                                             
                HPt     Ag     Pt            
            Pt     Pd     Pd                 
                  Pd     Ag     Pt           
       Pt    IPt    PPt    Pd                
                                             
        Pt     Pd    APd    Pt     Ag        
                Pt     Pd     Pt             
                                             
           Pt    APt    ARu    Pt            
                                             
            Pd    PPt    PAg    Ru           
       Pd     Pt     Pd                      
             Pd     Pd     Pt                
        Pd     Pt     Pt                     
                                             
                                             
                                             
                                             
                                             

Positions:
   0 Pd     0.000000    1.639149   10.000000    ( 0.0000,  0.0000,  0.0000)
   1 Pt     2.839089    1.639149   10.000000    ( 0.0000,  0.0000,  0.0000)
   2 Pt     5.678177    1.639149   10.000000    ( 0.0000,  0.0000,  0.0000)
   3 Pd     1.419544    4.097872   10.000000    ( 0.0000,  0.0000,  0.0000)
   4 Pd     4.258633    4.097872   10.000000    ( 0.0000,  0.0000,  0.0000)
   5 Pt     7.097722    4.097872   10.000000    ( 0.0000,  0.0000,  0.0000)
   6 Pd     2.839089    6.556595   10.000000    ( 0.0000,  0.0000,  0.0000)
   7 Pt     5.678177    6.556595   10.000000    ( 0.0000,  0.0000,  0.0000)
   8 Ru     8.517266    6.556595   10.000000    ( 0.0000,  0.0000,  0.0000)
   9 Pd     0.000000    0.000000   12.317643    ( 0.0000,  0.0000,  0.0000)
  10 Pt     2.839089    0.000000   12.317643    ( 0.0000,  0.0000,  0.0000)
  11 Pd     5.678177    0.000000   12.317643    ( 0.0000,  0.0000,  0.0000)
  12 Pd     1.419544    2.458723   12.317643    ( 0.0000,  0.0000,  0.0000)
  13 Pt     4.258633    2.458723   12.317643    ( 0.0000,  0.0000,  0.0000)
[...]
  16 Ag     5.678177    4.917446   12.317643    ( 0.0000,  0.0000,  0.0000)
  17 Pt     8.517266    4.917446   12.317643    ( 0.0000,  0.0000,  0.0000)
  18 Pt     1.388564    0.802692   14.585767    ( 0.0000,  0.0000,  0.0000)
  19 Pt     4.332179    0.815195   14.613965    ( 0.0000,  0.0000,  0.0000)
  20 Ru     7.152990    0.900816   14.675942    ( 0.0000,  0.0000,  0.0000)
  21 Pt     2.847774    3.210034   14.686055    ( 0.0000,  0.0000,  0.0000)
  22 Pd     5.679620    3.245290   14.668737    ( 0.0000,  0.0000,  0.0000)
  23 Pt     8.539815    3.273581   14.662925    ( 0.0000,  0.0000,  0.0000)
  24 Ag     4.284434    5.708976   14.656660    ( 0.0000,  0.0000,  0.0000)
  25 Pt     7.170014    5.765188   14.615505    ( 0.0000,  0.0000,  0.0000)
  26 Ag    10.001356    5.727602   14.639553    ( 0.0000,  0.0000,  0.0000)
  27 Pt    -0.004579    1.651162   16.863205    ( 0.0000,  0.0000,  0.0000)
  28 Pd     2.850254    1.598029   16.942093    ( 0.0000,  0.0000,  0.0000)
  29 Pd     5.684264    1.620642   16.928472    ( 0.0000,  0.0000,  0.0000)
  30 Ir     1.443409    4.041761   16.990360    ( 0.0000,  0.0000,  0.0000)
  31 Pt     4.191041    4.025788   17.012918    ( 0.0000,  0.0000,  0.0000)
  32 Pd     7.072334    4.088735   16.928356    ( 0.0000,  0.0000,  0.0000)
  33 Pd     2.838627    6.567841   16.931322    ( 0.0000,  0.0000,  0.0000)
  34 Ag     5.672585    6.508903   16.978913    ( 0.0000,  0.0000,  0.0000)
  35 Pt     8.532340    6.526973   16.934715    ( 0.0000,  0.0000,  0.0000)
  36 Pt    -0.017284    0.051644   19.245285    ( 0.0000,  0.0000,  0.0000)
  37 Pt     2.870623    0.011928   19.258428    ( 0.0000,  0.0000,  0.0000)
  38 Pt     5.655518   -0.023978   19.228521    ( 0.0000,  0.0000,  0.0000)
  39 Pt     1.387735    2.397212   19.241701    ( 0.0000,  0.0000,  0.0000)
  40 Pd     4.298201    2.402034   19.350341    ( 0.0000,  0.0000,  0.0000)
  41 Pd     7.124889    2.438248   19.243434    ( 0.0000,  0.0000,  0.0000)
  42 Pt     2.802014    4.975149   19.238548    ( 0.0000,  0.0000,  0.0000)
  43 Ag     5.675809    4.929306   19.455046    ( 0.0000,  0.0000,  0.0000)
  44 Pt     8.546253    4.936313   19.174061    ( 0.0000,  0.0000,  0.0000)
  45 H      2.734049    3.339918   20.048598    ( 0.0000,  0.0000,  0.0000)

Unit cell:
           periodic     x           y           z      points  spacing
  1. axis:    yes    8.517266    0.000000    0.000000    40     0.1844
  2. axis:    yes    4.258633    7.376169    0.000000    40     0.1844
  3. axis:    no     0.000000    0.000000   29.270571   140     0.2091

  Lengths:   8.517266   8.517266  29.270571
  Angles:   90.000000  90.000000  60.000000

Effective grid spacing dv^(1/3) = 0.2017

     iter     time        total  log10-change:
                         energy  eigst   dens
iter:   1 23:34:23  -202.774234  -3.57
iter:   2 23:35:32  -266.227075  -2.54  -2.03
iter:   3 23:36:42  -204.276458  -2.93  -1.36
iter:   4 23:37:54  -200.930770  -3.95  -1.99
iter:   5 23:39:03  -200.506905  -4.80  -2.40
iter:   6 23:40:12  -200.430250  -5.03  -2.76
iter:   7 23:41:21  -200.421190c -5.60  -3.03
iter:   8 23:42:31  -200.413504c -5.69  -3.30
iter:   9 23:43:41  -200.415196c -6.06  -3.32
iter:  10 23:44:50  -200.412216c -6.12  -3.29
iter:  11 23:46:00  -200.410801c -6.34  -3.48
iter:  12 23:47:10  -200.410970c -6.82  -3.76
iter:  13 23:48:20  -200.411993c -6.76  -3.76
iter:  14 23:49:28  -200.410265c -7.07  -3.92
iter:  15 23:50:38  -200.411064c -7.11  -3.91
iter:  16 23:51:47  -200.411141c -7.43c -4.11c

Converged after 16 iterations.

Dipole moment: (29.710787, 12.062783, -0.004064) |e|*Ang

Energy contributions relative to reference atoms: (reference = -14172748.147892)

Kinetic:       -324.590303
Potential:     +177.925381
External:        +0.000000
XC:             -41.559497
Entropy (-ST):   -2.341176
Local:          -11.016135
--------------------------
Free energy:   -201.581729
Extrapolated:  -200.411141

Showing only first 2 kpts
 Kpt  Band  Eigenvalues  Occupancy
  0   361      0.67035    0.97025
  0   362      0.68296    0.90744
  0   363      0.72176    0.72078
  0   364      0.73270    0.67116

  1   361      0.54012    1.55207
  1   362      0.56338    1.46610
  1   363      0.59936    1.31416
  1   364      0.62806    1.17970


Fermi level: 0.66439

No gap

Forces in eV/Ang:
  0 Pd    0.00773   -0.01141   -0.25446
  1 Pt    0.30595   -0.52455    0.39072
  2 Pt   -0.34443   -0.15356    0.01793
  3 Pd   -0.41699    0.18372   -0.07734
  4 Pd    0.21760   -0.22335   -0.24005
  5 Pt    0.22948    0.31493   -0.17771
  6 Pd   -0.22492    0.23173   -0.09821
  7 Pt    0.54696    0.17226    0.09204
  8 Ru   -0.47512    0.07380    1.35913
  9 Pd   -0.20128    0.16371    0.23739
 10 Pt    0.29186    0.01860   -0.22745
 11 Pd    0.05868    0.04471   -0.05724
 12 Pd    0.09266    0.09945    0.05112
 13 Pt   -0.19810   -0.17719    0.17238
 14 Ag    0.07717   -0.10518    0.07643
 15 Ag    0.00990   -0.09368   -0.08909
 16 Ag   -0.06579   -0.06224    0.07894
 17 Pt    0.04583    0.20358   -0.57534
 18 Pt   -0.00645   -0.03732   -0.00632
 19 Pt    0.01285   -0.04704    0.01428
 20 Ru   -0.02364   -0.01346   -0.08898
 21 Pt   -0.00752    0.00754   -0.00503
 22 Pd    0.03680   -0.02219    0.00160
 23 Pt   -0.02151   -0.01261   -0.04195
 24 Ag    0.01725    0.02045    0.01992
 25 Pt    0.01175    0.00923    0.06170
 26 Ag   -0.01537    0.03458    0.01734
 27 Pt    0.04001    0.00763    0.03958
 28 Pd    0.00676   -0.06143   -0.11156
 29 Pd   -0.01298    0.01250   -0.00997
 30 Ir   -0.02439    0.01979   -0.11419
 31 Pt    0.06257    0.02887   -0.08630
 32 Pd    0.00548   -0.02516   -0.00651
 33 Pd    0.01486   -0.00666   -0.04742
 34 Ag   -0.00688   -0.00439   -0.02015
 35 Pt    0.00940   -0.01261   -0.07196
 36 Pt   -0.02006    0.01238   -0.04112
 37 Pt   -0.04137   -0.01823    0.04044
 38 Pt    0.04817   -0.00444   -0.00711
 39 Pt    0.01886   -0.02713   -0.04164
 40 Pd   -0.09166    0.04939   -0.06582
 41 Pd    0.02820   -0.03638   -0.02877
 42 Pt    0.01453    0.00371   -0.03156
 43 Ag    0.00706   -0.02017    0.01735
 44 Pt   -0.03737   -0.02757    0.02789
 45 H    -0.00082    0.06188   -0.06101

System changes: positions 

Initializing position-dependent things.

Density initialized from wave functions
                                             
                                             
                                             
                                             
                                             
                                             
                HPt     Ag     Pt            
            Pt     Pd    APd                 
                  Pd            Pt           
       Pt    IPt    PPt    Pd                
                                             
        Pt     Pd    APd    Pt     Ag        
                Pt     Pd     Pt             
                                             
           Pt    APt    ARu    Pt            
                                             
            Pd    PPt    PAg    Ru           
       Pd     Pt     Pd                      
             Pd     Pd     Pt                
        Pd     Pt     Pt                     
                                             
                                             
                                             
                                             
                                             

Positions:
   0 Pd     0.000000    1.639149   10.000000    ( 0.0000,  0.0000,  0.0000)
   1 Pt     2.839089    1.639149   10.000000    ( 0.0000,  0.0000,  0.0000)
   2 Pt     5.678177    1.639149   10.000000    ( 0.0000,  0.0000,  0.0000)
   3 Pd     1.419544    4.097872   10.000000    ( 0.0000,  0.0000,  0.0000)
   4 Pd     4.258633    4.097872   10.000000    ( 0.0000,  0.0000,  0.0000)
   5 Pt     7.097722    4.097872   10.000000    ( 0.0000,  0.0000,  0.0000)
   6 Pd     2.839089    6.556595   10.000000    ( 0.0000,  0.0000,  0.0000)
   7 Pt     5.678177    6.556595   10.000000    ( 0.0000,  0.0000,  0.0000)
   8 Ru     8.517266    6.556595   10.000000    ( 0.0000,  0.0000,  0.0000)
   9 Pd     0.000000    0.000000   12.317643    ( 0.0000,  0.0000,  0.0000)
  10 Pt     2.839089    0.000000   12.317643    ( 0.0000,  0.0000,  0.0000)
  11 Pd     5.678177    0.000000   12.317643    ( 0.0000,  0.0000,  0.0000)
  12 Pd     1.419544    2.458723   12.317643    ( 0.0000,  0.0000,  0.0000)
  13 Pt     4.258633    2.458723   12.317643    ( 0.0000,  0.0000,  0.0000)
  14 Ag     7.097722    2.458723   12.317643    ( 0.0000,  0.0000,  0.0000)
  15 Ag     2.839089    4.917446   12.317643    ( 0.0000,  0.0000,  0.0000)
  16 Ag     5.678177    4.917446   12.317643    ( 0.0000,  0.0000,  0.0000)
  17 Pt     8.517266    4.917446   12.317643    ( 0.0000,  0.0000,  0.0000)
  18 Pt     1.389527    0.801871   14.585499    ( 0.0000,  0.0000,  0.0000)
  19 Pt     4.332100    0.814549   14.614140    ( 0.0000,  0.0000,  0.0000)
  20 Ru     7.152424    0.900907   14.675373    ( 0.0000,  0.0000,  0.0000)
  21 Pt     2.848369    3.209230   14.688013    ( 0.0000,  0.0000,  0.0000)
  22 Pd     5.679588    3.245090   14.669304    ( 0.0000,  0.0000,  0.0000)
  23 Pt     8.539968    3.273794   14.662525    ( 0.0000,  0.0000,  0.0000)
  24 Ag     4.285346    5.707993   14.656998    ( 0.0000,  0.0000,  0.0000)
  25 Pt     7.170165    5.764888   14.615894    ( 0.0000,  0.0000,  0.0000)
  26 Ag    10.001100    5.727466   14.639542    ( 0.0000,  0.0000,  0.0000)
  27 Pt    -0.004925    1.650774   16.862381    ( 0.0000,  0.0000,  0.0000)
  28 Pd     2.850639    1.596461   16.940384    ( 0.0000,  0.0000,  0.0000)
  29 Pd     5.684336    1.620275   16.928149    ( 0.0000,  0.0000,  0.0000)
  30 Ir     1.441708    4.041838   16.987857    ( 0.0000,  0.0000,  0.0000)
  31 Pt     4.193951    4.025724   17.011649    ( 0.0000,  0.0000,  0.0000)
  32 Pd     7.072696    4.088130   16.928837    ( 0.0000,  0.0000,  0.0000)
  33 Pd     2.838818    6.569213   16.929941    ( 0.0000,  0.0000,  0.0000)
  34 Ag     5.673044    6.508816   16.980332    ( 0.0000,  0.0000,  0.0000)
  35 Pt     8.532351    6.526714   16.936030    ( 0.0000,  0.0000,  0.0000)
  36 Pt    -0.018085    0.049665   19.244411    ( 0.0000,  0.0000,  0.0000)
  37 Pt     2.870072    0.009954   19.258724    ( 0.0000,  0.0000,  0.0000)
  38 Pt     5.656075   -0.024397   19.227699    ( 0.0000,  0.0000,  0.0000)
  39 Pt     1.390635    2.397532   19.237172    ( 0.0000,  0.0000,  0.0000)
  40 Pd     4.295804    2.402319   19.345676    ( 0.0000,  0.0000,  0.0000)
  41 Pd     7.124726    2.437872   19.243126    ( 0.0000,  0.0000,  0.0000)
  42 Pt     2.802719    4.974190   19.235618    ( 0.0000,  0.0000,  0.0000)
  43 Ag     5.676630    4.929835   19.455285    ( 0.0000,  0.0000,  0.0000)
  44 Pt     8.544018    4.936820   19.173649    ( 0.0000,  0.0000,  0.0000)
  45 H      2.732921    3.343539   20.043770    ( 0.0000,  0.0000,  0.0000)

Unit cell:
           periodic     x           y           z      points  spacing
  1. axis:    yes    8.517266    0.000000    0.000000    40     0.1844
  2. axis:    yes    4.258633    7.376169    0.000000    40     0.1844
  3. axis:    no     0.000000    0.000000   29.270571   140     0.2091

  Lengths:   8.517266   8.517266  29.270571
  Angles:   90.000000  90.000000  60.000000

Effective grid spacing dv^(1/3) = 0.2017

     iter     time        total  log10-change:
                         energy  eigst   dens
iter:   1 23:53:22  -201.488900  -4.44
iter:   2 23:54:31  -234.460407  -2.89  -2.18
iter:   3 23:55:40  -202.226043  -3.21  -1.52
iter:   4 23:56:50  -200.635339  -4.23  -2.14
iter:   5 23:58:00  -200.432476  -5.06  -2.54
iter:   6 23:59:11  -200.418327c -5.64  -3.16
iter:   7 00:00:22  -200.417108c -6.02  -3.66
iter:   8 00:01:33  -200.414601c -6.32  -3.54
iter:   9 00:02:44  -200.414615c -6.67  -3.81
iter:  10 00:03:54  -200.414399c -6.90  -3.98
iter:  11 00:05:04  -200.413832c -6.92  -4.04c
iter:  12 00:06:15  -200.413680c -7.30  -3.94
iter:  13 00:07:25  -200.413766c -7.71c -4.40c

Converged after 13 iterations.

Dipole moment: (29.638169, 12.235863, -0.005637) |e|*Ang

Energy contributions relative to reference atoms: (reference = -14172748.147892)

Kinetic:       -324.909623
Potential:     +178.293962
External:        +0.000000
XC:             -41.599775
Entropy (-ST):   -2.341358
Local:          -11.027651
--------------------------
Free energy:   -201.584445
Extrapolated:  -200.413766

Showing only first 2 kpts
 Kpt  Band  Eigenvalues  Occupancy
  0   361      0.67027    0.97023
  0   362      0.68305    0.90662
  0   363      0.72165    0.72094
  0   364      0.73225    0.67281

  1   361      0.53995    1.55242
  1   362      0.56344    1.46554
  1   363      0.59913    1.31487
  1   364      0.62788    1.18021


Fermi level: 0.66432

No gap

Forces in eV/Ang:
  0 Pd    0.00838   -0.01101   -0.24733
  1 Pt    0.30287   -0.52117    0.39936
  2 Pt   -0.34240   -0.14817    0.02763
  3 Pd   -0.41664    0.18015   -0.06725
  4 Pd    0.21938   -0.22484   -0.23069
  5 Pt    0.22690    0.31156   -0.17064
  6 Pd   -0.22087    0.23191   -0.08874
  7 Pt    0.54344    0.17162    0.09963
  8 Ru   -0.47645    0.07380    1.36439
  9 Pd   -0.19849    0.15673    0.23009
 10 Pt    0.29180    0.01677   -0.22515
 11 Pd    0.05628    0.03842   -0.06196
 12 Pd    0.09549    0.09968    0.04587
 13 Pt   -0.19765   -0.17425    0.16878
 14 Ag    0.07462   -0.10013    0.07050
 15 Ag    0.01130   -0.09323   -0.08445
 16 Ag   -0.06814   -0.06368    0.08279
 17 Pt    0.04774    0.20429   -0.57358
 18 Pt   -0.01410   -0.03590   -0.00337
 19 Pt    0.01037   -0.03803    0.01037
 20 Ru   -0.01398   -0.02031   -0.06320
 21 Pt   -0.00735    0.01762   -0.02322
 22 Pd    0.03241   -0.01903   -0.00128
 23 Pt   -0.02021   -0.01180   -0.03775
 24 Ag    0.00931    0.02617    0.01724
 25 Pt    0.00886    0.00523    0.04469
 26 Ag   -0.00791    0.03061    0.01350
 27 Pt    0.03413    0.00287    0.02566
 28 Pd    0.00923   -0.04458   -0.07973
 29 Pd   -0.00750    0.00798   -0.01347
 30 Ir   -0.01188    0.01615   -0.08973
 31 Pt    0.03501    0.01977   -0.07236
 32 Pd    0.00475   -0.02375   -0.00741
 33 Pd    0.01321   -0.01016   -0.04405
 34 Ag   -0.01095   -0.00641   -0.03019
 35 Pt    0.01758   -0.01266   -0.06311
 36 Pt   -0.02354    0.02745   -0.00968
 37 Pt   -0.02150   -0.01771    0.05402
 38 Pt    0.03848    0.00170    0.01680
 39 Pt   -0.00959   -0.02519   -0.05045
 40 Pd   -0.04954    0.02231   -0.06670
 41 Pd    0.02409   -0.04413   -0.00657
 42 Pt   -0.00694    0.00430   -0.04972
 43 Ag    0.01173   -0.02299    0.02641
 44 Pt   -0.01988   -0.02292    0.04377
 45 H     0.00420    0.05570   -0.03782

Timing:                                      incl.     excl.
-------------------------------------------------------------------
Density initialized from wave functions:    37.121    37.120   0.3% |
 Symmetrize density:                         0.001     0.001   0.0% |
Forces:                                    166.875   166.875   1.2% |
Hamiltonian:                                20.355     0.127   0.0% |
 Atomic:                                     0.828     0.064   0.0% |
  XC Correction:                             0.763     0.763   0.0% |
 Calculate atomic Hamiltonians:             12.090    12.090   0.1% |
 Communicate:                                3.002     3.002   0.0% |
 Initialize Hamiltonian:                     0.000     0.000   0.0% |
 Poisson:                                    0.067     0.067   0.0% |
 XC 3D grid:                                 4.241     4.241   0.0% |
LCAO initialization:                       134.752     2.417   0.0% |
 LCAO eigensolver:                          14.654     0.001   0.0% |
  Blacs Orbital Layouts:                     0.277     0.000   0.0% |
   General diagonalize:                      0.273     0.273   0.0% |
   Redistribute coefs:                       0.002     0.002   0.0% |
   Send coefs to domains:                    0.002     0.002   0.0% |
  Calculate projections:                     0.004     0.004   0.0% |
  Distribute overlap matrix:                13.587     0.000   0.0% |
   Scalapack redistribute:                   0.009     0.009   0.0% |
   blocked summation:                       13.577    13.577   0.1% |
  Potential matrix:                          0.744     0.744   0.0% |
  SparseAtomicCorrection:                    0.004     0.004   0.0% |
  Sum over cells:                            0.036     0.036   0.0% |
 LCAO to grid:                             114.570   114.570   0.8% |
 Set positions (LCAO WFS):                   3.110     0.006   0.0% |
  Basic WFS set positions:                   0.002     0.002   0.0% |
  Basis functions set positions:             0.000     0.000   0.0% |
  P tci:                                     0.000     0.000   0.0% |
  ST tci:                                    0.270     0.270   0.0% |
  Scalapack redistribute:                    0.009     0.009   0.0% |
  blocked summation:                         2.713     2.713   0.0% |
  mktci:                                     0.108     0.108   0.0% |
PWDescriptor:                                0.613     0.613   0.0% |
Redistribute:                                0.011     0.011   0.0% |
SCF-cycle:                               13304.350  1091.978   8.0% |--|
 Davidson:                               11227.452  2604.277  19.0% |-------|
  Apply H:                                1113.963  1089.908   7.9% |--|
   HMM T:                                   24.055    24.055   0.2% |
  Subspace diag:                          1334.141     0.036   0.0% |
   calc_h_matrix:                          887.027   254.113   1.9% ||
    Apply H:                               632.914   618.406   4.5% |-|
     HMM T:                                 14.507    14.507   0.1% |
   diagonalize:                             44.270    44.270   0.3% |
   rotate_psi:                             402.808   402.808   2.9% ||
  calc. matrices:                         4271.625  2625.498  19.1% |-------|
   Apply H:                               1646.127  1610.121  11.7% |----|
    HMM T:                                  36.006    36.006   0.3% |
  diagonalize:                             648.655   648.655   4.7% |-|
  rotate_psi:                             1254.792  1254.792   9.1% |---|
 Density:                                  614.656     0.008   0.0% |
  Atomic density matrices:                   3.757     3.757   0.0% |
  Mix:                                     213.891   213.891   1.6% ||
  Multipole moments:                         0.291     0.291   0.0% |
  Pseudo density:                          396.708   396.698   2.9% ||
   Symmetrize density:                       0.009     0.009   0.0% |
 Hamiltonian:                              327.424     1.815   0.0% |
  Atomic:                                   13.196     0.636   0.0% |
   XC Correction:                           12.560    12.560   0.1% |
  Calculate atomic Hamiltonians:           184.542   184.542   1.3% ||
  Communicate:                              61.767    61.767   0.5% |
  Poisson:                                   0.986     0.986   0.0% |
  XC 3D grid:                               65.119    65.119   0.5% |
 Orthonormalize:                            42.840     0.003   0.0% |
  calc_s_matrix:                             6.904     6.904   0.1% |
  inverse-cholesky:                          2.039     2.039   0.0% |
  projections:                              22.338    22.338   0.2% |
  rotate_psi_s:                             11.556    11.556   0.1% |
Set symmetry:                                0.003     0.003   0.0% |
Other:                                      54.603    54.603   0.4% |
-------------------------------------------------------------------
Total:                                             13718.682 100.0%

Memory usage: 856.66 MiB
Date: Fri Jun 14 00:07:41 2024
