
  ___ ___ ___ _ _ _  
 |   |   |_  | | | | 
 | | | | | . | | | | 
 |__ |  _|___|_____|  22.1.0
 |___|_|             

User:   clausen@node419.cluster
Date:   Thu Jun 13 20:19:02 2024
Arch:   x86_64
Pid:    156192
Python: 3.10.4
gpaw:   /groups/kemi/clausen/miniconda3/envs/gpaw22/lib/python3.10/site-packages/gpaw
_gpaw:  /groups/kemi/clausen/miniconda3/envs/gpaw22/lib/python3.10/site-packages/
        _gpaw.cpython-310-x86_64-linux-gnu.so
ase:    /groups/kemi/clausen/miniconda3/envs/gpaw22/lib/python3.10/site-packages/ase (version 3.22.1)
numpy:  /groups/kemi/clausen/miniconda3/envs/gpaw22/lib/python3.10/site-packages/numpy (version 1.23.1)
scipy:  /groups/kemi/clausen/miniconda3/envs/gpaw22/lib/python3.10/site-packages/scipy (version 1.8.1)
libxc:  5.2.3
units:  Angstrom and eV
cores: 24
OpenMP: True
OMP_NUM_THREADS: 1

Input parameters:
  eigensolver: {name: dav,
                niter: 3}
  kpts: [4 4 1]
  mixer: {backend: pulay,
          beta: 0.05,
          method: difference,
          nmaxold: 5,
          weight: 50.0}
  mode: {ecut: 400.0,
         name: pw}
  xc: RPBE

System changes: positions, numbers, cell, pbc, initial_charges, initial_magmoms 

Initialize ...

Pd-setup:
  name: Palladium
  id: 6da19bfba079f22767af9506641940b9
  Z: 46.0
  valence: 16
  core: 30
  charge: 0.0
  file: /groups/kemi/clausen/miniconda3/envs/gpaw22/share/gpaw/Pd.RPBE.gz
  compensation charges: gauss, rc=0.38, lmax=2
  cutoffs: 2.38(filt), 2.28(core),
  valence states:
                energy  radius
    5s(0.00)    -3.225   1.228
    4p(6.00)   -51.131   1.360
    5p(0.00)    -0.373   1.360
    4d(10.00)    -3.964   1.228
    *s          23.987   1.228
    *d          23.247   1.228

  Using partial waves for Pd as LCAO basis

Pt-setup:
  name: Platinum
  id: f04f522592575c47ad794f6b4a415b4b
  Z: 78.0
  valence: 16
  core: 62
  charge: 0.0
  file: /groups/kemi/clausen/miniconda3/envs/gpaw22/share/gpaw/Pt.RPBE.gz
  compensation charges: gauss, rc=0.41, lmax=2
  cutoffs: 2.26(filt), 2.26(core),
  valence states:
                energy  radius
    6s(1.00)    -5.516   1.307
    5p(6.00)   -55.971   1.371
    6p(0.00)    -0.856   1.371
    5d(9.00)    -6.087   1.307
    *s          21.695   1.307
    *d          21.125   1.307

  Using partial waves for Pt as LCAO basis

Ru-setup:
  name: Ruthenium
  id: 76477906e28f51dc1b29884d53556fe9
  Z: 44.0
  valence: 16
  core: 28
  charge: 0.0
  file: /groups/kemi/clausen/miniconda3/envs/gpaw22/share/gpaw/Ru.RPBE.gz
  compensation charges: gauss, rc=0.39, lmax=2
  cutoffs: 2.16(filt), 1.30(core),
  valence states:
                energy  radius
    4s(2.00)   -76.255   1.281
    5s(1.00)    -4.126   1.281
    4p(6.00)   -46.371   1.286
    5p(0.00)    -0.913   1.286
    4d(7.00)    -5.146   1.254
    *d          22.066   1.254

  Using partial waves for Ru as LCAO basis

Ag-setup:
  name: Silver
  id: c05e55bab2c3858b3f9398f6d75cb77c
  Z: 47.0
  valence: 17
  core: 30
  charge: 0.0
  file: /groups/kemi/clausen/miniconda3/envs/gpaw22/share/gpaw/Ag.RPBE.gz
  compensation charges: gauss, rc=0.40, lmax=2
  cutoffs: 2.35(filt), 2.19(core),
  valence states:
                energy  radius
    5s(1.00)    -4.277   1.286
    4p(6.00)   -58.523   1.328
    5p(0.00)    -0.755   1.328
    4d(10.00)    -7.386   1.180
    *s          22.934   1.286
    *d          19.826   1.180

  Using partial waves for Ag as LCAO basis

Ir-setup:
  name: Iridium
  id: 73b603359d1d5397a85ae3c2440f9033
  Z: 77.0
  valence: 15
  core: 62
  charge: 0.0
  file: /groups/kemi/clausen/miniconda3/envs/gpaw22/share/gpaw/Ir.RPBE.gz
  compensation charges: gauss, rc=0.40, lmax=2
  cutoffs: 2.40(filt), 2.36(core),
  valence states:
                energy  radius
    6s(2.00)    -6.219   1.296
    5p(6.00)   -54.684   1.328
    6p(0.00)    -1.215   1.328
    5d(7.00)    -7.118   1.286
    *s          20.992   1.296
    *d          20.093   1.286

  Using partial waves for Ir as LCAO basis

O-setup:
  name: Oxygen
  id: 08071ca1eed670e7821b24b7eb4d558c
  Z: 8.0
  valence: 6
  core: 2
  charge: 0.0
  file: /groups/kemi/clausen/miniconda3/envs/gpaw22/share/gpaw/O.RPBE.gz
  compensation charges: gauss, rc=0.21, lmax=2
  cutoffs: 1.17(filt), 0.83(core),
  valence states:
                energy  radius
    2s(2.00)   -24.041   0.688
    2p(4.00)    -8.984   0.598
    *s           3.170   0.688
    *p          18.228   0.598
    *d           0.000   0.619

  Using partial waves for O as LCAO basis

Reference energy: -14174778.458134

Spin-paired calculation

Convergence criteria:
 Maximum [total energy] change in last 3 cyles: 0.0005 eV / electron
 Maximum integral of absolute [dens]ity change: 0.0001 electrons / valence electron
 Maximum integral of absolute [eigenst]ate change: 4e-08 eV^2 / valence electron
 Maximum number of scf [iter]ations: 333
 (Square brackets indicate name in SCF output, whereas a 'c' in
 the SCF output indicates the quantity has converged.)

Symmetries present (total): 1

  ( 1  0  0)
  ( 0  1  0)
  ( 0  0  1)

16 k-points: 4 x 4 x 1 Monkhorst-Pack grid
8 k-points in the irreducible part of the Brillouin zone
       k-points in crystal coordinates                weights
   0:     0.12500000   -0.37500000    0.00000000          2/16
   1:     0.12500000   -0.12500000    0.00000000          2/16
   2:     0.12500000    0.12500000    0.00000000          2/16
   3:     0.12500000    0.37500000    0.00000000          2/16
   4:     0.37500000   -0.37500000    0.00000000          2/16
   5:     0.37500000   -0.12500000    0.00000000          2/16
   6:     0.37500000    0.12500000    0.00000000          2/16
   7:     0.37500000    0.37500000    0.00000000          2/16

Wave functions: Plane wave expansion
  Cutoff energy: 400.000 eV
  Number of coefficients (min, max): 33332, 33436
  Pulay-stress correction: 0.000000 eV/Ang^3 (de/decut=0.000000)
  Using FFTW library
  ScaLapack parameters: grid=3x1, blocksize=64
  Wavefunction extrapolation:
    Improved wavefunction reuse through dual PAW basis 

Occupation numbers: Fermi-Dirac: width=0.1000 eV
 

Eigensolver
   Davidson(niter=3) 

Densities:
  Coarse grid: 40*40*140 grid
  Fine grid: 80*80*280 grid
  Total Charge: 0.000000 

Density mixing:
  Method: separate
  Backend: pulay
  Linear mixing parameter: 0.05
  Mixing with 5 old densities
  Damping of long wave oscillations: 50 

Hamiltonian:
  XC and Coulomb potentials evaluated on a 80*80*280 grid
  Using the RPBE Exchange-Correlation functional
  External potential:
    NoExternalPotential
 

XC parameters: RPBE with 2 nearest neighbor stencil

Memory estimate:
  Process memory now: 194.30 MiB
  Calculator: 558.14 MiB
    Density: 47.45 MiB
      Arrays: 14.92 MiB
      Localized functions: 26.79 MiB
      Mixer: 5.74 MiB
    Hamiltonian: 10.59 MiB
      Arrays: 9.75 MiB
      XC: 0.00 MiB
      Poisson: 0.00 MiB
      vbar: 0.84 MiB
    Wavefunctions: 500.10 MiB
      Arrays psit_nG: 226.53 MiB
      Eigensolver: 259.17 MiB
      Projections: 1.86 MiB
      Projectors: 3.74 MiB
      PW-descriptor: 8.80 MiB

Total number of cores used: 24
Parallelization over k-points: 8
Domain decomposition: 1 x 1 x 3
                      2 x 2 x 6 (xc only)

Number of atoms: 46
Number of atomic orbitals: 546
Number of bands in calculation: 444
Number of valence electrons: 732
Bands to converge: occupied

... initialized

Initializing position-dependent things.

Density initialized from atomic densities
Creating initial wave functions:
  444 bands from LCAO basis set

                                             
                                             
                                             
                                             
                                             
                                             
                        Ag                   
                 Pt            Pt            
           OPt    PPd    APd    Pt           
                                             
       Pt    IPt    PPt    Pd                
                                             
        Pt     Pd    APd    Pt     Ag        
                Pt     Pd     Pt             
                                             
           Pt    APt    ARu    Pt            
                                             
            Pd    PPt    PAg    Ru           
       Pd     Pt     Pd                      
             Pd     Pd     Pt                
        Pd     Pt     Pt                     
                                             
                                             
                                             
                                             
                                             

Positions:
   0 Pd     0.000000    1.639149   10.000000    ( 0.0000,  0.0000,  0.0000)
   1 Pt     2.839089    1.639149   10.000000    ( 0.0000,  0.0000,  0.0000)
   2 Pt     5.678177    1.639149   10.000000    ( 0.0000,  0.0000,  0.0000)
   3 Pd     1.419544    4.097872   10.000000    ( 0.0000,  0.0000,  0.0000)
   4 Pd     4.258633    4.097872   10.000000    ( 0.0000,  0.0000,  0.0000)
   5 Pt     7.097722    4.097872   10.000000    ( 0.0000,  0.0000,  0.0000)
   6 Pd     2.839089    6.556595   10.000000    ( 0.0000,  0.0000,  0.0000)
   7 Pt     5.678177    6.556595   10.000000    ( 0.0000,  0.0000,  0.0000)
   8 Ru     8.517266    6.556595   10.000000    ( 0.0000,  0.0000,  0.0000)
   9 Pd     0.000000    0.000000   12.317643    ( 0.0000,  0.0000,  0.0000)
  10 Pt     2.839089    0.000000   12.317643    ( 0.0000,  0.0000,  0.0000)
  11 Pd     5.678177    0.000000   12.317643    ( 0.0000,  0.0000,  0.0000)
  12 Pd     1.419544    2.458723   12.317643    ( 0.0000,  0.0000,  0.0000)
  13 Pt     4.258633    2.458723   12.317643    ( 0.0000,  0.0000,  0.0000)
  14 Ag     7.097722    2.458723   12.317643    ( 0.0000,  0.0000,  0.0000)
  15 Ag     2.839089    4.917446   12.317643    ( 0.0000,  0.0000,  0.0000)
  16 Ag     5.678177    4.917446   12.317643    ( 0.0000,  0.0000,  0.0000)
  17 Pt     8.517266    4.917446   12.317643    ( 0.0000,  0.0000,  0.0000)
  18 Pt     1.382601    0.802015   14.574458    ( 0.0000,  0.0000,  0.0000)
  19 Pt     4.320375    0.816336   14.613039    ( 0.0000,  0.0000,  0.0000)
  20 Ru     7.144265    0.918131   14.702206    ( 0.0000,  0.0000,  0.0000)
  21 Pt     2.831254    3.224549   14.674209    ( 0.0000,  0.0000,  0.0000)
  22 Pd     5.669505    3.253449   14.666412    ( 0.0000,  0.0000,  0.0000)
  23 Pt     8.531860    3.282380   14.648110    ( 0.0000,  0.0000,  0.0000)
  24 Ag     4.274318    5.722991   14.646070    ( 0.0000,  0.0000,  0.0000)
  25 Pt     7.164045    5.771726   14.621475    ( 0.0000,  0.0000,  0.0000)
  26 Ag     9.986908    5.738787   14.643456    ( 0.0000,  0.0000,  0.0000)
  27 Pt    -0.010030    1.649760   16.860047    ( 0.0000,  0.0000,  0.0000)
  28 Pd     2.846447    1.596866   16.907942    ( 0.0000,  0.0000,  0.0000)
  29 Pd     5.675289    1.629573   16.927321    ( 0.0000,  0.0000,  0.0000)
  30 Ir     1.434330    4.054121   16.976739    ( 0.0000,  0.0000,  0.0000)
  31 Pt     4.206017    4.046333   16.977057    ( 0.0000,  0.0000,  0.0000)
  32 Pd     7.080668    4.096815   16.929692    ( 0.0000,  0.0000,  0.0000)
  33 Pd     2.838049    6.583929   16.905471    ( 0.0000,  0.0000,  0.0000)
  34 Ag     5.672922    6.523405   16.970943    ( 0.0000,  0.0000,  0.0000)
  35 Pt     8.525101    6.536969   16.950374    ( 0.0000,  0.0000,  0.0000)
  36 Pt    -0.017716    0.053004   19.239954    ( 0.0000,  0.0000,  0.0000)
  37 Pt     2.857597    0.044181   19.266473    ( 0.0000,  0.0000,  0.0000)
  38 Pt     5.659519   -0.012970   19.233800    ( 0.0000,  0.0000,  0.0000)
  39 Pt     1.394642    2.415452   19.172426    ( 0.0000,  0.0000,  0.0000)
  40 Pd     4.249890    2.430035   19.273035    ( 0.0000,  0.0000,  0.0000)
  41 Pd     7.120027    2.427105   19.248801    ( 0.0000,  0.0000,  0.0000)
  42 Pt     2.796750    4.960022   19.159701    ( 0.0000,  0.0000,  0.0000)
  43 Ag     5.679377    4.925181   19.423236    ( 0.0000,  0.0000,  0.0000)
  44 Pt     8.558870    4.929592   19.192007    ( 0.0000,  0.0000,  0.0000)
  45 O      1.411508    0.837546   20.723236    ( 0.0000,  0.0000,  0.0000)

Unit cell:
           periodic     x           y           z      points  spacing
  1. axis:    yes    8.517266    0.000000    0.000000    40     0.1844
  2. axis:    yes    4.258633    7.376169    0.000000    40     0.1844
  3. axis:    no     0.000000    0.000000   29.270571   140     0.2091

  Lengths:   8.517266   8.517266  29.270571
  Angles:   90.000000  90.000000  60.000000

Effective grid spacing dv^(1/3) = 0.2017

     iter     time        total  log10-change:
                         energy  eigst   dens
iter:   1 20:22:22  -255.582334
iter:   2 20:23:20  -222.248978  -1.65  -1.21
iter:   3 20:24:19  -268.078485  -2.09  -1.37
iter:   4 20:25:18  -220.093131  -2.31  -1.23
iter:   5 20:26:18  -216.258978  -2.28  -1.41
iter:   6 20:27:16  -205.972468  -2.97  -1.50
iter:   7 20:28:16  -205.234416  -2.97  -1.62
iter:   8 20:29:15  -202.265574  -3.06  -1.68
iter:   9 20:30:14  -203.044028  -2.89  -1.84
iter:  10 20:31:14  -201.699596  -3.47  -1.93
iter:  11 20:32:14  -201.430195  -3.63  -2.07
iter:  12 20:33:13  -201.277874  -4.12  -2.17
iter:  13 20:34:13  -201.293995c -3.82  -2.23
iter:  14 20:35:12  -201.507584c -4.03  -2.27
iter:  15 20:36:11  -201.027012  -3.95  -2.25
iter:  16 20:37:10  -200.987068  -4.44  -2.51
iter:  17 20:38:09  -200.885621c -4.29  -2.58
iter:  18 20:39:08  -200.888515c -4.78  -2.81
iter:  19 20:40:07  -200.872368c -5.21  -2.87
iter:  20 20:41:07  -200.876761c -5.55  -2.97
iter:  21 20:42:06  -200.867711c -5.77  -2.98
iter:  22 20:43:06  -200.866564c -5.48  -3.09
iter:  23 20:44:05  -200.867209c -6.19  -3.23
iter:  24 20:45:05  -200.868277c -5.56  -3.27
iter:  25 20:46:05  -200.869058c -6.07  -3.42
iter:  26 20:47:04  -200.868404c -6.14  -3.53
iter:  27 20:48:04  -200.870356c -6.42  -3.61
iter:  28 20:49:03  -200.867999c -6.61  -3.46
iter:  29 20:50:01  -200.869257c -6.98  -3.84
iter:  30 20:51:00  -200.867967c -7.08  -3.70
iter:  31 20:51:59  -200.867918c -6.96  -4.02c
iter:  32 20:52:57  -200.867625c -7.87c -4.15c

Converged after 32 iterations.

Dipole moment: (26.868697, 10.081511, -0.174761) |e|*Ang

Energy contributions relative to reference atoms: (reference = -14174778.458134)

Kinetic:       -334.021483
Potential:     +187.993460
External:        +0.000000
XC:             -42.655608
Entropy (-ST):   -2.284429
Local:          -11.041779
--------------------------
Free energy:   -202.009839
Extrapolated:  -200.867625

Showing only first 2 kpts
 Kpt  Band  Eigenvalues  Occupancy
  0   364      0.61101    1.04182
  0   365      0.65163    0.84012
  0   366      0.68177    0.69775
  0   367      0.71533    0.55394

  1   364      0.50367    1.52160
  1   365      0.53407    1.40241
  1   366      0.58150    1.18716
  1   367      0.60560    1.06875


Fermi level: 0.61938

No gap

Forces in eV/Ang:
  0 Pd    0.01362   -0.01100   -0.26179
  1 Pt    0.30146   -0.51846    0.37096
  2 Pt   -0.34074   -0.12947    0.01706
  3 Pd   -0.41071    0.17295   -0.08446
  4 Pd    0.22349   -0.22894   -0.24645
  5 Pt    0.21101    0.30414   -0.19201
  6 Pd   -0.21535    0.23074   -0.10310
  7 Pt    0.55418    0.16487    0.07070
  8 Ru   -0.49909    0.06503    1.32803
  9 Pd   -0.23170    0.17206    0.17859
 10 Pt    0.30549    0.01282   -0.23690
 11 Pd    0.02663    0.03105   -0.08683
 12 Pd    0.07736    0.10222   -0.00831
 13 Pt   -0.18716   -0.18734    0.14276
 14 Ag    0.05300   -0.12606    0.07618
 15 Ag   -0.01028   -0.06819   -0.10638
 16 Ag   -0.05892   -0.05357    0.07882
 17 Pt    0.03120    0.25521   -0.59133
 18 Pt    0.01872    0.02428    0.03111
 19 Pt    0.02660    0.02439    0.00034
 20 Ru   -0.01919   -0.02145   -0.12108
 21 Pt    0.02749   -0.00364   -0.01414
 22 Pd    0.07449   -0.01501    0.00187
 23 Pt   -0.01612   -0.00761   -0.01676
 24 Ag    0.02600   -0.01606   -0.00977
 25 Pt    0.02155   -0.02899    0.01833
 26 Ag    0.01273    0.05442   -0.13369
 27 Pt   -0.05922    0.07284   -0.20258
 28 Pd    0.06577    0.03459   -0.19383
 29 Pd    0.00731    0.04424   -0.02574
 30 Ir    0.02683   -0.33045    0.27930
 31 Pt    0.03227   -0.05209   -0.01299
 32 Pd   -0.03642   -0.06869   -0.01097
 33 Pd    0.11407    0.08601    0.35146
 34 Ag   -0.01669   -0.08614   -0.09400
 35 Pt   -0.12558    0.10315    0.27821
 36 Pt   -0.28500   -0.33259    0.71399
 37 Pt    0.19559   -0.33479    0.69827
 38 Pt    0.01002   -0.01647   -0.14969
 39 Pt    0.09914    0.55939    0.48992
 40 Pd    0.16719    0.17429   -0.06886
 41 Pd   -0.26396    0.18316   -0.07335
 42 Pt   -0.06037    0.00441   -0.07136
 43 Ag   -0.00256   -0.15622    0.03921
 44 Pt    0.02576   -0.02914   -0.07222
 45 O     0.08795   -0.05066   -2.12141

System changes: positions 

Initializing position-dependent things.

Density initialized from wave functions
                                             
                                             
                                             
                                             
                                             
                                             
                        Ag                   
                 Pt            Pt            
           OPt    PPd    APd    Pt           
                                             
       Pt    IPt    PPt    Pd                
                                             
        Pt     Pd    APd    Pt     Ag        
                Pt     Pd     Pt             
                                             
           Pt    APt    ARu    Pt            
                                             
            Pd    PPt    PAg    Ru           
       Pd     Pt     Pd                      
             Pd     Pd     Pt                
        Pd     Pt     Pt                     
                                             
                                             
                                             
                                             
                                             

Positions:
   0 Pd     0.000000    1.639149   10.000000    ( 0.0000,  0.0000,  0.0000)
   1 Pt     2.839089    1.639149   10.000000    ( 0.0000,  0.0000,  0.0000)
   2 Pt     5.678177    1.639149   10.000000    ( 0.0000,  0.0000,  0.0000)
   3 Pd     1.419544    4.097872   10.000000    ( 0.0000,  0.0000,  0.0000)
   4 Pd     4.258633    4.097872   10.000000    ( 0.0000,  0.0000,  0.0000)
   5 Pt     7.097722    4.097872   10.000000    ( 0.0000,  0.0000,  0.0000)
   6 Pd     2.839089    6.556595   10.000000    ( 0.0000,  0.0000,  0.0000)
   7 Pt     5.678177    6.556595   10.000000    ( 0.0000,  0.0000,  0.0000)
   8 Ru     8.517266    6.556595   10.000000    ( 0.0000,  0.0000,  0.0000)
   9 Pd     0.000000    0.000000   12.317643    ( 0.0000,  0.0000,  0.0000)
  10 Pt     2.839089    0.000000   12.317643    ( 0.0000,  0.0000,  0.0000)
  11 Pd     5.678177    0.000000   12.317643    ( 0.0000,  0.0000,  0.0000)
  12 Pd     1.419544    2.458723   12.317643    ( 0.0000,  0.0000,  0.0000)
  13 Pt     4.258633    2.458723   12.317643    ( 0.0000,  0.0000,  0.0000)
  14 Ag     7.097722    2.458723   12.317643    ( 0.0000,  0.0000,  0.0000)
  15 Ag     2.839089    4.917446   12.317643    ( 0.0000,  0.0000,  0.0000)
  16 Ag     5.678177    4.917446   12.317643    ( 0.0000,  0.0000,  0.0000)
  17 Pt     8.517266    4.917446   12.317643    ( 0.0000,  0.0000,  0.0000)
  18 Pt     1.382868    0.802362   14.574902    ( 0.0000,  0.0000,  0.0000)
  19 Pt     4.320755    0.816684   14.613043    ( 0.0000,  0.0000,  0.0000)
  20 Ru     7.143991    0.917825   14.700476    ( 0.0000,  0.0000,  0.0000)
  21 Pt     2.831646    3.224497   14.674007    ( 0.0000,  0.0000,  0.0000)
  22 Pd     5.670569    3.253234   14.666439    ( 0.0000,  0.0000,  0.0000)
  23 Pt     8.531630    3.282271   14.647871    ( 0.0000,  0.0000,  0.0000)
  24 Ag     4.274690    5.722762   14.645931    ( 0.0000,  0.0000,  0.0000)
  25 Pt     7.164352    5.771312   14.621737    ( 0.0000,  0.0000,  0.0000)
  26 Ag     9.987090    5.739564   14.641546    ( 0.0000,  0.0000,  0.0000)
  27 Pt    -0.010876    1.650801   16.857153    ( 0.0000,  0.0000,  0.0000)
  28 Pd     2.847387    1.597360   16.905173    ( 0.0000,  0.0000,  0.0000)
  29 Pd     5.675394    1.630205   16.926953    ( 0.0000,  0.0000,  0.0000)
  30 Ir     1.434714    4.049400   16.980729    ( 0.0000,  0.0000,  0.0000)
  31 Pt     4.206478    4.045589   16.976872    ( 0.0000,  0.0000,  0.0000)
  32 Pd     7.080148    4.095833   16.929536    ( 0.0000,  0.0000,  0.0000)
  33 Pd     2.839678    6.585158   16.910492    ( 0.0000,  0.0000,  0.0000)
  34 Ag     5.672684    6.522175   16.969600    ( 0.0000,  0.0000,  0.0000)
  35 Pt     8.523307    6.538443   16.954349    ( 0.0000,  0.0000,  0.0000)
  36 Pt    -0.021787    0.048253   19.250154    ( 0.0000,  0.0000,  0.0000)
  37 Pt     2.860391    0.039399   19.276448    ( 0.0000,  0.0000,  0.0000)
  38 Pt     5.659662   -0.013205   19.231662    ( 0.0000,  0.0000,  0.0000)
  39 Pt     1.396059    2.423444   19.179425    ( 0.0000,  0.0000,  0.0000)
  40 Pd     4.252278    2.432524   19.272051    ( 0.0000,  0.0000,  0.0000)
  41 Pd     7.116256    2.429722   19.247754    ( 0.0000,  0.0000,  0.0000)
  42 Pt     2.795887    4.960085   19.158682    ( 0.0000,  0.0000,  0.0000)
  43 Ag     5.679340    4.922950   19.423796    ( 0.0000,  0.0000,  0.0000)
  44 Pt     8.559238    4.929176   19.190975    ( 0.0000,  0.0000,  0.0000)
  45 O      1.412764    0.836822   20.692930    ( 0.0000,  0.0000,  0.0000)

Unit cell:
           periodic     x           y           z      points  spacing
  1. axis:    yes    8.517266    0.000000    0.000000    40     0.1844
  2. axis:    yes    4.258633    7.376169    0.000000    40     0.1844
  3. axis:    no     0.000000    0.000000   29.270571   140     0.2091

  Lengths:   8.517266   8.517266  29.270571
  Angles:   90.000000  90.000000  60.000000

Effective grid spacing dv^(1/3) = 0.2017

     iter     time        total  log10-change:
                         energy  eigst   dens
iter:   1 20:54:16  -201.882726  -4.16
iter:   2 20:55:15  -231.141335  -3.02  -2.24
iter:   3 20:56:13  -201.820096  -3.24  -1.52
iter:   4 20:57:12  -201.072180  -4.33  -2.33
iter:   5 20:58:10  -201.038322  -5.34  -2.83
iter:   6 20:59:09  -201.061357c -5.17  -2.90
iter:   7 21:00:08  -201.011767c -5.34  -2.73
iter:   8 21:01:08  -200.970670c -5.62  -2.99
iter:   9 21:02:07  -200.969205c -6.61  -3.50
iter:  10 21:03:07  -200.971071c -6.56  -3.60
iter:  11 21:04:07  -200.967042c -6.35  -3.44
iter:  12 21:05:06  -200.967144c -6.61  -3.61
iter:  13 21:06:06  -200.966318c -7.28  -3.69
iter:  14 21:07:06  -200.966420c -7.54c -4.04c

Converged after 14 iterations.

Dipole moment: (27.431397, 10.536629, -0.155505) |e|*Ang

Energy contributions relative to reference atoms: (reference = -14174778.458134)

Kinetic:       -330.062411
Potential:     +184.301051
External:        +0.000000
XC:             -42.992720
Entropy (-ST):   -2.278844
Local:          -11.072918
--------------------------
Free energy:   -202.105842
Extrapolated:  -200.966420

Showing only first 2 kpts
 Kpt  Band  Eigenvalues  Occupancy
  0   364      0.61942    1.04862
  0   365      0.66090    0.84257
  0   366      0.68955    0.70688
  0   367      0.72403    0.55827

  1   364      0.51332    1.52206
  1   365      0.54447    1.39980
  1   366      0.59123    1.18736
  1   367      0.61545    1.06839


Fermi level: 0.62915

No gap

Forces in eV/Ang:
  0 Pd    0.01189   -0.00902   -0.25581
  1 Pt    0.30590   -0.52608    0.37491
  2 Pt   -0.34444   -0.14054    0.02461
  3 Pd   -0.41388    0.18372   -0.07724
  4 Pd    0.22100   -0.22402   -0.23162
  5 Pt    0.21866    0.31376   -0.18305
  6 Pd   -0.22458    0.22583   -0.08821
  7 Pt    0.56234    0.16095    0.08266
  8 Ru   -0.49800    0.06249    1.34508
  9 Pd   -0.23302    0.17098    0.18185
 10 Pt    0.30213    0.00650   -0.23039
 11 Pd    0.03169    0.03512   -0.09597
 12 Pd    0.07452    0.10430   -0.00791
 13 Pt   -0.18433   -0.17714    0.14458
 14 Ag    0.05611   -0.12566    0.06574
 15 Ag   -0.00576   -0.06792   -0.11506
 16 Ag   -0.05852   -0.05352    0.06997
 17 Pt    0.02570    0.24844   -0.59320
 18 Pt    0.01119    0.01464    0.00916
 19 Pt    0.03454    0.00442   -0.00769
 20 Ru   -0.01600   -0.03843   -0.11023
 21 Pt    0.01656    0.02146   -0.02040
 22 Pd    0.06057   -0.01149   -0.01545
 23 Pt    0.00122    0.01481   -0.02969
 24 Ag    0.01052   -0.01256   -0.00876
 25 Pt    0.03650   -0.02214    0.01160
 26 Ag    0.01305    0.04585   -0.09086
 27 Pt   -0.02223    0.03272   -0.12851
 28 Pd    0.02699   -0.00673   -0.11367
 29 Pd    0.00783    0.01874   -0.03469
 30 Ir    0.02534   -0.27929    0.20703
 31 Pt    0.00640   -0.02987   -0.03955
 32 Pd   -0.01018   -0.04234   -0.03132
 33 Pd    0.09687    0.07394    0.27492
 34 Ag   -0.01714   -0.03396   -0.04249
 35 Pt   -0.11202    0.08289    0.21247
 36 Pt   -0.29995   -0.28629    0.54853
 37 Pt    0.21953   -0.29338    0.52703
 38 Pt    0.00734    0.00172   -0.15540
 39 Pt    0.07081    0.48476    0.33756
 40 Pd    0.12896    0.11795   -0.10546
 41 Pd   -0.19574    0.12506   -0.11356
 42 Pt   -0.04233    0.00690   -0.08674
 43 Ag   -0.00368   -0.13583   -0.00766
 44 Pt    0.01285   -0.02855   -0.08660
 45 O     0.08412   -0.04775   -1.79103

System changes: positions 

Initializing position-dependent things.

Density initialized from wave functions
                                             
                                             
                                             
                                             
                                             
                                             
                        Ag                   
                 Pt            Pt            
           OPt     Pd    APd    Pt           
                                             
       Pt    IPt    PPt    Pd                
                                             
        Pt     Pd    APd    Pt     Ag        
                Pt     Pd     Pt             
                                             
           Pt    APt    ARu    Pt            
                                             
            Pd    PPt    PAg    Ru           
       Pd    PPt    PPd    Pt                
                                             
        Pd     Pt     Pt                     
                                             
                                             
                                             
                                             
                                             

Positions:
   0 Pd     0.000000    1.639149   10.000000    ( 0.0000,  0.0000,  0.0000)
   1 Pt     2.839089    1.639149   10.000000    ( 0.0000,  0.0000,  0.0000)
   2 Pt     5.678177    1.639149   10.000000    ( 0.0000,  0.0000,  0.0000)
   3 Pd     1.419544    4.097872   10.000000    ( 0.0000,  0.0000,  0.0000)
   4 Pd     4.258633    4.097872   10.000000    ( 0.0000,  0.0000,  0.0000)
   5 Pt     7.097722    4.097872   10.000000    ( 0.0000,  0.0000,  0.0000)
   6 Pd     2.839089    6.556595   10.000000    ( 0.0000,  0.0000,  0.0000)
   7 Pt     5.678177    6.556595   10.000000    ( 0.0000,  0.0000,  0.0000)
   8 Ru     8.517266    6.556595   10.000000    ( 0.0000,  0.0000,  0.0000)
   9 Pd     0.000000    0.000000   12.317643    ( 0.0000,  0.0000,  0.0000)
  10 Pt     2.839089    0.000000   12.317643    ( 0.0000,  0.0000,  0.0000)
  11 Pd     5.678177    0.000000   12.317643    ( 0.0000,  0.0000,  0.0000)
  12 Pd     1.419544    2.458723   12.317643    ( 0.0000,  0.0000,  0.0000)
  13 Pt     4.258633    2.458723   12.317643    ( 0.0000,  0.0000,  0.0000)
  14 Ag     7.097722    2.458723   12.317643    ( 0.0000,  0.0000,  0.0000)
  15 Ag     2.839089    4.917446   12.317643    ( 0.0000,  0.0000,  0.0000)
  16 Ag     5.678177    4.917446   12.317643    ( 0.0000,  0.0000,  0.0000)
  17 Pt     8.517266    4.917446   12.317643    ( 0.0000,  0.0000,  0.0000)
  18 Pt     1.383836    0.803627   14.575743    ( 0.0000,  0.0000,  0.0000)
  19 Pt     4.323644    0.817119   14.612420    ( 0.0000,  0.0000,  0.0000)
  20 Ru     7.142631    0.914635   14.691142    ( 0.0000,  0.0000,  0.0000)
  21 Pt     2.833078    3.226230   14.672306    ( 0.0000,  0.0000,  0.0000)
  22 Pd     5.675722    3.252254   14.665189    ( 0.0000,  0.0000,  0.0000)
  23 Pt     8.531679    3.283452   14.645406    ( 0.0000,  0.0000,  0.0000)
  24 Ag     4.275625    5.721691   14.645189    ( 0.0000,  0.0000,  0.0000)
  25 Pt     7.167385    5.769423   14.622736    ( 0.0000,  0.0000,  0.0000)
  26 Ag     9.988190    5.743459   14.633748    ( 0.0000,  0.0000,  0.0000)
  27 Pt    -0.012866    1.653686   16.846080    ( 0.0000,  0.0000,  0.0000)
  28 Pd     2.849784    1.596920   16.895335    ( 0.0000,  0.0000,  0.0000)
  29 Pd     5.676052    1.631865   16.924054    ( 0.0000,  0.0000,  0.0000)
  30 Ir     1.436856    4.025677   16.998420    ( 0.0000,  0.0000,  0.0000)
  31 Pt     4.207098    4.043000   16.973617    ( 0.0000,  0.0000,  0.0000)
  32 Pd     7.079208    4.092180   16.926956    ( 0.0000,  0.0000,  0.0000)
  33 Pd     2.847905    6.591434   16.933924    ( 0.0000,  0.0000,  0.0000)
  34 Ag     5.671239    6.519148   16.965855    ( 0.0000,  0.0000,  0.0000)
  35 Pt     8.513814    6.545499   16.972478    ( 0.0000,  0.0000,  0.0000)
  36 Pt    -0.047047    0.023955   19.296947    ( 0.0000,  0.0000,  0.0000)
  37 Pt     2.878838    0.014518   19.321444    ( 0.0000,  0.0000,  0.0000)
  38 Pt     5.660289   -0.013117   19.218569    ( 0.0000,  0.0000,  0.0000)
  39 Pt     1.402121    2.464574   19.208377    ( 0.0000,  0.0000,  0.0000)
  40 Pd     4.263277    2.442651   19.263267    ( 0.0000,  0.0000,  0.0000)
  41 Pd     7.099530    2.440453   19.238297    ( 0.0000,  0.0000,  0.0000)
  42 Pt     2.792260    4.960659   19.151411    ( 0.0000,  0.0000,  0.0000)
  43 Ag     5.679034    4.911427   19.423295    ( 0.0000,  0.0000,  0.0000)
  44 Pt     8.560363    4.926765   19.183713    ( 0.0000,  0.0000,  0.0000)
  45 O      1.419873    0.832784   20.540797    ( 0.0000,  0.0000,  0.0000)

Unit cell:
           periodic     x           y           z      points  spacing
  1. axis:    yes    8.517266    0.000000    0.000000    40     0.1844
  2. axis:    yes    4.258633    7.376169    0.000000    40     0.1844
  3. axis:    no     0.000000    0.000000   29.270571   140     0.2091

  Lengths:   8.517266   8.517266  29.270571
  Angles:   90.000000  90.000000  60.000000

Effective grid spacing dv^(1/3) = 0.2017

     iter     time        total  log10-change:
                         energy  eigst   dens
iter:   1 21:08:25  -213.468697  -2.88
iter:   2 21:09:25  -382.694758  -1.72  -1.70
iter:   3 21:10:24  -215.206944  -2.27  -1.13
iter:   4 21:11:24  -203.111291  -3.06  -1.74
iter:   5 21:12:23  -202.142105  -4.17  -2.23
iter:   6 21:13:23  -201.898074  -4.19  -2.34
iter:   7 21:14:22  -202.195394c -4.29  -2.38
iter:   8 21:15:22  -201.450588  -4.00  -2.31
iter:   9 21:16:21  -201.369859  -4.90  -2.54
iter:  10 21:17:20  -201.315595c -5.26  -2.67
iter:  11 21:18:20  -201.304596c -5.72  -2.80
iter:  12 21:19:19  -201.279063c -4.91  -2.84
iter:  13 21:20:18  -201.273665c -5.27  -3.03
iter:  14 21:21:17  -201.276697c -5.91  -3.14
iter:  15 21:22:17  -201.260155c -5.75  -3.02
iter:  16 21:23:17  -201.260161c -6.54  -3.57
iter:  17 21:24:16  -201.259089c -6.42  -3.54
iter:  18 21:25:16  -201.261048c -6.26  -3.58
iter:  19 21:26:15  -201.261327c -6.63  -3.45
iter:  20 21:27:15  -201.258456c -6.77  -3.67
iter:  21 21:28:17  -201.258463c -7.47c -3.95
iter:  22 21:29:18  -201.258911c -7.32  -4.07c
iter:  23 21:30:19  -201.258619c -7.68c -4.13c

Converged after 23 iterations.

Dipole moment: (30.519848, 12.810038, -0.095370) |e|*Ang

Energy contributions relative to reference atoms: (reference = -14174778.458134)

Kinetic:       -324.019420
Potential:     +179.078211
External:        +0.000000
XC:             -44.097906
Entropy (-ST):   -2.257267
Local:          -11.090870
--------------------------
Free energy:   -202.387252
Extrapolated:  -201.258619

Showing only first 2 kpts
 Kpt  Band  Eigenvalues  Occupancy
  0   364      0.64770    1.05995
  0   365      0.68843    0.85733
  0   366      0.71170    0.74571
  0   367      0.74480    0.59847

  1   364      0.54453    1.51964
  1   365      0.58138    1.37276
  1   366      0.61892    1.20114
  1   367      0.64707    1.06307


Fermi level: 0.65970

No gap

Forces in eV/Ang:
  0 Pd    0.01484   -0.01311   -0.26483
  1 Pt    0.29865   -0.51531    0.37136
  2 Pt   -0.34461   -0.13192    0.01923
  3 Pd   -0.41311    0.17479   -0.08499
  4 Pd    0.22135   -0.22789   -0.24462
  5 Pt    0.21934    0.30648   -0.19675
  6 Pd   -0.21249    0.22944   -0.09996
  7 Pt    0.54559    0.16840    0.07104
  8 Ru   -0.49349    0.05970    1.33731
  9 Pd   -0.22731    0.16861    0.18092
 10 Pt    0.30357    0.00694   -0.21174
 11 Pd    0.03754    0.05212   -0.10667
 12 Pd    0.08297    0.10520   -0.00883
 13 Pt   -0.18608   -0.17037    0.13952
 14 Ag    0.05600   -0.12217    0.03461
 15 Ag    0.00231   -0.07531   -0.12899
 16 Ag   -0.06015   -0.05358    0.07085
 17 Pt    0.02171    0.23591   -0.59671
 18 Pt    0.01640   -0.00712   -0.03146
 19 Pt    0.03207   -0.01171   -0.01401
 20 Ru   -0.01492   -0.05430   -0.06513
 21 Pt    0.01517    0.01681   -0.03273
 22 Pd    0.02894   -0.00299   -0.02173
 23 Pt    0.02504    0.03689   -0.04407
 24 Ag   -0.00377    0.00495    0.02005
 25 Pt    0.02953    0.00405    0.02201
 26 Ag    0.02397    0.02802    0.09735
 27 Pt    0.02028    0.01356    0.00699
 28 Pd   -0.02560   -0.05205    0.06113
 29 Pd    0.01061    0.00218   -0.08368
 30 Ir    0.00195   -0.06899   -0.00942
 31 Pt    0.02485   -0.00999   -0.06095
 32 Pd   -0.01798    0.00252   -0.04850
 33 Pd    0.01243    0.04524    0.00986
 34 Ag   -0.01341    0.03306    0.11135
 35 Pt   -0.02241    0.02051   -0.01093
 36 Pt   -0.46562   -0.29407    0.10694
 37 Pt    0.43139   -0.30707   -0.00258
 38 Pt    0.01208    0.07420    0.01411
 39 Pt    0.02820    0.38457   -0.08499
 40 Pd    0.05817    0.03006   -0.04741
 41 Pd   -0.07044    0.02993   -0.06366
 42 Pt    0.03762   -0.03561    0.06351
 43 Ag   -0.01108   -0.07716    0.01596
 44 Pt   -0.05813   -0.05020    0.03099
 45 O     0.02438    0.05277   -0.34753

System changes: positions 

Initializing position-dependent things.

Density initialized from wave functions
                                              
                                              
                                              
                                              
                                              
                                              
                         Ag                   
                  Pt            Pt            
            OPt    PPd    APd    Pt           
                                              
       Pt     IPt    PPt    Pd                
                                              
         Pt     Pd    APd    Pt     Ag        
                 Pt     Pd     Pt             
                                              
           Pt     APt    ARu    Pt            
                                              
             Pd    PPt    PAg    Ru           
       Pd     PPt    PPd    Pt                
                                              
         Pd     Pt     Pt                     
                                              
                                              
                                              
                                              
                                              

Positions:
   0 Pd     0.000000    1.639149   10.000000    ( 0.0000,  0.0000,  0.0000)
   1 Pt     2.839089    1.639149   10.000000    ( 0.0000,  0.0000,  0.0000)
   2 Pt     5.678177    1.639149   10.000000    ( 0.0000,  0.0000,  0.0000)
   3 Pd     1.419544    4.097872   10.000000    ( 0.0000,  0.0000,  0.0000)
   4 Pd     4.258633    4.097872   10.000000    ( 0.0000,  0.0000,  0.0000)
   5 Pt     7.097722    4.097872   10.000000    ( 0.0000,  0.0000,  0.0000)
   6 Pd     2.839089    6.556595   10.000000    ( 0.0000,  0.0000,  0.0000)
   7 Pt     5.678177    6.556595   10.000000    ( 0.0000,  0.0000,  0.0000)
   8 Ru     8.517266    6.556595   10.000000    ( 0.0000,  0.0000,  0.0000)
   9 Pd     0.000000    0.000000   12.317643    ( 0.0000,  0.0000,  0.0000)
  10 Pt     2.839089    0.000000   12.317643    ( 0.0000,  0.0000,  0.0000)
  11 Pd     5.678177    0.000000   12.317643    ( 0.0000,  0.0000,  0.0000)
  12 Pd     1.419544    2.458723   12.317643    ( 0.0000,  0.0000,  0.0000)
  13 Pt     4.258633    2.458723   12.317643    ( 0.0000,  0.0000,  0.0000)
  14 Ag     7.097722    2.458723   12.317643    ( 0.0000,  0.0000,  0.0000)
  15 Ag     2.839089    4.917446   12.317643    ( 0.0000,  0.0000,  0.0000)
  16 Ag     5.678177    4.917446   12.317643    ( 0.0000,  0.0000,  0.0000)
  17 Pt     8.517266    4.917446   12.317643    ( 0.0000,  0.0000,  0.0000)
  18 Pt     1.384489    0.803926   14.575450    ( 0.0000,  0.0000,  0.0000)
  19 Pt     4.325216    0.817070   14.611954    ( 0.0000,  0.0000,  0.0000)
  20 Ru     7.141884    0.912548   14.686751    ( 0.0000,  0.0000,  0.0000)
  21 Pt     2.833867    3.227091   14.671114    ( 0.0000,  0.0000,  0.0000)
  22 Pd     5.678024    3.251863   14.664380    ( 0.0000,  0.0000,  0.0000)
  23 Pt     8.532152    3.284523   14.643752    ( 0.0000,  0.0000,  0.0000)
  24 Ag     4.275890    5.721425   14.645329    ( 0.0000,  0.0000,  0.0000)
  25 Pt     7.168944    5.768861   14.623508    ( 0.0000,  0.0000,  0.0000)
  26 Ag     9.989022    5.745314   14.632967    ( 0.0000,  0.0000,  0.0000)
  27 Pt    -0.013197    1.654977   16.842403    ( 0.0000,  0.0000,  0.0000)
  28 Pd     2.850151    1.595833   16.893109    ( 0.0000,  0.0000,  0.0000)
  29 Pd     5.676477    1.632503   16.921480    ( 0.0000,  0.0000,  0.0000)
  30 Ir     1.437610    4.016349   17.004253    ( 0.0000,  0.0000,  0.0000)
  31 Pt     4.207830    4.041907   16.971395    ( 0.0000,  0.0000,  0.0000)
  32 Pd     7.078502    4.090967   16.925190    ( 0.0000,  0.0000,  0.0000)
  33 Pd     2.850916    6.594423   16.942051    ( 0.0000,  0.0000,  0.0000)
  34 Ag     5.670498    6.518694   16.966682    ( 0.0000,  0.0000,  0.0000)
  35 Pt     8.510193    6.548282   16.978417    ( 0.0000,  0.0000,  0.0000)
  36 Pt    -0.064473    0.010077   19.314888    ( 0.0000,  0.0000,  0.0000)
  37 Pt     2.893315    0.000200   19.336672    ( 0.0000,  0.0000,  0.0000)
  38 Pt     5.660737   -0.011678   19.214489    ( 0.0000,  0.0000,  0.0000)
  39 Pt     1.404735    2.485864   19.216629    ( 0.0000,  0.0000,  0.0000)
  40 Pd     4.268134    2.446701   19.259482    ( 0.0000,  0.0000,  0.0000)
  41 Pd     7.092477    2.444707   19.233978    ( 0.0000,  0.0000,  0.0000)
  42 Pt     2.791751    4.960155   19.150246    ( 0.0000,  0.0000,  0.0000)
  43 Ag     5.678718    4.906056   19.423515    ( 0.0000,  0.0000,  0.0000)
  44 Pt     8.559631    4.924987   19.181919    ( 0.0000,  0.0000,  0.0000)
  45 O      1.422721    0.832458   20.482813    ( 0.0000,  0.0000,  0.0000)

Unit cell:
           periodic     x           y           z      points  spacing
  1. axis:    yes    8.517266    0.000000    0.000000    40     0.1844
  2. axis:    yes    4.258633    7.376169    0.000000    40     0.1844
  3. axis:    no     0.000000    0.000000   29.270571   140     0.2091

  Lengths:   8.517266   8.517266  29.270571
  Angles:   90.000000  90.000000  60.000000

Effective grid spacing dv^(1/3) = 0.2017

     iter     time        total  log10-change:
                         energy  eigst   dens
iter:   1 21:31:39  -208.587766  -3.46
iter:   2 21:32:40  -339.281532  -2.08  -1.82
iter:   3 21:33:40  -211.408203  -2.56  -1.20
iter:   4 21:34:40  -202.933766  -3.44  -1.81
iter:   5 21:35:41  -201.668168  -4.35  -2.20
iter:   6 21:36:41  -201.459431  -4.70  -2.60
iter:   7 21:37:42  -201.500733c -4.73  -2.76
iter:   8 21:38:42  -201.347401c -4.51  -2.64
iter:   9 21:39:42  -201.322020c -5.17  -2.85
iter:  10 21:40:43  -201.324437c -5.75  -3.18
iter:  11 21:41:43  -201.310279c -6.17  -3.04
iter:  12 21:42:43  -201.308106c -5.75  -3.31
iter:  13 21:43:43  -201.306105c -6.47  -3.39
iter:  14 21:44:42  -201.305800c -6.23  -3.60
iter:  15 21:45:43  -201.305046c -6.45  -3.49
iter:  16 21:46:43  -201.304001c -7.12  -3.66
iter:  17 21:47:44  -201.303965c -7.29  -3.81
iter:  18 21:48:45  -201.303707c -7.05  -3.97
iter:  19 21:49:46  -201.304014c -7.57c -4.13c

Converged after 19 iterations.

Dipole moment: (32.221163, 14.056454, -0.081332) |e|*Ang

Energy contributions relative to reference atoms: (reference = -14174778.458134)

Kinetic:       -320.745128
Potential:     +176.181643
External:        +0.000000
XC:             -44.513955
Entropy (-ST):   -2.251314
Local:          -11.100918
--------------------------
Free energy:   -202.429671
Extrapolated:  -201.304014

Showing only first 2 kpts
 Kpt  Band  Eigenvalues  Occupancy
  0   364      0.65755    1.05444
  0   365      0.69648    0.86076
  0   366      0.71821    0.75620
  0   367      0.74977    0.61444

  1   364      0.55697    1.50604
  1   365      0.59272    1.36156
  1   366      0.62603    1.20900
  1   367      0.65567    1.06382


Fermi level: 0.66845

No gap

Forces in eV/Ang:
  0 Pd    0.01355   -0.01275   -0.26409
  1 Pt    0.29928   -0.51900    0.37197
  2 Pt   -0.34543   -0.13832    0.02106
  3 Pd   -0.41320    0.17907   -0.08606
  4 Pd    0.22030   -0.22445   -0.24354
  5 Pt    0.22177    0.31035   -0.19567
  6 Pd   -0.21575    0.22779   -0.10092
  7 Pt    0.54755    0.16779    0.07276
  8 Ru   -0.49033    0.05923    1.33406
  9 Pd   -0.22632    0.16687    0.18250
 10 Pt    0.30452    0.00324   -0.20622
 11 Pd    0.04108    0.05375   -0.10808
 12 Pd    0.08273    0.10584   -0.00732
 13 Pt   -0.18345   -0.16865    0.14099
 14 Ag    0.05653   -0.12054    0.02796
 15 Ag    0.00267   -0.07304   -0.12680
 16 Ag   -0.05860   -0.05292    0.07446
 17 Pt    0.02122    0.23455   -0.59293
 18 Pt    0.01489   -0.01313   -0.01828
 19 Pt    0.02589   -0.01646   -0.00406
 20 Ru   -0.00907   -0.05058   -0.03110
 21 Pt    0.01147    0.01213   -0.01633
 22 Pd    0.01556   -0.00020   -0.01521
 23 Pt    0.02916    0.03624   -0.02910
 24 Ag   -0.00530    0.01222    0.03723
 25 Pt    0.02411    0.01371    0.03451
 26 Ag    0.02496    0.01353    0.15907
 27 Pt    0.03098    0.00162    0.05610
 28 Pd   -0.03889   -0.05891    0.11773
 29 Pd    0.00997   -0.01058   -0.07817
 30 Ir   -0.00173    0.03905   -0.10206
 31 Pt    0.01358    0.00185   -0.05326
 32 Pd   -0.00623    0.02449   -0.04080
 33 Pd   -0.02348    0.01862   -0.10027
 34 Ag   -0.01532    0.05390    0.15561
 35 Pt    0.02428   -0.01481   -0.09388
 36 Pt   -0.44202   -0.24272   -0.04812
 37 Pt    0.43403   -0.26756   -0.18510
 38 Pt    0.01313    0.08054    0.06596
 39 Pt    0.00418    0.23685   -0.19037
 40 Pd    0.00728   -0.02532   -0.04103
 41 Pd    0.00957   -0.02964   -0.05746
 42 Pt    0.04388   -0.04179    0.08886
 43 Ag   -0.01372   -0.03399    0.01760
 44 Pt   -0.06162   -0.04110    0.04877
 45 O     0.00044    0.07927    0.04825

System changes: positions 

Initializing position-dependent things.

Density initialized from wave functions
                                              
                                              
                                              
                                              
                                              
                                              
                         Ag                   
                  Pt            Pt            
            OPt    PPd    APd    Pt           
                                              
       Pt     IPt    PPt    Pd                
                       Pd                     
         Pt     Pd    Ag     Pt     Ag        
                 Pt     Pd     Pt             
                                              
           Pt     APt    ARu    Pt            
                                              
             Pd    PPt    PAg    Ru           
        Pd    PPt    PPd    Pt                
                                              
         Pd     Pt     Pt                     
                                              
                                              
                                              
                                              
                                              

Positions:
   0 Pd     0.000000    1.639149   10.000000    ( 0.0000,  0.0000,  0.0000)
   1 Pt     2.839089    1.639149   10.000000    ( 0.0000,  0.0000,  0.0000)
   2 Pt     5.678177    1.639149   10.000000    ( 0.0000,  0.0000,  0.0000)
   3 Pd     1.419544    4.097872   10.000000    ( 0.0000,  0.0000,  0.0000)
   4 Pd     4.258633    4.097872   10.000000    ( 0.0000,  0.0000,  0.0000)
   5 Pt     7.097722    4.097872   10.000000    ( 0.0000,  0.0000,  0.0000)
   6 Pd     2.839089    6.556595   10.000000    ( 0.0000,  0.0000,  0.0000)
   7 Pt     5.678177    6.556595   10.000000    ( 0.0000,  0.0000,  0.0000)
   8 Ru     8.517266    6.556595   10.000000    ( 0.0000,  0.0000,  0.0000)
   9 Pd     0.000000    0.000000   12.317643    ( 0.0000,  0.0000,  0.0000)
  10 Pt     2.839089    0.000000   12.317643    ( 0.0000,  0.0000,  0.0000)
  11 Pd     5.678177    0.000000   12.317643    ( 0.0000,  0.0000,  0.0000)
  12 Pd     1.419544    2.458723   12.317643    ( 0.0000,  0.0000,  0.0000)
  13 Pt     4.258633    2.458723   12.317643    ( 0.0000,  0.0000,  0.0000)
  14 Ag     7.097722    2.458723   12.317643    ( 0.0000,  0.0000,  0.0000)
  15 Ag     2.839089    4.917446   12.317643    ( 0.0000,  0.0000,  0.0000)
  16 Ag     5.678177    4.917446   12.317643    ( 0.0000,  0.0000,  0.0000)
  17 Pt     8.517266    4.917446   12.317643    ( 0.0000,  0.0000,  0.0000)
  18 Pt     1.385042    0.803840   14.575092    ( 0.0000,  0.0000,  0.0000)
  19 Pt     4.326332    0.816790   14.611720    ( 0.0000,  0.0000,  0.0000)
  20 Ru     7.141406    0.910791   14.684323    ( 0.0000,  0.0000,  0.0000)
  21 Pt     2.834424    3.227631   14.670364    ( 0.0000,  0.0000,  0.0000)
  22 Pd     5.679312    3.251685   14.663807    ( 0.0000,  0.0000,  0.0000)
  23 Pt     8.532840    3.285578   14.642583    ( 0.0000,  0.0000,  0.0000)
  24 Ag     4.275942    5.721526   14.646070    ( 0.0000,  0.0000,  0.0000)
  25 Pt     7.170016    5.768854   14.624489    ( 0.0000,  0.0000,  0.0000)
  26 Ag     9.989820    5.746353   14.635398    ( 0.0000,  0.0000,  0.0000)
  27 Pt    -0.012856    1.655618   16.841703    ( 0.0000,  0.0000,  0.0000)
  28 Pd     2.849689    1.594399   16.894114    ( 0.0000,  0.0000,  0.0000)
  29 Pd     5.676834    1.632617   16.919035    ( 0.0000,  0.0000,  0.0000)
  30 Ir     1.437916    4.013019   17.005022    ( 0.0000,  0.0000,  0.0000)
  31 Pt     4.208394    4.041442   16.969561    ( 0.0000,  0.0000,  0.0000)
  32 Pd     7.078073    4.090853   16.923762    ( 0.0000,  0.0000,  0.0000)
  33 Pd     2.851807    6.596028   16.943846    ( 0.0000,  0.0000,  0.0000)
  34 Ag     5.669898    6.519370   16.969717    ( 0.0000,  0.0000,  0.0000)
  35 Pt     8.509079    6.549220   16.979393    ( 0.0000,  0.0000,  0.0000)
  36 Pt    -0.079695   -0.000210   19.322032    ( 0.0000,  0.0000,  0.0000)
  37 Pt     2.907130   -0.010733   19.340211    ( 0.0000,  0.0000,  0.0000)
  38 Pt     5.661168   -0.009687   19.213908    ( 0.0000,  0.0000,  0.0000)
  39 Pt     1.405964    2.499159   19.217122    ( 0.0000,  0.0000,  0.0000)
  40 Pd     4.270364    2.448035   19.257148    ( 0.0000,  0.0000,  0.0000)
  41 Pd     7.089573    2.446049   19.231133    ( 0.0000,  0.0000,  0.0000)
  42 Pt     2.792240    4.959204   19.151303    ( 0.0000,  0.0000,  0.0000)
  43 Ag     5.678338    4.903149   19.423991    ( 0.0000,  0.0000,  0.0000)
  44 Pt     8.558280    4.923520   19.181994    ( 0.0000,  0.0000,  0.0000)
  45 O      1.423956    0.833714   20.457909    ( 0.0000,  0.0000,  0.0000)

Unit cell:
           periodic     x           y           z      points  spacing
  1. axis:    yes    8.517266    0.000000    0.000000    40     0.1844
  2. axis:    yes    4.258633    7.376169    0.000000    40     0.1844
  3. axis:    no     0.000000    0.000000   29.270571   140     0.2091

  Lengths:   8.517266   8.517266  29.270571
  Angles:   90.000000  90.000000  60.000000

Effective grid spacing dv^(1/3) = 0.2017

     iter     time        total  log10-change:
                         energy  eigst   dens
iter:   1 21:51:06  -201.386860  -4.17
iter:   2 21:52:07  -203.547949  -4.15  -2.81
iter:   3 21:53:08  -201.389988  -4.55  -2.06
iter:   4 21:54:08  -201.334666  -5.62  -2.79
iter:   5 21:55:08  -201.322140c -6.13  -3.09
iter:   6 21:56:10  -201.320953c -6.45  -3.60
iter:   7 21:57:11  -201.321025c -6.73  -3.69
iter:   8 21:58:11  -201.320929c -7.05  -3.77
iter:   9 21:59:12  -201.321791c -6.68  -3.82
iter:  10 22:00:13  -201.321384c -7.23  -3.78
iter:  11 22:01:14  -201.320640c -7.37  -3.82
iter:  12 22:02:15  -201.320557c -7.74c -4.06c

Converged after 12 iterations.

Dipole moment: (33.432275, 14.943091, -0.076684) |e|*Ang

Energy contributions relative to reference atoms: (reference = -14174778.458134)

Kinetic:       -321.969274
Potential:     +177.450551
External:        +0.000000
XC:             -44.554765
Entropy (-ST):   -2.252509
Local:          -11.120815
--------------------------
Free energy:   -202.446812
Extrapolated:  -201.320557

Showing only first 2 kpts
 Kpt  Band  Eigenvalues  Occupancy
  0   364      0.66004    1.05362
  0   365      0.69850    0.86221
  0   366      0.71981    0.75961
  0   367      0.74995    0.62357

  1   364      0.56222    1.49508
  1   365      0.59592    1.35772
  1   366      0.62852    1.20816
  1   367      0.65727    1.06742


Fermi level: 0.67077

No gap

Forces in eV/Ang:
  0 Pd    0.01413   -0.01348   -0.25944
  1 Pt    0.29817   -0.51709    0.37534
  2 Pt   -0.34563   -0.13766    0.02377
  3 Pd   -0.41235    0.17850   -0.08151
  4 Pd    0.22034   -0.22452   -0.24037
  5 Pt    0.22123    0.30997   -0.19090
  6 Pd   -0.21507    0.22728   -0.09763
  7 Pt    0.54528    0.16834    0.07662
  8 Ru   -0.48946    0.05905    1.34283
  9 Pd   -0.21992    0.16359    0.18411
 10 Pt    0.30346    0.00091   -0.19857
 11 Pd    0.03890    0.04933   -0.10806
 12 Pd    0.08483    0.10448   -0.00318
 13 Pt   -0.18566   -0.16714    0.14101
 14 Ag    0.05773   -0.11679    0.02601
 15 Ag    0.00112   -0.07248   -0.11953
 16 Ag   -0.05813   -0.04991    0.08188
 17 Pt    0.02292    0.23767   -0.58664
 18 Pt    0.01580   -0.01337   -0.00916
 19 Pt    0.00846   -0.01221   -0.01081
 20 Ru    0.00790   -0.03137   -0.01911
 21 Pt    0.00688    0.00209   -0.01484
 22 Pd    0.01285    0.00209   -0.02473
 23 Pt    0.02857    0.02730   -0.02905
 24 Ag    0.00475    0.01480    0.03488
 25 Pt    0.01579    0.01926    0.02469
 26 Ag    0.02001   -0.00309    0.15862
 27 Pt    0.05193   -0.02895    0.07848
 28 Pd   -0.06067   -0.07019    0.13034
 29 Pd    0.01113   -0.01427   -0.08429
 30 Ir    0.00200    0.10716   -0.15541
 31 Pt   -0.00096    0.01147   -0.05477
 32 Pd    0.00079    0.03253   -0.05120
 33 Pd   -0.02997   -0.00128   -0.13520
 34 Ag   -0.02395    0.08463    0.17438
 35 Pt    0.04991   -0.03828   -0.13170
 36 Pt   -0.30396   -0.15196   -0.07072
 37 Pt    0.29316   -0.17717   -0.19461
 38 Pt    0.01490    0.06982    0.08416
 39 Pt   -0.00891    0.08068   -0.18641
 40 Pd   -0.03236   -0.05146   -0.02561
 41 Pd    0.06337   -0.06118   -0.04113
 42 Pt    0.02739   -0.04842    0.08152
 43 Ag   -0.01647    0.00201    0.03131
 44 Pt   -0.04135   -0.03767    0.05352
 45 O    -0.00517    0.05784    0.19043

System changes: positions 

Initializing position-dependent things.

Density initialized from wave functions
                                              
                                              
                                              
                                              
                                              
                                              
                         Ag     Pt            
                  Pt                          
            OPt    PPd    APd    Pt           
                                              
       Pt     IPt    PPt    Pd                
                       Pd                     
         Pt     Pd    Ag     Pt     Ag        
                 Pt     Pd     Pt             
                                              
            Pt    APt    ARu    Pt            
                                              
             Pd    PPt    PAg    Ru           
        Pd    PPt    PPd    Pt                
                                              
         Pd     Pt     Pt                     
                                              
                                              
                                              
                                              
                                              

Positions:
   0 Pd     0.000000    1.639149   10.000000    ( 0.0000,  0.0000,  0.0000)
   1 Pt     2.839089    1.639149   10.000000    ( 0.0000,  0.0000,  0.0000)
   2 Pt     5.678177    1.639149   10.000000    ( 0.0000,  0.0000,  0.0000)
   3 Pd     1.419544    4.097872   10.000000    ( 0.0000,  0.0000,  0.0000)
   4 Pd     4.258633    4.097872   10.000000    ( 0.0000,  0.0000,  0.0000)
   5 Pt     7.097722    4.097872   10.000000    ( 0.0000,  0.0000,  0.0000)
   6 Pd     2.839089    6.556595   10.000000    ( 0.0000,  0.0000,  0.0000)
   7 Pt     5.678177    6.556595   10.000000    ( 0.0000,  0.0000,  0.0000)
   8 Ru     8.517266    6.556595   10.000000    ( 0.0000,  0.0000,  0.0000)
   9 Pd     0.000000    0.000000   12.317643    ( 0.0000,  0.0000,  0.0000)
  10 Pt     2.839089    0.000000   12.317643    ( 0.0000,  0.0000,  0.0000)
  11 Pd     5.678177    0.000000   12.317643    ( 0.0000,  0.0000,  0.0000)
  12 Pd     1.419544    2.458723   12.317643    ( 0.0000,  0.0000,  0.0000)
  13 Pt     4.258633    2.458723   12.317643    ( 0.0000,  0.0000,  0.0000)
  14 Ag     7.097722    2.458723   12.317643    ( 0.0000,  0.0000,  0.0000)
  15 Ag     2.839089    4.917446   12.317643    ( 0.0000,  0.0000,  0.0000)
  16 Ag     5.678177    4.917446   12.317643    ( 0.0000,  0.0000,  0.0000)
  17 Pt     8.517266    4.917446   12.317643    ( 0.0000,  0.0000,  0.0000)
  18 Pt     1.385780    0.803427   14.574570    ( 0.0000,  0.0000,  0.0000)
  19 Pt     4.327182    0.816326   14.611316    ( 0.0000,  0.0000,  0.0000)
  20 Ru     7.141298    0.908978   14.682516    ( 0.0000,  0.0000,  0.0000)
  21 Pt     2.834941    3.227942   14.669529    ( 0.0000,  0.0000,  0.0000)
  22 Pd     5.680325    3.251645   14.662892    ( 0.0000,  0.0000,  0.0000)
  23 Pt     8.533964    3.286880   14.641168    ( 0.0000,  0.0000,  0.0000)
  24 Ag     4.276072    5.721979   14.647417    ( 0.0000,  0.0000,  0.0000)
  25 Pt     7.170982    5.769367   14.625700    ( 0.0000,  0.0000,  0.0000)
  26 Ag     9.990805    5.746873   14.641072    ( 0.0000,  0.0000,  0.0000)
  27 Pt    -0.011375    1.655349   16.843382    ( 0.0000,  0.0000,  0.0000)
  28 Pd     2.847902    1.591827   16.898148    ( 0.0000,  0.0000,  0.0000)
  29 Pd     5.677319    1.632354   16.915440    ( 0.0000,  0.0000,  0.0000)
  30 Ir     1.438078    4.014044   17.001336    ( 0.0000,  0.0000,  0.0000)
  31 Pt     4.208827    4.041444   16.967151    ( 0.0000,  0.0000,  0.0000)
  32 Pd     7.077751    4.091627   16.921681    ( 0.0000,  0.0000,  0.0000)
  33 Pd     2.851424    6.596911   16.941118    ( 0.0000,  0.0000,  0.0000)
  34 Ag     5.668987    6.521865   16.976008    ( 0.0000,  0.0000,  0.0000)
  35 Pt     8.509815    6.548746   16.976350    ( 0.0000,  0.0000,  0.0000)
  36 Pt    -0.096512   -0.010120   19.323682    ( 0.0000,  0.0000,  0.0000)
  37 Pt     2.922961   -0.021628   19.336523    ( 0.0000,  0.0000,  0.0000)
  38 Pt     5.661798   -0.006657   19.216059    ( 0.0000,  0.0000,  0.0000)
  39 Pt     1.406428    2.508967   19.212056    ( 0.0000,  0.0000,  0.0000)
  40 Pd     4.270824    2.447490   19.255395    ( 0.0000,  0.0000,  0.0000)
  41 Pd     7.089535    2.445264   19.228688    ( 0.0000,  0.0000,  0.0000)
  42 Pt     2.793393    4.957356   19.154351    ( 0.0000,  0.0000,  0.0000)
  43 Ag     5.677703    4.901569   19.425182    ( 0.0000,  0.0000,  0.0000)
  44 Pt     8.556298    4.921677   19.183690    ( 0.0000,  0.0000,  0.0000)
  45 O      1.424408    0.836129   20.451105    ( 0.0000,  0.0000,  0.0000)

Unit cell:
           periodic     x           y           z      points  spacing
  1. axis:    yes    8.517266    0.000000    0.000000    40     0.1844
  2. axis:    yes    4.258633    7.376169    0.000000    40     0.1844
  3. axis:    no     0.000000    0.000000   29.270571   140     0.2091

  Lengths:   8.517266   8.517266  29.270571
  Angles:   90.000000  90.000000  60.000000

Effective grid spacing dv^(1/3) = 0.2017

     iter     time        total  log10-change:
                         energy  eigst   dens
iter:   1 22:03:36  -201.608498  -4.12
iter:   2 22:04:37  -210.669686  -3.58  -2.51
iter:   3 22:05:38  -201.371470  -3.77  -1.78
iter:   4 22:06:38  -201.362233  -5.15  -3.02
iter:   5 22:07:38  -201.341345c -5.65  -3.00
iter:   6 22:08:38  -201.339703c -6.35  -3.37
iter:   7 22:09:39  -201.337919c -6.52  -3.54
iter:   8 22:10:40  -201.336796c -6.36  -3.60
iter:   9 22:11:41  -201.338007c -6.97  -3.74
iter:  10 22:12:41  -201.336873c -6.88  -3.81
iter:  11 22:13:41  -201.336970c -7.09  -3.83
iter:  12 22:14:41  -201.336872c -7.43c -3.90
iter:  13 22:15:41  -201.336838c -7.83c -3.97
iter:  14 22:16:41  -201.336625c -7.83c -4.14c

Converged after 14 iterations.

Dipole moment: (34.531543, 15.748206, -0.078776) |e|*Ang

Energy contributions relative to reference atoms: (reference = -14174778.458134)

Kinetic:       -322.235547
Potential:     +177.632278
External:        +0.000000
XC:             -44.468028
Entropy (-ST):   -2.255526
Local:          -11.137565
--------------------------
Free energy:   -202.464388
Extrapolated:  -201.336625

Showing only first 2 kpts
 Kpt  Band  Eigenvalues  Occupancy
  0   364      0.65787    1.05375
  0   365      0.69655    0.86131
  0   366      0.71789    0.75854
  0   367      0.74614    0.63073

  1   364      0.56178    1.48862
  1   365      0.59387    1.35729
  1   366      0.62830    1.19894
  1   367      0.65382    1.07391


Fermi level: 0.66863

No gap

Forces in eV/Ang:
  0 Pd    0.01470   -0.01312   -0.26210
  1 Pt    0.29577   -0.51451    0.37300
  2 Pt   -0.34406   -0.13509    0.02105
  3 Pd   -0.41061    0.17655   -0.08147
  4 Pd    0.21943   -0.22391   -0.24167
  5 Pt    0.21963    0.30836   -0.19345
  6 Pd   -0.21303    0.22589   -0.09679
  7 Pt    0.54303    0.16791    0.07447
  8 Ru   -0.48914    0.05722    1.33912
  9 Pd   -0.22109    0.16086    0.18188
 10 Pt    0.30651   -0.00146   -0.20409
 11 Pd    0.03993    0.04182   -0.10481
 12 Pd    0.08635    0.10447   -0.00986
 13 Pt   -0.18567   -0.16657    0.13765
 14 Ag    0.05809   -0.11741    0.02058
 15 Ag   -0.00349   -0.06772   -0.11235
 16 Ag   -0.05820   -0.04780    0.08363
 17 Pt    0.02880    0.24528   -0.58302
 18 Pt    0.01072   -0.00497   -0.00115
 19 Pt   -0.00261    0.00303   -0.02116
 20 Ru    0.02324   -0.00729   -0.01618
 21 Pt    0.01331   -0.02003   -0.01047
 22 Pd    0.01057    0.00363   -0.03038
 23 Pt    0.01616   -0.00184   -0.02475
 24 Ag    0.02356    0.01377    0.02112
 25 Pt   -0.00430    0.01648    0.00511
 26 Ag    0.01862   -0.00521    0.08235
 27 Pt    0.03181   -0.00319    0.02833
 28 Pd   -0.03581   -0.03177    0.07935
 29 Pd    0.00807   -0.00386   -0.06546
 30 Ir    0.00761    0.10669   -0.12529
 31 Pt   -0.00277   -0.00052   -0.03590
 32 Pd   -0.00476    0.02193   -0.03721
 33 Pd   -0.03955   -0.01382   -0.10353
 34 Ag   -0.02395    0.05709    0.14753
 35 Pt    0.06447   -0.04296   -0.09878
 36 Pt   -0.07329   -0.03546    0.01716
 37 Pt    0.03960   -0.03832   -0.08258
 38 Pt    0.01791    0.02104    0.03997
 39 Pt   -0.00587   -0.09746   -0.10490
 40 Pd   -0.04341   -0.04363   -0.03285
 41 Pd    0.06712   -0.04916   -0.04594
 42 Pt   -0.00658   -0.04616    0.02400
 43 Ag   -0.01646    0.01504    0.02651
 44 Pt   -0.00568   -0.02723    0.00857
 45 O     0.01249    0.00901   -0.01589

System changes: positions 

Initializing position-dependent things.

Density initialized from wave functions
                                              
                                              
                                              
                                              
                                              
                                              
                  Pt     Ag     Pt            
                                              
            OPt    PPd    APd    Pt           
                                              
       Pt     IPt    PPt    Pd                
                       Pd                     
         Pt     Pd    Ag     Pt     Ag        
                 Pt     Pd     Pt             
                                              
            Pt    APt    ARu    Pt            
                                              
             Pd    PPt    PAg    Ru           
        Pd    PPt    PPd    Pt                
                                              
         Pd     Pt     Pt                     
                                              
                                              
                                              
                                              
                                              

Positions:
   0 Pd     0.000000    1.639149   10.000000    ( 0.0000,  0.0000,  0.0000)
   1 Pt     2.839089    1.639149   10.000000    ( 0.0000,  0.0000,  0.0000)
   2 Pt     5.678177    1.639149   10.000000    ( 0.0000,  0.0000,  0.0000)
   3 Pd     1.419544    4.097872   10.000000    ( 0.0000,  0.0000,  0.0000)
   4 Pd     4.258633    4.097872   10.000000    ( 0.0000,  0.0000,  0.0000)
   5 Pt     7.097722    4.097872   10.000000    ( 0.0000,  0.0000,  0.0000)
   6 Pd     2.839089    6.556595   10.000000    ( 0.0000,  0.0000,  0.0000)
   7 Pt     5.678177    6.556595   10.000000    ( 0.0000,  0.0000,  0.0000)
   8 Ru     8.517266    6.556595   10.000000    ( 0.0000,  0.0000,  0.0000)
   9 Pd     0.000000    0.000000   12.317643    ( 0.0000,  0.0000,  0.0000)
  10 Pt     2.839089    0.000000   12.317643    ( 0.0000,  0.0000,  0.0000)
  11 Pd     5.678177    0.000000   12.317643    ( 0.0000,  0.0000,  0.0000)
  12 Pd     1.419544    2.458723   12.317643    ( 0.0000,  0.0000,  0.0000)
  13 Pt     4.258633    2.458723   12.317643    ( 0.0000,  0.0000,  0.0000)
  14 Ag     7.097722    2.458723   12.317643    ( 0.0000,  0.0000,  0.0000)
  15 Ag     2.839089    4.917446   12.317643    ( 0.0000,  0.0000,  0.0000)
  16 Ag     5.678177    4.917446   12.317643    ( 0.0000,  0.0000,  0.0000)
  17 Pt     8.517266    4.917446   12.317643    ( 0.0000,  0.0000,  0.0000)
  18 Pt     1.386315    0.803168   14.574299    ( 0.0000,  0.0000,  0.0000)
  19 Pt     4.327542    0.816208   14.610716    ( 0.0000,  0.0000,  0.0000)
  20 Ru     7.141678    0.908017   14.681334    ( 0.0000,  0.0000,  0.0000)
  21 Pt     2.835470    3.227660   14.668943    ( 0.0000,  0.0000,  0.0000)
  22 Pd     5.681003    3.251692   14.661909    ( 0.0000,  0.0000,  0.0000)
  23 Pt     8.534753    3.287386   14.640052    ( 0.0000,  0.0000,  0.0000)
  24 Ag     4.276609    5.722439   14.648407    ( 0.0000,  0.0000,  0.0000)
  25 Pt     7.171309    5.769891   14.626332    ( 0.0000,  0.0000,  0.0000)
  26 Ag     9.991625    5.747063   14.645042    ( 0.0000,  0.0000,  0.0000)
  27 Pt    -0.010215    1.655343   16.844463    ( 0.0000,  0.0000,  0.0000)
  28 Pd     2.846540    1.590186   16.901312    ( 0.0000,  0.0000,  0.0000)
  29 Pd     5.677686    1.632216   16.912592    ( 0.0000,  0.0000,  0.0000)
  30 Ir     1.438300    4.016315   16.997522    ( 0.0000,  0.0000,  0.0000)
  31 Pt     4.209036    4.041362   16.965416    ( 0.0000,  0.0000,  0.0000)
  32 Pd     7.077452    4.092334   16.920082    ( 0.0000,  0.0000,  0.0000)
  33 Pd     2.850499    6.597093   16.938113    ( 0.0000,  0.0000,  0.0000)
  34 Ag     5.668138    6.523918   16.981576    ( 0.0000,  0.0000,  0.0000)
  35 Pt     8.511336    6.547779   16.973290    ( 0.0000,  0.0000,  0.0000)
  36 Pt    -0.105489   -0.015372   19.325146    ( 0.0000,  0.0000,  0.0000)
  37 Pt     2.930781   -0.027322   19.333651    ( 0.0000,  0.0000,  0.0000)
  38 Pt     5.662435   -0.004954   19.217662    ( 0.0000,  0.0000,  0.0000)
  39 Pt     1.406595    2.511709   19.207977    ( 0.0000,  0.0000,  0.0000)
  40 Pd     4.270326    2.446546   19.253933    ( 0.0000,  0.0000,  0.0000)
  41 Pd     7.090598    2.444131   19.226662    ( 0.0000,  0.0000,  0.0000)
  42 Pt     2.793760    4.955641   19.156116    ( 0.0000,  0.0000,  0.0000)
  43 Ag     5.677104    4.901038   19.426219    ( 0.0000,  0.0000,  0.0000)
  44 Pt     8.555305    4.920315   19.184532    ( 0.0000,  0.0000,  0.0000)
  45 O      1.424917    0.837354   20.446651    ( 0.0000,  0.0000,  0.0000)

Unit cell:
           periodic     x           y           z      points  spacing
  1. axis:    yes    8.517266    0.000000    0.000000    40     0.1844
  2. axis:    yes    4.258633    7.376169    0.000000    40     0.1844
  3. axis:    no     0.000000    0.000000   29.270571   140     0.2091

  Lengths:   8.517266   8.517266  29.270571
  Angles:   90.000000  90.000000  60.000000

Effective grid spacing dv^(1/3) = 0.2017

     iter     time        total  log10-change:
                         energy  eigst   dens
iter:   1 22:18:01  -202.280551  -4.31
iter:   2 22:19:02  -233.621329  -2.97  -2.23
iter:   3 22:20:03  -202.588126  -3.30  -1.50
iter:   4 22:21:04  -201.497658  -4.44  -2.21
iter:   5 22:22:06  -201.404108  -5.29  -2.66
iter:   6 22:23:07  -201.348005c -5.46  -2.86
iter:   7 22:24:08  -201.346164c -6.07  -3.55
iter:   8 22:25:10  -201.343530c -6.28  -3.68
iter:   9 22:26:13  -201.344193c -6.68  -3.81
iter:  10 22:27:15  -201.343630c -6.96  -3.77
iter:  11 22:28:16  -201.343399c -6.83  -3.92
iter:  12 22:29:18  -201.343004c -7.40c -3.93
iter:  13 22:30:19  -201.343143c -7.66c -4.28c

Converged after 13 iterations.

Dipole moment: (35.034064, 16.159324, -0.080879) |e|*Ang

Energy contributions relative to reference atoms: (reference = -14174778.458134)

Kinetic:       -322.043967
Potential:     +177.397558
External:        +0.000000
XC:             -44.438965
Entropy (-ST):   -2.256023
Local:          -11.129757
--------------------------
Free energy:   -202.471154
Extrapolated:  -201.343143

Showing only first 2 kpts
 Kpt  Band  Eigenvalues  Occupancy
  0   364      0.65777    1.05239
  0   365      0.69666    0.85892
  0   366      0.71762    0.75805
  0   367      0.74539    0.63237

  1   364      0.56267    1.48381
  1   365      0.59319    1.35864
  1   366      0.62909    1.19335
  1   367      0.65274    1.07742


Fermi level: 0.66826

No gap

Forces in eV/Ang:
  0 Pd    0.01402   -0.01249   -0.26249
  1 Pt    0.29634   -0.51631    0.37306
  2 Pt   -0.34447   -0.13732    0.02180
  3 Pd   -0.41007    0.17890   -0.07916
  4 Pd    0.21856   -0.22196   -0.23775
  5 Pt    0.21953    0.31122   -0.19098
  6 Pd   -0.21515    0.22420   -0.09424
  7 Pt    0.54548    0.16569    0.07681
  8 Ru   -0.48833    0.05576    1.33883
  9 Pd   -0.22209    0.15808    0.18422
 10 Pt    0.30721   -0.00478   -0.20332
 11 Pd    0.04262    0.03804   -0.10023
 12 Pd    0.08661    0.10627   -0.00994
 13 Pt   -0.18475   -0.16384    0.13881
 14 Ag    0.05863   -0.11738    0.02076
 15 Ag   -0.00472   -0.06503   -0.10665
 16 Ag   -0.05819   -0.04662    0.08563
 17 Pt    0.02977    0.24763   -0.57904
 18 Pt    0.00912   -0.00350    0.01604
 19 Pt   -0.00735    0.00874   -0.01263
 20 Ru    0.02668    0.00513   -0.00801
 21 Pt    0.01561   -0.02785    0.00128
 22 Pd    0.00931    0.00465   -0.02532
 23 Pt    0.00766   -0.01276   -0.01313
 24 Ag    0.03410    0.01166    0.01739
 25 Pt   -0.01559    0.01421    0.00621
 26 Ag    0.01676   -0.00649    0.03492
 27 Pt    0.01801    0.00943    0.00457
 28 Pd   -0.01356   -0.01135    0.04143
 29 Pd    0.00377   -0.00241   -0.04026
 30 Ir    0.00859    0.08565   -0.09130
 31 Pt   -0.00379   -0.00406   -0.01917
 32 Pd   -0.00529    0.02038   -0.02058
 33 Pd   -0.02752   -0.01301   -0.05834
 34 Ag   -0.01960    0.03346    0.11711
 35 Pt    0.04920   -0.03479   -0.05996
 36 Pt   -0.02242   -0.00619    0.03861
 37 Pt   -0.01283   -0.00284   -0.04417
 38 Pt    0.01435   -0.00367    0.00608
 39 Pt   -0.00736   -0.10751   -0.07538
 40 Pd   -0.03488   -0.03706   -0.04129
 41 Pd    0.05446   -0.03780   -0.05223
 42 Pt   -0.01847   -0.03743   -0.01076
 43 Ag   -0.01366    0.00775    0.01615
 44 Pt    0.00642   -0.01906   -0.02093
 45 O     0.01405    0.00830   -0.04801

System changes: positions 

Initializing position-dependent things.

Density initialized from wave functions
                                              
                                              
                                              
                                              
                                              
                                              
                  Pt     Ag     Pt            
                                              
            OPt    PPd    APd    Pt           
                                              
       Pt     IPt    PPt    Pd                
                       Pd                     
         Pt     Pd    Ag     Pt     Ag        
                 Pt     Pd     Pt             
                                              
            Pt    APt    ARu    Pt            
                                              
             Pd    PPt    PAg    Ru           
        Pd    PPt    PPd    Pt                
                                              
         Pd     Pt     Pt                     
                                              
                                              
                                              
                                              
                                              

Positions:
   0 Pd     0.000000    1.639149   10.000000    ( 0.0000,  0.0000,  0.0000)
   1 Pt     2.839089    1.639149   10.000000    ( 0.0000,  0.0000,  0.0000)
   2 Pt     5.678177    1.639149   10.000000    ( 0.0000,  0.0000,  0.0000)
   3 Pd     1.419544    4.097872   10.000000    ( 0.0000,  0.0000,  0.0000)
   4 Pd     4.258633    4.097872   10.000000    ( 0.0000,  0.0000,  0.0000)
   5 Pt     7.097722    4.097872   10.000000    ( 0.0000,  0.0000,  0.0000)
   6 Pd     2.839089    6.556595   10.000000    ( 0.0000,  0.0000,  0.0000)
   7 Pt     5.678177    6.556595   10.000000    ( 0.0000,  0.0000,  0.0000)
   8 Ru     8.517266    6.556595   10.000000    ( 0.0000,  0.0000,  0.0000)
   9 Pd     0.000000    0.000000   12.317643    ( 0.0000,  0.0000,  0.0000)
  10 Pt     2.839089    0.000000   12.317643    ( 0.0000,  0.0000,  0.0000)
  11 Pd     5.678177    0.000000   12.317643    ( 0.0000,  0.0000,  0.0000)
  12 Pd     1.419544    2.458723   12.317643    ( 0.0000,  0.0000,  0.0000)
  13 Pt     4.258633    2.458723   12.317643    ( 0.0000,  0.0000,  0.0000)
  14 Ag     7.097722    2.458723   12.317643    ( 0.0000,  0.0000,  0.0000)
  15 Ag     2.839089    4.917446   12.317643    ( 0.0000,  0.0000,  0.0000)
  16 Ag     5.678177    4.917446   12.317643    ( 0.0000,  0.0000,  0.0000)
  17 Pt     8.517266    4.917446   12.317643    ( 0.0000,  0.0000,  0.0000)
  18 Pt     1.387086    0.802814   14.574488    ( 0.0000,  0.0000,  0.0000)
  19 Pt     4.327783    0.816288   14.609922    ( 0.0000,  0.0000,  0.0000)
  20 Ru     7.142620    0.907124   14.679921    ( 0.0000,  0.0000,  0.0000)
  21 Pt     2.836395    3.226750   14.668436    ( 0.0000,  0.0000,  0.0000)
  22 Pd     5.681944    3.251841   14.660393    ( 0.0000,  0.0000,  0.0000)
  23 Pt     8.535707    3.287634   14.638670    ( 0.0000,  0.0000,  0.0000)
  24 Ag     4.277962    5.723156   14.649842    ( 0.0000,  0.0000,  0.0000)
  25 Pt     7.171280    5.770728   14.627221    ( 0.0000,  0.0000,  0.0000)
  26 Ag     9.992861    5.747161   14.649754    ( 0.0000,  0.0000,  0.0000)
  27 Pt    -0.008718    1.655667   16.845531    ( 0.0000,  0.0000,  0.0000)
  28 Pd     2.844995    1.588315   16.905286    ( 0.0000,  0.0000,  0.0000)
  29 Pd     5.678126    1.632025   16.908874    ( 0.0000,  0.0000,  0.0000)
  30 Ir     1.438714    4.020203   16.991879    ( 0.0000,  0.0000,  0.0000)
  31 Pt     4.209215    4.041152   16.963262    ( 0.0000,  0.0000,  0.0000)
  32 Pd     7.077000    4.093509   16.918068    ( 0.0000,  0.0000,  0.0000)
  33 Pd     2.849092    6.597103   16.934134    ( 0.0000,  0.0000,  0.0000)
  34 Ag     5.666861    6.526602   16.989777    ( 0.0000,  0.0000,  0.0000)
  35 Pt     8.513766    6.546151   16.969138    ( 0.0000,  0.0000,  0.0000)
  36 Pt    -0.115984   -0.021379   19.327710    ( 0.0000,  0.0000,  0.0000)
  37 Pt     2.939308   -0.033722   19.329869    ( 0.0000,  0.0000,  0.0000)
  38 Pt     5.663383   -0.003305   19.219247    ( 0.0000,  0.0000,  0.0000)
  39 Pt     1.406640    2.513096   19.202153    ( 0.0000,  0.0000,  0.0000)
  40 Pd     4.269263    2.444872   19.251395    ( 0.0000,  0.0000,  0.0000)
  41 Pd     7.092619    2.442287   19.223297    ( 0.0000,  0.0000,  0.0000)
  42 Pt     2.793750    4.953085   19.157601    ( 0.0000,  0.0000,  0.0000)
  43 Ag     5.676201    4.900437   19.427588    ( 0.0000,  0.0000,  0.0000)
  44 Pt     8.554371    4.918483   19.184809    ( 0.0000,  0.0000,  0.0000)
  45 O      1.425758    0.838995   20.440484    ( 0.0000,  0.0000,  0.0000)

Unit cell:
           periodic     x           y           z      points  spacing
  1. axis:    yes    8.517266    0.000000    0.000000    40     0.1844
  2. axis:    yes    4.258633    7.376169    0.000000    40     0.1844
  3. axis:    no     0.000000    0.000000   29.270571   140     0.2091

  Lengths:   8.517266   8.517266  29.270571
  Angles:   90.000000  90.000000  60.000000

Effective grid spacing dv^(1/3) = 0.2017

     iter     time        total  log10-change:
                         energy  eigst   dens
iter:   1 22:31:40  -201.392735  -4.35
iter:   2 22:32:41  -203.202854  -4.28  -2.86
iter:   3 22:33:42  -201.373982  -4.52  -2.09
iter:   4 22:34:44  -201.349583  -5.74  -3.14
iter:   5 22:35:45  -201.348457c -6.56  -3.62
iter:   6 22:36:46  -201.348031c -6.74  -3.56
iter:   7 22:37:48  -201.349014c -6.82  -3.65
iter:   8 22:38:49  -201.347426c -6.76  -3.81
iter:   9 22:39:50  -201.347700c -7.37  -4.09c
iter:  10 22:40:51  -201.347683c -7.61c -4.11c

Converged after 10 iterations.

Dipole moment: (35.592949, 16.635254, -0.085852) |e|*Ang

Energy contributions relative to reference atoms: (reference = -14174778.458134)

Kinetic:       -322.774755
Potential:     +178.096199
External:        +0.000000
XC:             -44.413649
Entropy (-ST):   -2.257710
Local:          -11.126623
--------------------------
Free energy:   -202.476538
Extrapolated:  -201.347683

Showing only first 2 kpts
 Kpt  Band  Eigenvalues  Occupancy
  0   364      0.65641    1.05261
  0   365      0.69565    0.85741
  0   366      0.71623    0.75839
  0   367      0.74369    0.63402

  1   364      0.56336    1.47605
  1   365      0.59158    1.35991
  1   366      0.62916    1.18668
  1   367      0.65049    1.08204


Fermi level: 0.66694

No gap

Forces in eV/Ang:
  0 Pd    0.01386   -0.01409   -0.25793
  1 Pt    0.29828   -0.51702    0.37831
  2 Pt   -0.34645   -0.13868    0.02529
  3 Pd   -0.41023    0.18236   -0.07211
  4 Pd    0.21901   -0.22222   -0.23155
  5 Pt    0.22036    0.31382   -0.18519
  6 Pd   -0.21664    0.22411   -0.08993
  7 Pt    0.54646    0.16599    0.08211
  8 Ru   -0.48747    0.05540    1.34918
  9 Pd   -0.22046    0.15226    0.18664
 10 Pt    0.30598   -0.00796   -0.20056
 11 Pd    0.04487    0.03196   -0.09676
 12 Pd    0.08958    0.10738   -0.00966
 13 Pt   -0.18577   -0.15970    0.13961
 14 Ag    0.05853   -0.11652    0.01697
 15 Ag   -0.00386   -0.06287   -0.09973
 16 Ag   -0.06100   -0.04368    0.08886
 17 Pt    0.03276    0.25069   -0.57393
 18 Pt    0.00850   -0.00687    0.02884
 19 Pt   -0.01408    0.01345   -0.00570
 20 Ru    0.03213    0.02064    0.00057
 21 Pt    0.01825   -0.03077    0.00734
 22 Pd    0.00453    0.00628   -0.01779
 23 Pt   -0.00216   -0.01932   -0.00164
 24 Ag    0.04572    0.00707    0.01289
 25 Pt   -0.02789    0.01215    0.00350
 26 Ag    0.01261   -0.00867   -0.02757
 27 Pt    0.00146    0.01123   -0.01646
 28 Pd    0.00984    0.00603   -0.00438
 29 Pd    0.00009    0.00121   -0.00260
 30 Ir    0.00943    0.05218   -0.03595
 31 Pt    0.00144   -0.00339    0.01008
 32 Pd   -0.01103    0.01664    0.00369
 33 Pd    0.00028   -0.00739    0.00565
 34 Ag   -0.01544    0.00863    0.08057
 35 Pt    0.01945   -0.01872   -0.00655
 36 Pt    0.06679    0.03205    0.07885
 37 Pt   -0.09838    0.04317    0.02910
 38 Pt    0.00635   -0.02710   -0.00985
 39 Pt   -0.00992   -0.12224   -0.02482
 40 Pd   -0.01352   -0.01846   -0.02173
 41 Pd    0.02831   -0.01455   -0.02974
 42 Pt   -0.02487   -0.03095   -0.02955
 43 Ag   -0.01046   -0.00368    0.01981
 44 Pt    0.01640   -0.01515   -0.02838
 45 O     0.01483   -0.00101   -0.06843

System changes: positions 

Initializing position-dependent things.

Density initialized from wave functions
                                              
                                              
                                              
                                              
                                              
                                              
                  Pt     Ag     Pt            
                                              
            OPt    PPd    APd    Pt           
                                              
       Pt     IPt    PPt    Pd                
                       Pd                     
         Pt     Pd    Ag     Pt     Ag        
                 Pt     Pd     Pt             
                                              
            Pt    APt    ARu    Pt            
                                              
             Pd    PPt    PAg    Ru           
        Pd    PPt    PPd    Pt                
                                              
         Pd     Pt     Pt                     
                                              
                                              
                                              
                                              
                                              

Positions:
   0 Pd     0.000000    1.639149   10.000000    ( 0.0000,  0.0000,  0.0000)
   1 Pt     2.839089    1.639149   10.000000    ( 0.0000,  0.0000,  0.0000)
   2 Pt     5.678177    1.639149   10.000000    ( 0.0000,  0.0000,  0.0000)
   3 Pd     1.419544    4.097872   10.000000    ( 0.0000,  0.0000,  0.0000)
   4 Pd     4.258633    4.097872   10.000000    ( 0.0000,  0.0000,  0.0000)
   5 Pt     7.097722    4.097872   10.000000    ( 0.0000,  0.0000,  0.0000)
   6 Pd     2.839089    6.556595   10.000000    ( 0.0000,  0.0000,  0.0000)
   7 Pt     5.678177    6.556595   10.000000    ( 0.0000,  0.0000,  0.0000)
   8 Ru     8.517266    6.556595   10.000000    ( 0.0000,  0.0000,  0.0000)
   9 Pd     0.000000    0.000000   12.317643    ( 0.0000,  0.0000,  0.0000)
  10 Pt     2.839089    0.000000   12.317643    ( 0.0000,  0.0000,  0.0000)
  11 Pd     5.678177    0.000000   12.317643    ( 0.0000,  0.0000,  0.0000)
  12 Pd     1.419544    2.458723   12.317643    ( 0.0000,  0.0000,  0.0000)
  13 Pt     4.258633    2.458723   12.317643    ( 0.0000,  0.0000,  0.0000)
[...]
  21 Pt     2.844482    3.213730   14.669847    ( 0.0000,  0.0000,  0.0000)
  22 Pd     5.685111    3.254443   14.649926    ( 0.0000,  0.0000,  0.0000)
  23 Pt     8.538045    3.281873   14.634580    ( 0.0000,  0.0000,  0.0000)
  24 Ag     4.296445    5.727800   14.658157    ( 0.0000,  0.0000,  0.0000)
  25 Pt     7.161970    5.777485   14.630232    ( 0.0000,  0.0000,  0.0000)
  26 Ag    10.000071    5.743536   14.654922    ( 0.0000,  0.0000,  0.0000)
  27 Pt    -0.003730    1.659797   16.844896    ( 0.0000,  0.0000,  0.0000)
  28 Pd     2.843464    1.585162   16.917036    ( 0.0000,  0.0000,  0.0000)
  29 Pd     5.679322    1.631296   16.897238    ( 0.0000,  0.0000,  0.0000)
  30 Ir     1.442688    4.054575   16.959036    ( 0.0000,  0.0000,  0.0000)
  31 Pt     4.209336    4.039894   16.960433    ( 0.0000,  0.0000,  0.0000)
  32 Pd     7.072776    4.103112   16.913331    ( 0.0000,  0.0000,  0.0000)
  33 Pd     2.842003    6.592466   16.918103    ( 0.0000,  0.0000,  0.0000)
  34 Ag     5.658316    6.537676   17.039978    ( 0.0000,  0.0000,  0.0000)
  35 Pt     8.530632    6.532985   16.950164    ( 0.0000,  0.0000,  0.0000)
  36 Pt    -0.115006   -0.020460   19.352836    ( 0.0000,  0.0000,  0.0000)
  37 Pt     2.923165   -0.029924   19.320979    ( 0.0000,  0.0000,  0.0000)
  38 Pt     5.668424   -0.008393   19.222746    ( 0.0000,  0.0000,  0.0000)
  39 Pt     1.402249    2.464130   19.173074    ( 0.0000,  0.0000,  0.0000)
  40 Pd     4.258551    2.431036   19.238425    ( 0.0000,  0.0000,  0.0000)
  41 Pd     7.112206    2.429178   19.205463    ( 0.0000,  0.0000,  0.0000)
  42 Pt     2.785413    4.935857   19.152681    ( 0.0000,  0.0000,  0.0000)
  43 Ag     5.670237    4.900331   19.437940    ( 0.0000,  0.0000,  0.0000)
  44 Pt     8.557701    4.909220   19.176986    ( 0.0000,  0.0000,  0.0000)
  45 O      1.432230    0.841028   20.424435    ( 0.0000,  0.0000,  0.0000)

Unit cell:
           periodic     x           y           z      points  spacing
  1. axis:    yes    8.517266    0.000000    0.000000    40     0.1844
  2. axis:    yes    4.258633    7.376169    0.000000    40     0.1844
  3. axis:    no     0.000000    0.000000   29.270571   140     0.2091

  Lengths:   8.517266   8.517266  29.270571
  Angles:   90.000000  90.000000  60.000000

Effective grid spacing dv^(1/3) = 0.2017

     iter     time        total  log10-change:
                         energy  eigst   dens
iter:   1 22:56:43  -201.722027  -3.04
iter:   2 22:57:43  -203.792570  -3.76  -2.52
iter:   3 22:58:43  -201.688852  -4.06  -2.01
iter:   4 22:59:44  -201.435691  -4.63  -2.40
iter:   5 23:00:45  -201.362233c -5.05  -2.70
iter:   6 23:01:46  -201.333704c -5.71  -2.89
iter:   7 23:02:47  -201.333121c -6.00  -3.22
iter:   8 23:03:48  -201.329633c -6.03  -3.23
iter:   9 23:04:50  -201.331561c -5.69  -3.33
iter:  10 23:05:51  -201.328482c -6.24  -3.39
iter:  11 23:06:52  -201.327679c -6.72  -3.64
iter:  12 23:07:54  -201.327784c -6.89  -3.71
iter:  13 23:08:55  -201.329271c -6.92  -3.78
iter:  14 23:09:56  -201.328112c -6.78  -3.58
iter:  15 23:10:58  -201.327861c -7.19  -3.64
iter:  16 23:11:59  -201.327469c -7.27  -3.92
iter:  17 23:13:00  -201.327496c -7.35  -3.96
iter:  18 23:14:00  -201.327379c -7.41c -4.03c

Converged after 18 iterations.

Dipole moment: (34.664983, 16.592940, -0.065494) |e|*Ang

Energy contributions relative to reference atoms: (reference = -14174778.458134)

Kinetic:       -319.627116
Potential:     +175.438771
External:        +0.000000
XC:             -44.894942
Entropy (-ST):   -2.251454
Local:          -11.118364
--------------------------
Free energy:   -202.453106
Extrapolated:  -201.327379

Showing only first 2 kpts
 Kpt  Band  Eigenvalues  Occupancy
  0   364      0.66403    1.05766
  0   365      0.70746    0.84192
  0   366      0.72201    0.77193
  0   367      0.75574    0.61935

  1   364      0.57032    1.48252
  1   365      0.60129    1.35526
  1   366      0.64084    1.17197
  1   367      0.65972    1.07910


Fermi level: 0.67558

No gap

Forces in eV/Ang:
  0 Pd    0.01321   -0.01331   -0.25950
  1 Pt    0.29412   -0.51500    0.37331
  2 Pt   -0.34226   -0.13451    0.01745
  3 Pd   -0.41315    0.17790   -0.08577
  4 Pd    0.22215   -0.22490   -0.24524
  5 Pt    0.22043    0.31012   -0.19255
  6 Pd   -0.21560    0.22911   -0.10289
  7 Pt    0.54471    0.16840    0.07413
  8 Ru   -0.48714    0.05075    1.33817
  9 Pd   -0.20597    0.16533    0.20698
 10 Pt    0.30203   -0.00401   -0.21554
 11 Pd    0.04824    0.02394   -0.08047
 12 Pd    0.09005    0.07935   -0.01107
 13 Pt   -0.17937   -0.17189    0.09927
 14 Ag    0.06298   -0.12468   -0.02051
 15 Ag    0.00450   -0.05653   -0.04758
 16 Ag   -0.05754   -0.03451    0.06173
 17 Pt    0.03504    0.26544   -0.53799
 18 Pt    0.00333    0.00192   -0.00245
 19 Pt    0.05220   -0.06615    0.01463
 20 Ru   -0.03973   -0.03832   -0.01008
 21 Pt   -0.02015    0.10200   -0.02237
 22 Pd    0.02607   -0.00613    0.02095
 23 Pt    0.01063    0.09425   -0.00546
 24 Ag   -0.05675   -0.03083    0.00853
 25 Pt    0.08417   -0.02288    0.01034
 26 Ag   -0.00327    0.03509   -0.24586
 27 Pt   -0.06525    0.01742   -0.10508
 28 Pd    0.09631   -0.00144   -0.18125
 29 Pd    0.00880   -0.02410    0.00538
 30 Ir   -0.01024   -0.28994    0.22086
 31 Pt    0.02204    0.00954    0.00153
 32 Pd   -0.02135   -0.00926   -0.01862
 33 Pd    0.09032    0.05742    0.12361
 34 Ag    0.00791   -0.07724   -0.15065
 35 Pt   -0.11698    0.09662    0.12546
 36 Pt   -0.28589   -0.23974   -0.01364
 37 Pt    0.36660   -0.23660   -0.02169
 38 Pt   -0.04241   -0.05828   -0.09504
 39 Pt    0.00652    0.59415   -0.20135
 40 Pd    0.10721    0.01576    0.00542
 41 Pd   -0.13426    0.05502   -0.00797
 42 Pt    0.00835    0.02819   -0.04777
 43 Ag    0.00950   -0.12088    0.02245
 44 Pt   -0.00711   -0.00192   -0.05537
 45 O    -0.03516   -0.15613    0.36065

System changes: positions 

Initializing position-dependent things.

Density initialized from wave functions
                                              
                                              
                                              
                                              
                                              
                                              
                  Pt     Ag     Pt            
                                              
            OPt    PPd    APd    Pt           
                                              
       Pt     IPt    PPt    Pd                
                       Pd                     
         Pt     Pd    Ag     Pt     Ag        
                 Pt     Pd     Pt             
                                              
            Pt    APt    ARu    Pt            
                                              
             Pd    PPt    PAg    Ru           
        Pd    PPt    PPd    Pt                
                                              
         Pd     Pt     Pt                     
                                              
                                              
                                              
                                              
                                              

Positions:
   0 Pd     0.000000    1.639149   10.000000    ( 0.0000,  0.0000,  0.0000)
   1 Pt     2.839089    1.639149   10.000000    ( 0.0000,  0.0000,  0.0000)
   2 Pt     5.678177    1.639149   10.000000    ( 0.0000,  0.0000,  0.0000)
   3 Pd     1.419544    4.097872   10.000000    ( 0.0000,  0.0000,  0.0000)
   4 Pd     4.258633    4.097872   10.000000    ( 0.0000,  0.0000,  0.0000)
   5 Pt     7.097722    4.097872   10.000000    ( 0.0000,  0.0000,  0.0000)
   6 Pd     2.839089    6.556595   10.000000    ( 0.0000,  0.0000,  0.0000)
   7 Pt     5.678177    6.556595   10.000000    ( 0.0000,  0.0000,  0.0000)
   8 Ru     8.517266    6.556595   10.000000    ( 0.0000,  0.0000,  0.0000)
   9 Pd     0.000000    0.000000   12.317643    ( 0.0000,  0.0000,  0.0000)
  10 Pt     2.839089    0.000000   12.317643    ( 0.0000,  0.0000,  0.0000)
  11 Pd     5.678177    0.000000   12.317643    ( 0.0000,  0.0000,  0.0000)
  12 Pd     1.419544    2.458723   12.317643    ( 0.0000,  0.0000,  0.0000)
  13 Pt     4.258633    2.458723   12.317643    ( 0.0000,  0.0000,  0.0000)
  14 Ag     7.097722    2.458723   12.317643    ( 0.0000,  0.0000,  0.0000)
  15 Ag     2.839089    4.917446   12.317643    ( 0.0000,  0.0000,  0.0000)
  16 Ag     5.678177    4.917446   12.317643    ( 0.0000,  0.0000,  0.0000)
  17 Pt     8.517266    4.917446   12.317643    ( 0.0000,  0.0000,  0.0000)
  18 Pt     1.388557    0.801833   14.577595    ( 0.0000,  0.0000,  0.0000)
  19 Pt     4.326509    0.817501   14.608594    ( 0.0000,  0.0000,  0.0000)
  20 Ru     7.146781    0.908604   14.679212    ( 0.0000,  0.0000,  0.0000)
  21 Pt     2.838873    3.223008   14.668832    ( 0.0000,  0.0000,  0.0000)
  22 Pd     5.683032    3.252635   14.657254    ( 0.0000,  0.0000,  0.0000)
  23 Pt     8.536374    3.286066   14.637442    ( 0.0000,  0.0000,  0.0000)
  24 Ag     4.283621    5.724456   14.652393    ( 0.0000,  0.0000,  0.0000)
  25 Pt     7.168571    5.772715   14.628167    ( 0.0000,  0.0000,  0.0000)
  26 Ag     9.995074    5.746169   14.650046    ( 0.0000,  0.0000,  0.0000)
  27 Pt    -0.007485    1.657037   16.844739    ( 0.0000,  0.0000,  0.0000)
  28 Pd     2.844987    1.587465   16.907925    ( 0.0000,  0.0000,  0.0000)
  29 Pd     5.678504    1.631772   16.905526    ( 0.0000,  0.0000,  0.0000)
  30 Ir     1.439948    4.029492   16.982950    ( 0.0000,  0.0000,  0.0000)
  31 Pt     4.209352    4.040770   16.962566    ( 0.0000,  0.0000,  0.0000)
  32 Pd     7.075576    4.096391   16.916685    ( 0.0000,  0.0000,  0.0000)
  33 Pd     2.847476    6.595946   16.930255    ( 0.0000,  0.0000,  0.0000)
  34 Ag     5.664243    6.529617   17.004583    ( 0.0000,  0.0000,  0.0000)
  35 Pt     8.518326    6.542555   16.964220    ( 0.0000,  0.0000,  0.0000)
  36 Pt    -0.116040   -0.021729   19.336159    ( 0.0000,  0.0000,  0.0000)
  37 Pt     2.934870   -0.033117   19.327972    ( 0.0000,  0.0000,  0.0000)
  38 Pt     5.664756   -0.005258   19.219719    ( 0.0000,  0.0000,  0.0000)
  39 Pt     1.405335    2.499935   19.193113    ( 0.0000,  0.0000,  0.0000)
  40 Pd     4.266483    2.440846   19.247383    ( 0.0000,  0.0000,  0.0000)
  41 Pd     7.097979    2.438643   19.217750    ( 0.0000,  0.0000,  0.0000)
  42 Pt     2.791074    4.947876   19.155631    ( 0.0000,  0.0000,  0.0000)
  43 Ag     5.674398    4.899883   19.430862    ( 0.0000,  0.0000,  0.0000)
  44 Pt     8.555503    4.915618   19.182005    ( 0.0000,  0.0000,  0.0000)
  45 O      1.427713    0.839077   20.435123    ( 0.0000,  0.0000,  0.0000)

Unit cell:
           periodic     x           y           z      points  spacing
  1. axis:    yes    8.517266    0.000000    0.000000    40     0.1844
  2. axis:    yes    4.258633    7.376169    0.000000    40     0.1844
  3. axis:    no     0.000000    0.000000   29.270571   140     0.2091

  Lengths:   8.517266   8.517266  29.270571
  Angles:   90.000000  90.000000  60.000000

Effective grid spacing dv^(1/3) = 0.2017

     iter     time        total  log10-change:
                         energy  eigst   dens
iter:   1 23:15:21  -201.538567  -3.28
iter:   2 23:16:21  -203.733654  -3.95  -2.60
iter:   3 23:17:22  -201.426196  -4.22  -2.02
iter:   4 23:18:23  -201.395008  -5.05  -2.74
iter:   5 23:19:23  -201.359391c -5.69  -2.87
iter:   6 23:20:24  -201.361857c -5.96  -3.20
iter:   7 23:21:25  -201.362302c -6.02  -3.16
iter:   8 23:22:25  -201.354969c -6.27  -3.33
iter:   9 23:23:26  -201.354878c -6.24  -3.42
iter:  10 23:24:27  -201.355932c -6.42  -3.49
iter:  11 23:25:29  -201.354303c -6.56  -3.48
iter:  12 23:26:30  -201.353718c -6.93  -3.58
iter:  13 23:27:31  -201.354356c -7.04  -3.85
iter:  14 23:28:33  -201.354995c -6.92  -3.80
iter:  15 23:29:35  -201.353786c -7.53c -3.76
iter:  16 23:30:36  -201.354257c -7.60c -3.93
iter:  17 23:31:38  -201.354167c -7.47c -4.10c

Converged after 17 iterations.

Dipole moment: (35.416619, 16.693042, -0.080341) |e|*Ang

Energy contributions relative to reference atoms: (reference = -14174778.458134)

Kinetic:       -322.488692
Potential:     +177.893955
External:        +0.000000
XC:             -44.499489
Entropy (-ST):   -2.254963
Local:          -11.132460
--------------------------
Free energy:   -202.481649
Extrapolated:  -201.354167

Showing only first 2 kpts
 Kpt  Band  Eigenvalues  Occupancy
  0   364      0.65876    1.05160
  0   365      0.69894    0.85180
  0   366      0.71753    0.76241
  0   367      0.74697    0.62915

  1   364      0.56448    1.48001
  1   365      0.59406    1.35847
  1   366      0.63219    1.18242
  1   367      0.65287    1.08089


Fermi level: 0.66908

No gap

Forces in eV/Ang:
  0 Pd    0.01376   -0.01333   -0.25752
  1 Pt    0.29721   -0.51623    0.37926
  2 Pt   -0.34586   -0.13674    0.02414
  3 Pd   -0.41115    0.18030   -0.07733
  4 Pd    0.21910   -0.22447   -0.23693
  5 Pt    0.22058    0.31090   -0.19085
  6 Pd   -0.21661    0.22565   -0.09356
  7 Pt    0.54559    0.16827    0.07951
  8 Ru   -0.48739    0.05480    1.34652
  9 Pd   -0.21807    0.15911    0.19955
 10 Pt    0.30753   -0.00290   -0.19585
 11 Pd    0.04638    0.02983   -0.09035
 12 Pd    0.08993    0.09919   -0.00664
 13 Pt   -0.18662   -0.16720    0.13803
 14 Ag    0.06295   -0.12092    0.01313
 15 Ag   -0.00348   -0.06058   -0.08631
 16 Ag   -0.05975   -0.04055    0.08808
 17 Pt    0.03835    0.25316   -0.56585
 18 Pt    0.00751   -0.00216    0.00952
 19 Pt    0.00081   -0.00674   -0.00563
 20 Ru    0.01922   -0.00321   -0.00955
 21 Pt    0.00650    0.00623    0.00166
 22 Pd    0.00796    0.00242   -0.01840
 23 Pt    0.01212    0.01545   -0.00524
 24 Ag    0.01157   -0.00041    0.01088
 25 Pt    0.00771    0.00795    0.00463
 26 Ag    0.00434   -0.00029   -0.04576
 27 Pt   -0.01357    0.01468   -0.03445
 28 Pd    0.02727   -0.00913   -0.02809
 29 Pd    0.00424   -0.00466   -0.03774
 30 Ir    0.00092    0.00699   -0.02912
 31 Pt    0.00385   -0.00611   -0.01824
 32 Pd   -0.00651    0.01132   -0.02522
 33 Pd   -0.02186   -0.01635   -0.03146
 34 Ag   -0.00380   -0.00974    0.01759
 35 Pt    0.02052   -0.01920   -0.02738
 36 Pt   -0.04533   -0.03758    0.06386
 37 Pt    0.02892   -0.02489    0.01920
 38 Pt    0.00985   -0.02924   -0.00926
 39 Pt   -0.00157    0.01090   -0.03685
 40 Pd    0.00690   -0.02104   -0.01790
 41 Pd    0.00032   -0.01319   -0.02717
 42 Pt   -0.00168   -0.00415   -0.00979
 43 Ag   -0.00516   -0.03761    0.02564
 44 Pt   -0.00530   -0.00915   -0.02430
 45 O     0.01370   -0.03880   -0.03473

Timing:                                      incl.     excl.
-------------------------------------------------------------------
Density initialized from wave functions:    27.893    27.893   0.2% |
 Symmetrize density:                         0.000     0.000   0.0% |
Forces:                                    136.082   136.082   1.2% |
Hamiltonian:                                14.866     0.088   0.0% |
 Atomic:                                     1.109     0.335   0.0% |
  XC Correction:                             0.774     0.774   0.0% |
 Calculate atomic Hamiltonians:              9.604     9.604   0.1% |
 Communicate:                                1.470     1.470   0.0% |
 Initialize Hamiltonian:                     0.000     0.000   0.0% |
 Poisson:                                    0.057     0.057   0.0% |
 XC 3D grid:                                 2.537     2.537   0.0% |
LCAO initialization:                       128.164     2.674   0.0% |
 LCAO eigensolver:                          14.012     0.001   0.0% |
  Blacs Orbital Layouts:                     0.325     0.000   0.0% |
   General diagonalize:                      0.319     0.319   0.0% |
   Redistribute coefs:                       0.004     0.004   0.0% |
   Send coefs to domains:                    0.002     0.002   0.0% |
  Calculate projections:                     0.003     0.003   0.0% |
  Distribute overlap matrix:                12.881     0.000   0.0% |
   Scalapack redistribute:                   0.011     0.011   0.0% |
   blocked summation:                       12.870    12.870   0.1% |
  Potential matrix:                          0.765     0.765   0.0% |
  SparseAtomicCorrection:                    0.005     0.005   0.0% |
  Sum over cells:                            0.032     0.032   0.0% |
 LCAO to grid:                             108.015   108.015   0.9% |
 Set positions (LCAO WFS):                   3.464     0.005   0.0% |
  Basic WFS set positions:                   0.003     0.003   0.0% |
  Basis functions set positions:             0.000     0.000   0.0% |
  P tci:                                     0.000     0.000   0.0% |
  ST tci:                                    0.292     0.292   0.0% |
  Scalapack redistribute:                    0.007     0.007   0.0% |
  blocked summation:                         3.040     3.040   0.0% |
  mktci:                                     0.116     0.116   0.0% |
PWDescriptor:                                0.536     0.536   0.0% |
Redistribute:                                0.010     0.010   0.0% |
SCF-cycle:                               11211.651   331.435   2.9% ||
 Davidson:                               10098.659  2313.886  20.0% |-------|
  Apply H:                                1063.386  1044.845   9.0% |---|
   HMM T:                                   18.541    18.541   0.2% |
  Subspace diag:                          1167.559     0.041   0.0% |
   calc_h_matrix:                          764.786   221.011   1.9% ||
    Apply H:                               543.775   533.633   4.6% |-|
     HMM T:                                 10.142    10.142   0.1% |
   diagonalize:                             41.580    41.580   0.4% |
   rotate_psi:                             361.152   361.152   3.1% ||
  calc. matrices:                         3868.467  2323.776  20.1% |-------|
   Apply H:                               1544.691  1516.803  13.1% |----|
    HMM T:                                  27.888    27.888   0.2% |
  diagonalize:                             567.720   567.720   4.9% |-|
  rotate_psi:                             1117.642  1117.642   9.7% |---|
 Density:                                  489.327     0.007   0.0% |
  Atomic density matrices:                   3.423     3.423   0.0% |
  Mix:                                     175.891   175.891   1.5% ||
  Multipole moments:                         0.316     0.316   0.0% |
  Pseudo density:                          309.690   309.681   2.7% ||
   Symmetrize density:                       0.009     0.009   0.0% |
 Hamiltonian:                              251.804     1.413   0.0% |
  Atomic:                                   14.795     2.789   0.0% |
   XC Correction:                           12.006    12.006   0.1% |
  Calculate atomic Hamiltonians:           157.272   157.272   1.4% ||
  Communicate:                              33.622    33.622   0.3% |
  Poisson:                                   0.921     0.921   0.0% |
  XC 3D grid:                               43.781    43.781   0.4% |
 Orthonormalize:                            40.426     0.004   0.0% |
  calc_s_matrix:                             6.486     6.486   0.1% |
  inverse-cholesky:                          1.993     1.993   0.0% |
  projections:                              20.945    20.945   0.2% |
  rotate_psi_s:                             10.997    10.997   0.1% |
Set symmetry:                                0.002     0.002   0.0% |
Other:                                      50.910    50.910   0.4% |
-------------------------------------------------------------------
Total:                                             11570.115 100.0%

Memory usage: 863.84 MiB
Date: Thu Jun 13 23:31:52 2024
