
  ___ ___ ___ _ _ _  
 |   |   |_  | | | | 
 | | | | | . | | | | 
 |__ |  _|___|_____|  22.1.0
 |___|_|             

User:   clausen@node491.cluster
Date:   Thu Jun 13 21:54:50 2024
Arch:   x86_64
Pid:    97421
Python: 3.10.4
gpaw:   /groups/kemi/clausen/miniconda3/envs/gpaw22/lib/python3.10/site-packages/gpaw
_gpaw:  /groups/kemi/clausen/miniconda3/envs/gpaw22/lib/python3.10/site-packages/
        _gpaw.cpython-310-x86_64-linux-gnu.so
ase:    /groups/kemi/clausen/miniconda3/envs/gpaw22/lib/python3.10/site-packages/ase (version 3.22.1)
numpy:  /groups/kemi/clausen/miniconda3/envs/gpaw22/lib/python3.10/site-packages/numpy (version 1.23.1)
scipy:  /groups/kemi/clausen/miniconda3/envs/gpaw22/lib/python3.10/site-packages/scipy (version 1.8.1)
libxc:  5.2.3
units:  Angstrom and eV
cores: 24
OpenMP: True
OMP_NUM_THREADS: 1

Input parameters:
  eigensolver: {name: dav,
                niter: 3}
  kpts: [4 4 1]
  mixer: {backend: pulay,
          beta: 0.05,
          method: difference,
          nmaxold: 5,
          weight: 50.0}
  mode: {ecut: 400.0,
         name: pw}
  xc: RPBE

System changes: positions, numbers, cell, pbc, initial_charges, initial_magmoms 

Initialize ...

Pd-setup:
  name: Palladium
  id: 6da19bfba079f22767af9506641940b9
  Z: 46.0
  valence: 16
  core: 30
  charge: 0.0
  file: /groups/kemi/clausen/miniconda3/envs/gpaw22/share/gpaw/Pd.RPBE.gz
  compensation charges: gauss, rc=0.38, lmax=2
  cutoffs: 2.38(filt), 2.28(core),
  valence states:
                energy  radius
    5s(0.00)    -3.225   1.228
    4p(6.00)   -51.131   1.360
    5p(0.00)    -0.373   1.360
    4d(10.00)    -3.964   1.228
    *s          23.987   1.228
    *d          23.247   1.228

  Using partial waves for Pd as LCAO basis

Pt-setup:
  name: Platinum
  id: f04f522592575c47ad794f6b4a415b4b
  Z: 78.0
  valence: 16
  core: 62
  charge: 0.0
  file: /groups/kemi/clausen/miniconda3/envs/gpaw22/share/gpaw/Pt.RPBE.gz
  compensation charges: gauss, rc=0.41, lmax=2
  cutoffs: 2.26(filt), 2.26(core),
  valence states:
                energy  radius
    6s(1.00)    -5.516   1.307
    5p(6.00)   -55.971   1.371
    6p(0.00)    -0.856   1.371
    5d(9.00)    -6.087   1.307
    *s          21.695   1.307
    *d          21.125   1.307

  Using partial waves for Pt as LCAO basis

Ag-setup:
  name: Silver
  id: c05e55bab2c3858b3f9398f6d75cb77c
  Z: 47.0
  valence: 17
  core: 30
  charge: 0.0
  file: /groups/kemi/clausen/miniconda3/envs/gpaw22/share/gpaw/Ag.RPBE.gz
  compensation charges: gauss, rc=0.40, lmax=2
  cutoffs: 2.35(filt), 2.19(core),
  valence states:
                energy  radius
    5s(1.00)    -4.277   1.286
    4p(6.00)   -58.523   1.328
    5p(0.00)    -0.755   1.328
    4d(10.00)    -7.386   1.180
    *s          22.934   1.286
    *d          19.826   1.180

  Using partial waves for Ag as LCAO basis

Ir-setup:
  name: Iridium
  id: 73b603359d1d5397a85ae3c2440f9033
  Z: 77.0
  valence: 15
  core: 62
  charge: 0.0
  file: /groups/kemi/clausen/miniconda3/envs/gpaw22/share/gpaw/Ir.RPBE.gz
  compensation charges: gauss, rc=0.40, lmax=2
  cutoffs: 2.40(filt), 2.36(core),
  valence states:
                energy  radius
    6s(2.00)    -6.219   1.296
    5p(6.00)   -54.684   1.328
    6p(0.00)    -1.215   1.328
    5d(7.00)    -7.118   1.286
    *s          20.992   1.296
    *d          20.093   1.286

  Using partial waves for Ir as LCAO basis

Ru-setup:
  name: Ruthenium
  id: 76477906e28f51dc1b29884d53556fe9
  Z: 44.0
  valence: 16
  core: 28
  charge: 0.0
  file: /groups/kemi/clausen/miniconda3/envs/gpaw22/share/gpaw/Ru.RPBE.gz
  compensation charges: gauss, rc=0.39, lmax=2
  cutoffs: 2.16(filt), 1.30(core),
  valence states:
                energy  radius
    4s(2.00)   -76.255   1.281
    5s(1.00)    -4.126   1.281
    4p(6.00)   -46.371   1.286
    5p(0.00)    -0.913   1.286
    4d(7.00)    -5.146   1.254
    *d          22.066   1.254

  Using partial waves for Ru as LCAO basis

H-setup:
  name: Hydrogen
  id: ea3f9156a1dc40d47a60fdce8f8bd75d
  Z: 1.0
  valence: 1
  core: 0
  charge: 0.0
  file: /groups/kemi/clausen/miniconda3/envs/gpaw22/share/gpaw/H.RPBE.gz
  compensation charges: gauss, rc=0.15, lmax=2
  cutoffs: 0.85(filt), 0.53(core),
  valence states:
                energy  radius
    1s(1.00)    -6.572   0.476
    *s          20.639   0.476
    *p           0.000   0.476

  Using partial waves for H as LCAO basis

Reference energy: -12371328.023897

Spin-paired calculation

Convergence criteria:
 Maximum [total energy] change in last 3 cyles: 0.0005 eV / electron
 Maximum integral of absolute [dens]ity change: 0.0001 electrons / valence electron
 Maximum integral of absolute [eigenst]ate change: 4e-08 eV^2 / valence electron
 Maximum number of scf [iter]ations: 333
 (Square brackets indicate name in SCF output, whereas a 'c' in
 the SCF output indicates the quantity has converged.)

Symmetries present (total): 1

  ( 1  0  0)
  ( 0  1  0)
  ( 0  0  1)

16 k-points: 4 x 4 x 1 Monkhorst-Pack grid
8 k-points in the irreducible part of the Brillouin zone
       k-points in crystal coordinates                weights
   0:     0.12500000   -0.37500000    0.00000000          2/16
   1:     0.12500000   -0.12500000    0.00000000          2/16
   2:     0.12500000    0.12500000    0.00000000          2/16
   3:     0.12500000    0.37500000    0.00000000          2/16
   4:     0.37500000   -0.37500000    0.00000000          2/16
   5:     0.37500000   -0.12500000    0.00000000          2/16
   6:     0.37500000    0.12500000    0.00000000          2/16
   7:     0.37500000    0.37500000    0.00000000          2/16

Wave functions: Plane wave expansion
  Cutoff energy: 400.000 eV
  Number of coefficients (min, max): 33288, 33380
  Pulay-stress correction: 0.000000 eV/Ang^3 (de/decut=0.000000)
  Using FFTW library
  ScaLapack parameters: grid=3x1, blocksize=64
  Wavefunction extrapolation:
    Improved wavefunction reuse through dual PAW basis 

Occupation numbers: Fermi-Dirac: width=0.1000 eV
 

Eigensolver
   Davidson(niter=3) 

Densities:
  Coarse grid: 40*40*140 grid
  Fine grid: 80*80*280 grid
  Total Charge: 0.000000 

Density mixing:
  Method: separate
  Backend: pulay
  Linear mixing parameter: 0.05
  Mixing with 5 old densities
  Damping of long wave oscillations: 50 

Hamiltonian:
  XC and Coulomb potentials evaluated on a 80*80*280 grid
  Using the RPBE Exchange-Correlation functional
  External potential:
    NoExternalPotential
 

XC parameters: RPBE with 2 nearest neighbor stencil

Memory estimate:
  Process memory now: 191.00 MiB
  Calculator: 557.13 MiB
    Density: 47.40 MiB
      Arrays: 14.92 MiB
      Localized functions: 26.74 MiB
      Mixer: 5.74 MiB
    Hamiltonian: 10.59 MiB
      Arrays: 9.75 MiB
      XC: 0.00 MiB
      Poisson: 0.00 MiB
      vbar: 0.84 MiB
    Wavefunctions: 499.14 MiB
      Arrays psit_nG: 226.15 MiB
      Eigensolver: 258.79 MiB
      Projections: 1.84 MiB
      Projectors: 3.57 MiB
      PW-descriptor: 8.80 MiB

Total number of cores used: 24
Parallelization over k-points: 8
Domain decomposition: 1 x 1 x 3
                      2 x 2 x 6 (xc only)

Number of atoms: 46
Number of atomic orbitals: 544
Number of bands in calculation: 444
Number of valence electrons: 732
Bands to converge: occupied

... initialized

Initializing position-dependent things.

Density initialized from atomic densities
Creating initial wave functions:
  444 bands from LCAO basis set

                                             
                                             
                                             
                                             
                                             
                                             
                 H             Ag            
                  Ir    Pt                   
             Pt   PRu     Pt    Pd           
                         Pt                  
       Pt    APt    PAg    Ru                
                                             
        Ag     Ag    PPt    Pt     Ag        
                       Pd     Pt             
                Ru                           
           Ag    PAg    PPt    Pd            
                                             
            Ir     Pt    PAg    Pd           
       Pd     Pd     Pt                      
             Pd     Ag     Ag                
        Pd     Pt     Ag                     
                                             
                                             
                                             
                                             
                                             

Positions:
   0 Pd     0.000000    1.637674   10.000000    ( 0.0000,  0.0000,  0.0000)
   1 Pt     2.836535    1.637674   10.000000    ( 0.0000,  0.0000,  0.0000)
   2 Ag     5.673071    1.637674   10.000000    ( 0.0000,  0.0000,  0.0000)
   3 Pd     1.418268    4.094186   10.000000    ( 0.0000,  0.0000,  0.0000)
   4 Ag     4.254803    4.094186   10.000000    ( 0.0000,  0.0000,  0.0000)
   5 Ag     7.091338    4.094186   10.000000    ( 0.0000,  0.0000,  0.0000)
   6 Ag     2.836535    6.550698   10.000000    ( 0.0000,  0.0000,  0.0000)
   7 Pd     5.673071    6.550698   10.000000    ( 0.0000,  0.0000,  0.0000)
   8 Pd     8.509606    6.550698   10.000000    ( 0.0000,  0.0000,  0.0000)
   9 Pd     0.000000    0.000000   12.317643    ( 0.0000,  0.0000,  0.0000)
  10 Pd     2.836535    0.000000   12.317643    ( 0.0000,  0.0000,  0.0000)
  11 Pt     5.673071    0.000000   12.317643    ( 0.0000,  0.0000,  0.0000)
  12 Ir     1.418268    2.456512   12.317643    ( 0.0000,  0.0000,  0.0000)
  13 Pt     4.254803    2.456512   12.317643    ( 0.0000,  0.0000,  0.0000)
  14 Ag     7.091338    2.456512   12.317643    ( 0.0000,  0.0000,  0.0000)
  15 Pt     2.836535    4.913023   12.317643    ( 0.0000,  0.0000,  0.0000)
  16 Pd     5.673071    4.913023   12.317643    ( 0.0000,  0.0000,  0.0000)
  17 Pd     8.509606    4.913023   12.317643    ( 0.0000,  0.0000,  0.0000)
  18 Ag     1.389069    0.761593   14.611341    ( 0.0000,  0.0000,  0.0000)
  19 Ag     4.222794    0.791242   14.654783    ( 0.0000,  0.0000,  0.0000)
  20 Pt     7.073540    0.805567   14.664382    ( 0.0000,  0.0000,  0.0000)
  21 Ru     2.749307    3.307485   14.388094    ( 0.0000,  0.0000,  0.0000)
  22 Pd     5.607707    3.222150   14.639274    ( 0.0000,  0.0000,  0.0000)
  23 Pt     8.524948    3.259735   14.660441    ( 0.0000,  0.0000,  0.0000)
  24 Pt     4.174602    5.656474   14.614052    ( 0.0000,  0.0000,  0.0000)
  25 Pt     7.045997    5.607689   14.670733    ( 0.0000,  0.0000,  0.0000)
  26 Ag     9.879948    5.755300   14.695121    ( 0.0000,  0.0000,  0.0000)
  27 Ag     0.017308    1.615647   16.996175    ( 0.0000,  0.0000,  0.0000)
  28 Ag     2.800366    1.626414   16.880782    ( 0.0000,  0.0000,  0.0000)
  29 Pt     5.672197    1.642004   17.012334    ( 0.0000,  0.0000,  0.0000)
  30 Ag     1.343075    4.094522   17.005234    ( 0.0000,  0.0000,  0.0000)
  31 Pd     4.166190    4.037462   16.812922    ( 0.0000,  0.0000,  0.0000)
  32 Ru     6.951751    4.066498   16.866913    ( 0.0000,  0.0000,  0.0000)
  33 Pd     2.796571    6.569134   17.026379    ( 0.0000,  0.0000,  0.0000)
  34 Pt     5.661494    6.420339   16.911143    ( 0.0000,  0.0000,  0.0000)
  35 Pd     8.433103    6.505308   17.066448    ( 0.0000,  0.0000,  0.0000)
  36 Pt     0.070793   -0.041697   19.273531    ( 0.0000,  0.0000,  0.0000)
  37 Pt     2.805116    0.091543   19.247171    ( 0.0000,  0.0000,  0.0000)
  38 Ag     5.703172    0.006706   19.481189    ( 0.0000,  0.0000,  0.0000)
  39 Pt     1.550859    2.466264   19.402929    ( 0.0000,  0.0000,  0.0000)
  40 Ru     4.237408    2.607644   19.096110    ( 0.0000,  0.0000,  0.0000)
  41 Pt     7.106116    2.494030   19.217545    ( 0.0000,  0.0000,  0.0000)
  42 Ir     3.043460    4.824551   19.141209    ( 0.0000,  0.0000,  0.0000)
  43 Pt     5.709443    4.866601   19.167406    ( 0.0000,  0.0000,  0.0000)
  44 Ag     8.567230    4.895418   19.518661    ( 0.0000,  0.0000,  0.0000)
  45 H      2.943909    3.299486   20.818661    ( 0.0000,  0.0000,  0.0000)

Unit cell:
           periodic     x           y           z      points  spacing
  1. axis:    yes    8.509606    0.000000    0.000000    40     0.1842
  2. axis:    yes    4.254803    7.369535    0.000000    40     0.1842
  3. axis:    no     0.000000    0.000000   29.270571   140     0.2091

  Lengths:   8.509606   8.509606  29.270571
  Angles:   90.000000  90.000000  60.000000

Effective grid spacing dv^(1/3) = 0.2016

     iter     time        total  log10-change:
                         energy  eigst   dens
iter:   1 21:58:28  -243.871170
iter:   2 21:59:37  -352.917544  -1.40  -1.22
iter:   3 22:00:45  -211.589320  -1.99  -1.08
iter:   4 22:01:54  -201.560521  -2.47  -1.39
iter:   5 22:03:03  -198.473443  -2.64  -1.46
iter:   6 22:04:14  -196.603362  -2.77  -1.53
iter:   7 22:05:24  -192.254114  -3.02  -1.57
iter:   8 22:06:34  -196.321051  -2.60  -1.71
iter:   9 22:07:44  -190.423080  -2.86  -1.72
iter:  10 22:08:55  -190.077250  -3.80  -2.08
iter:  11 22:10:06  -190.045581  -4.04  -2.14
iter:  12 22:11:18  -189.849429c -3.52  -2.17
iter:  13 22:12:28  -189.906244c -4.06  -2.29
iter:  14 22:13:40  -189.971919c -4.16  -2.35
iter:  15 22:14:50  -189.800543c -4.20  -2.31
iter:  16 22:16:02  -189.690982c -4.50  -2.47
iter:  17 22:17:14  -189.641151c -4.74  -2.61
iter:  18 22:18:26  -189.617414c -4.79  -2.71
iter:  19 22:19:38  -189.637756c -5.23  -2.78
iter:  20 22:20:50  -189.609859c -5.01  -2.75
iter:  21 22:22:03  -189.593238c -5.28  -2.79
iter:  22 22:23:15  -189.591090c -5.51  -2.92
iter:  23 22:24:27  -189.584443c -5.61  -2.99
iter:  24 22:25:40  -189.581169c -5.57  -3.05
iter:  25 22:26:51  -189.600647c -5.88  -3.12
iter:  26 22:27:59  -189.587405c -5.69  -3.06
iter:  27 22:29:06  -189.581997c -6.24  -3.06
iter:  28 22:30:15  -189.582400c -6.41  -3.29
iter:  29 22:31:23  -189.580738c -6.57  -3.34
iter:  30 22:32:31  -189.579751c -6.22  -3.35
iter:  31 22:33:41  -189.594083c -6.23  -3.40
iter:  32 22:34:51  -189.580562c -6.24  -3.31
iter:  33 22:36:01  -189.579626c -7.18  -3.54
iter:  34 22:37:12  -189.581127c -6.93  -3.65
iter:  35 22:38:22  -189.580270c -7.36  -3.77
iter:  36 22:39:32  -189.580351c -7.39  -3.77
iter:  37 22:40:43  -189.582552c -7.05  -3.86
iter:  38 22:41:53  -189.580331c -7.68c -3.83
iter:  39 22:43:02  -189.579583c -7.33  -3.96
iter:  40 22:44:11  -189.581135c -7.59c -4.08c

Converged after 40 iterations.

Dipole moment: (-5.720721, 7.464210, -0.258742) |e|*Ang

Energy contributions relative to reference atoms: (reference = -12371328.023897)

Kinetic:       -229.636668
Potential:     +102.416725
External:        +0.000000
XC:             -54.454372
Entropy (-ST):   -1.889414
Local:           -6.962112
--------------------------
Free energy:   -190.525842
Extrapolated:  -189.581135

Showing only first 2 kpts
 Kpt  Band  Eigenvalues  Occupancy
  0   364      0.77370    0.91087
  0   365      0.78484    0.85595
  0   366      0.82177    0.68173
  0   367      0.84593    0.57767

  1   364      0.63508    1.53970
  1   365      0.67533    1.38209
  1   366      0.68838    1.32501
  1   367      0.70951    1.22752


Fermi level: 0.75583

No gap

Forces in eV/Ang:
  0 Pd    0.70250    0.06379    0.08495
  1 Pt   -0.59884   -0.14870    0.53979
  2 Ag   -0.10244   -0.07912   -0.55648
  3 Pd   -0.04809   -0.34092    0.20922
  4 Ag   -0.01071    0.02532   -0.57412
  5 Ag    0.14710    0.17062   -0.50855
  6 Ag    0.03839   -0.00428   -0.47487
  7 Pd    0.24353    0.34749    0.05376
  8 Pd   -0.13363    0.13362    0.19241
  9 Pd   -0.01533    0.07843   -0.00760
 10 Pd    0.01200   -0.02995   -0.09261
 11 Pt   -0.02153   -0.13623    0.14526
 12 Ir    0.70542    0.17417    0.01051
 13 Pt   -0.68171   -0.17973    0.26516
 14 Ag    0.10558   -0.02297    0.09165
 15 Pt   -0.28054    0.00880    0.17897
 16 Pd   -0.08021    0.25038    0.16191
 17 Pd    0.15140    0.00517    0.18792
 18 Ag   -0.01591    0.02794    0.00814
 19 Ag    0.00786   -0.01151    0.00744
 20 Pt   -0.06011   -0.05864   -0.08047
 21 Ru    0.02596   -0.01218   -0.02702
 22 Pd   -0.02163   -0.02424    0.00642
 23 Pt   -0.00496   -0.02845    0.01448
 24 Pt    0.00206   -0.00005    0.02377
 25 Pt    0.01198   -0.00277   -0.00260
 26 Ag   -0.02452   -0.03923   -0.01353
 27 Ag   -0.03241   -0.02116    0.03031
 28 Ag   -0.01138   -0.04921   -0.02467
 29 Pt   -0.05026    0.03534    0.09330
 30 Ag   -0.03643   -0.00501   -0.01933
 31 Pd   -0.04808   -0.00123    0.01096
 32 Ru    0.01384   -0.01608    0.01067
 33 Pd    0.02025   -0.11769    0.10141
 34 Pt   -0.02405    0.02861    0.03209
 35 Pd   -0.02931   -0.02000   -0.01943
 36 Pt    0.04029    0.01894   -0.08642
 37 Pt    0.01978   -0.12884    0.00894
 38 Ag    0.04018    0.02763   -0.01573
 39 Pt    0.15705    0.08854    0.85102
 40 Ru    0.12918   -0.22241    0.48354
 41 Pt    0.06857   -0.02228   -0.05504
 42 Ir   -0.11647    0.14325    0.77615
 43 Pt    0.13711   -0.01965   -0.03601
 44 Ag   -0.04221    0.04496    0.00709
 45 H    -0.27907    0.07624   -1.83165

System changes: positions 

Initializing position-dependent things.

Density initialized from wave functions
                                             
                                             
                                             
                                             
                                             
                                             
                 H             Ag            
                  Ir    Pt                   
             Pt   PRu     Pt    Pd           
                         Pt                  
       Pt    APt    PAg    Ru                
                                             
        Ag     Ag    PPt    Pt     Ag        
                       Pd     Pt             
                Ru                           
           Ag    PAg    PPt    Pd            
                                             
            Ir     Pt    PAg    Pd           
       Pd     Pd     Pt                      
             Pd     Ag     Ag                
        Pd     Pt     Ag                     
                                             
                                             
                                             
                                             
                                             

Positions:
   0 Pd     0.000000    1.637674   10.000000    ( 0.0000,  0.0000,  0.0000)
   1 Pt     2.836535    1.637674   10.000000    ( 0.0000,  0.0000,  0.0000)
   2 Ag     5.673071    1.637674   10.000000    ( 0.0000,  0.0000,  0.0000)
   3 Pd     1.418268    4.094186   10.000000    ( 0.0000,  0.0000,  0.0000)
   4 Ag     4.254803    4.094186   10.000000    ( 0.0000,  0.0000,  0.0000)
   5 Ag     7.091338    4.094186   10.000000    ( 0.0000,  0.0000,  0.0000)
   6 Ag     2.836535    6.550698   10.000000    ( 0.0000,  0.0000,  0.0000)
   7 Pd     5.673071    6.550698   10.000000    ( 0.0000,  0.0000,  0.0000)
   8 Pd     8.509606    6.550698   10.000000    ( 0.0000,  0.0000,  0.0000)
   9 Pd     0.000000    0.000000   12.317643    ( 0.0000,  0.0000,  0.0000)
  10 Pd     2.836535    0.000000   12.317643    ( 0.0000,  0.0000,  0.0000)
  11 Pt     5.673071    0.000000   12.317643    ( 0.0000,  0.0000,  0.0000)
  12 Ir     1.418268    2.456512   12.317643    ( 0.0000,  0.0000,  0.0000)
  13 Pt     4.254803    2.456512   12.317643    ( 0.0000,  0.0000,  0.0000)
  14 Ag     7.091338    2.456512   12.317643    ( 0.0000,  0.0000,  0.0000)
  15 Pt     2.836535    4.913023   12.317643    ( 0.0000,  0.0000,  0.0000)
  16 Pd     5.673071    4.913023   12.317643    ( 0.0000,  0.0000,  0.0000)
  17 Pd     8.509606    4.913023   12.317643    ( 0.0000,  0.0000,  0.0000)
  18 Ag     1.388842    0.761992   14.611457    ( 0.0000,  0.0000,  0.0000)
  19 Ag     4.222906    0.791077   14.654889    ( 0.0000,  0.0000,  0.0000)
  20 Pt     7.072681    0.804729   14.663233    ( 0.0000,  0.0000,  0.0000)
  21 Ru     2.749678    3.307311   14.387708    ( 0.0000,  0.0000,  0.0000)
  22 Pd     5.607398    3.221804   14.639366    ( 0.0000,  0.0000,  0.0000)
  23 Pt     8.524877    3.259329   14.660648    ( 0.0000,  0.0000,  0.0000)
  24 Pt     4.174631    5.656473   14.614391    ( 0.0000,  0.0000,  0.0000)
  25 Pt     7.046168    5.607649   14.670695    ( 0.0000,  0.0000,  0.0000)
  26 Ag     9.879598    5.754740   14.694928    ( 0.0000,  0.0000,  0.0000)
  27 Ag     0.016845    1.615345   16.996608    ( 0.0000,  0.0000,  0.0000)
  28 Ag     2.800203    1.625711   16.880429    ( 0.0000,  0.0000,  0.0000)
  29 Pt     5.671479    1.642509   17.013667    ( 0.0000,  0.0000,  0.0000)
  30 Ag     1.342554    4.094451   17.004958    ( 0.0000,  0.0000,  0.0000)
  31 Pd     4.165503    4.037444   16.813078    ( 0.0000,  0.0000,  0.0000)
  32 Ru     6.951949    4.066269   16.867066    ( 0.0000,  0.0000,  0.0000)
  33 Pd     2.796860    6.567453   17.027828    ( 0.0000,  0.0000,  0.0000)
  34 Pt     5.661150    6.420748   16.911602    ( 0.0000,  0.0000,  0.0000)
  35 Pd     8.432684    6.505022   17.066171    ( 0.0000,  0.0000,  0.0000)
  36 Pt     0.071368   -0.041426   19.272296    ( 0.0000,  0.0000,  0.0000)
  37 Pt     2.805399    0.089702   19.247299    ( 0.0000,  0.0000,  0.0000)
  38 Ag     5.703746    0.007101   19.480964    ( 0.0000,  0.0000,  0.0000)
  39 Pt     1.553103    2.467528   19.415087    ( 0.0000,  0.0000,  0.0000)
  40 Ru     4.239254    2.604467   19.103018    ( 0.0000,  0.0000,  0.0000)
  41 Pt     7.107096    2.493711   19.216759    ( 0.0000,  0.0000,  0.0000)
  42 Ir     3.041796    4.826597   19.152296    ( 0.0000,  0.0000,  0.0000)
  43 Pt     5.711402    4.866320   19.166892    ( 0.0000,  0.0000,  0.0000)
  44 Ag     8.566627    4.896060   19.518762    ( 0.0000,  0.0000,  0.0000)
  45 H      2.939922    3.300575   20.792494    ( 0.0000,  0.0000,  0.0000)

Unit cell:
           periodic     x           y           z      points  spacing
  1. axis:    yes    8.509606    0.000000    0.000000    40     0.1842
  2. axis:    yes    4.254803    7.369535    0.000000    40     0.1842
  3. axis:    no     0.000000    0.000000   29.270571   140     0.2091

  Lengths:   8.509606   8.509606  29.270571
  Angles:   90.000000  90.000000  60.000000

Effective grid spacing dv^(1/3) = 0.2016

     iter     time        total  log10-change:
                         energy  eigst   dens
iter:   1 22:45:43  -190.124237  -4.38
iter:   2 22:46:50  -202.380358  -3.25  -2.35
iter:   3 22:47:58  -190.249936  -3.68  -1.71
iter:   4 22:49:06  -189.729786  -4.69  -2.42
iter:   5 22:50:15  -189.668620  -5.54  -2.91
iter:   6 22:51:23  -189.655820c -5.82  -3.36
iter:   7 22:52:32  -189.660645c -6.22  -3.47
iter:   8 22:53:40  -189.652591c -6.03  -3.57
iter:   9 22:54:49  -189.653057c -6.84  -3.86
iter:  10 22:55:58  -189.653869c -7.23  -3.81
iter:  11 22:57:06  -189.652692c -7.42c -4.07c

Converged after 11 iterations.

Dipole moment: (-5.707765, 7.476720, -0.250606) |e|*Ang

Energy contributions relative to reference atoms: (reference = -12371328.023897)

Kinetic:       -228.281668
Potential:     +101.008731
External:        +0.000000
XC:             -54.517191
Entropy (-ST):   -1.893173
Local:           -6.915977
--------------------------
Free energy:   -190.599279
Extrapolated:  -189.652692

Showing only first 2 kpts
 Kpt  Band  Eigenvalues  Occupancy
  0   364      0.77484    0.91459
  0   365      0.78400    0.86934
  0   366      0.82437    0.67855
  0   367      0.84856    0.57465

  1   364      0.63698    1.53966
  1   365      0.67820    1.37787
  1   366      0.69016    1.32548
  1   367      0.71120    1.22846


Fermi level: 0.75772

No gap

Forces in eV/Ang:
  0 Pd    0.71037    0.05385    0.09796
  1 Pt   -0.61472   -0.17202    0.55114
  2 Ag   -0.09649   -0.08071   -0.55679
  3 Pd   -0.05342   -0.33040    0.20817
  4 Ag   -0.00581    0.03643   -0.56888
  5 Ag    0.14592    0.17504   -0.49249
  6 Ag    0.04068   -0.00624   -0.47480
  7 Pd    0.24717    0.35612    0.07353
  8 Pd   -0.14182    0.12741    0.19634
  9 Pd    0.00954    0.07971   -0.03297
 10 Pd   -0.00286   -0.04958   -0.11291
 11 Pt   -0.03307   -0.14405    0.12951
 12 Ir    0.68353    0.14951   -0.04044
 13 Pt   -0.66082   -0.18711    0.24297
 14 Ag    0.10635   -0.01189    0.08149
 15 Pt   -0.27908    0.03035    0.14151
 16 Pd   -0.05974    0.26359    0.14548
 17 Pd    0.12986    0.01565    0.16461
 18 Ag   -0.00749    0.01972    0.01033
 19 Ag   -0.00482   -0.01791    0.01079
 20 Pt   -0.04748   -0.04928   -0.06808
 21 Ru    0.03084   -0.02245    0.00881
 22 Pd   -0.01907   -0.02240   -0.00681
 23 Pt   -0.00806   -0.02802    0.01390
 24 Pt    0.00819    0.00152    0.01544
 25 Pt    0.01645    0.00907   -0.04115
 26 Ag   -0.03227   -0.02972    0.00067
 27 Ag   -0.00723   -0.01515    0.01934
 28 Ag   -0.02374   -0.02622   -0.02079
 29 Pt   -0.06329    0.02474    0.07548
 30 Ag   -0.01348   -0.01009    0.01028
 31 Pd   -0.08541   -0.01036    0.04161
 32 Ru    0.01937   -0.02231    0.01687
 33 Pd   -0.00213   -0.12218    0.08550
 34 Pt   -0.03318    0.04453    0.02219
 35 Pd    0.00234   -0.02036   -0.02517
 36 Pt    0.03281    0.02296   -0.12909
 37 Pt    0.02304   -0.11620   -0.04519
 38 Ag    0.03267    0.01276   -0.04130
 39 Pt    0.14598    0.08345    0.69893
 40 Ru    0.09481   -0.17355    0.35055
 41 Pt    0.07890   -0.02015   -0.08552
 42 Ir   -0.08663    0.08564    0.64614
 43 Pt    0.11964   -0.01357   -0.09230
 44 Ag   -0.03414    0.05162   -0.02958
 45 H    -0.29883    0.08573   -1.80845

System changes: positions 

Initializing position-dependent things.

Density initialized from wave functions
                                             
                                             
                                             
                                             
                                             
                                             
                 H             Ag            
                  Ir    Pt                   
             Pt   PRu    PPt    Pd           
                     Ag                      
       Pt    APt    Pd     Ru                
        Ag            Pt                     
               Ag    Pt     Pt     Ag        
                       Pd     Pt             
                Ru                           
           Ag    PAg    PPt    Pd            
                                             
            Ir     Pt    PAg    Pd           
       Pd    PPd    APt    Ag                
                                             
        Pd     Pt     Ag                     
                                             
                                             
                                             
                                             
                                             

Positions:
   0 Pd     0.000000    1.637674   10.000000    ( 0.0000,  0.0000,  0.0000)
   1 Pt     2.836535    1.637674   10.000000    ( 0.0000,  0.0000,  0.0000)
   2 Ag     5.673071    1.637674   10.000000    ( 0.0000,  0.0000,  0.0000)
   3 Pd     1.418268    4.094186   10.000000    ( 0.0000,  0.0000,  0.0000)
   4 Ag     4.254803    4.094186   10.000000    ( 0.0000,  0.0000,  0.0000)
   5 Ag     7.091338    4.094186   10.000000    ( 0.0000,  0.0000,  0.0000)
   6 Ag     2.836535    6.550698   10.000000    ( 0.0000,  0.0000,  0.0000)
   7 Pd     5.673071    6.550698   10.000000    ( 0.0000,  0.0000,  0.0000)
   8 Pd     8.509606    6.550698   10.000000    ( 0.0000,  0.0000,  0.0000)
   9 Pd     0.000000    0.000000   12.317643    ( 0.0000,  0.0000,  0.0000)
  10 Pd     2.836535    0.000000   12.317643    ( 0.0000,  0.0000,  0.0000)
  11 Pt     5.673071    0.000000   12.317643    ( 0.0000,  0.0000,  0.0000)
  12 Ir     1.418268    2.456512   12.317643    ( 0.0000,  0.0000,  0.0000)
  13 Pt     4.254803    2.456512   12.317643    ( 0.0000,  0.0000,  0.0000)
  14 Ag     7.091338    2.456512   12.317643    ( 0.0000,  0.0000,  0.0000)
  15 Pt     2.836535    4.913023   12.317643    ( 0.0000,  0.0000,  0.0000)
  16 Pd     5.673071    4.913023   12.317643    ( 0.0000,  0.0000,  0.0000)
  17 Pd     8.509606    4.913023   12.317643    ( 0.0000,  0.0000,  0.0000)
  18 Ag     1.387887    0.764275   14.612545    ( 0.0000,  0.0000,  0.0000)
  19 Ag     4.222592    0.789235   14.656008    ( 0.0000,  0.0000,  0.0000)
  20 Pt     7.067305    0.799212   14.655619    ( 0.0000,  0.0000,  0.0000)
  21 Ru     2.752953    3.305039   14.388073    ( 0.0000,  0.0000,  0.0000)
  22 Pd     5.605280    3.219336   14.638844    ( 0.0000,  0.0000,  0.0000)
  23 Pt     8.524051    3.256272   14.662170    ( 0.0000,  0.0000,  0.0000)
  24 Pt     4.175420    5.656613   14.616209    ( 0.0000,  0.0000,  0.0000)
  25 Pt     7.047885    5.608440   14.666857    ( 0.0000,  0.0000,  0.0000)
  26 Ag     9.876214    5.751348   14.694766    ( 0.0000,  0.0000,  0.0000)
  27 Ag     0.015641    1.613597   16.998895    ( 0.0000,  0.0000,  0.0000)
  28 Ag     2.797825    1.622476   16.878103    ( 0.0000,  0.0000,  0.0000)
  29 Pt     5.664809    1.645377   17.022176    ( 0.0000,  0.0000,  0.0000)
  30 Ag     1.340707    4.093437   17.005585    ( 0.0000,  0.0000,  0.0000)
  31 Pd     4.156829    4.036468   16.817098    ( 0.0000,  0.0000,  0.0000)
  32 Ru     6.953964    4.063945   16.868799    ( 0.0000,  0.0000,  0.0000)
  33 Pd     2.797000    6.554232   17.037396    ( 0.0000,  0.0000,  0.0000)
  34 Pt     5.657691    6.425329   16.914181    ( 0.0000,  0.0000,  0.0000)
  35 Pd     8.432414    6.502812   17.063526    ( 0.0000,  0.0000,  0.0000)
  36 Pt     0.075063   -0.038995   19.258957    ( 0.0000,  0.0000,  0.0000)
  37 Pt     2.807852    0.076847   19.243280    ( 0.0000,  0.0000,  0.0000)
  38 Ag     5.707426    0.008736   19.476894    ( 0.0000,  0.0000,  0.0000)
  39 Pt     1.569172    2.476694   19.493667    ( 0.0000,  0.0000,  0.0000)
  40 Ru     4.250142    2.584770   19.143371    ( 0.0000,  0.0000,  0.0000)
  41 Pt     7.115510    2.491484   19.207959    ( 0.0000,  0.0000,  0.0000)
  42 Ir     3.031874    4.836872   19.224767    ( 0.0000,  0.0000,  0.0000)
  43 Pt     5.724711    4.864743   19.157782    ( 0.0000,  0.0000,  0.0000)
  44 Ag     8.562779    4.901567   19.516152    ( 0.0000,  0.0000,  0.0000)
  45 H      2.907732    3.309746   20.595315    ( 0.0000,  0.0000,  0.0000)

Unit cell:
           periodic     x           y           z      points  spacing
  1. axis:    yes    8.509606    0.000000    0.000000    40     0.1842
  2. axis:    yes    4.254803    7.369535    0.000000    40     0.1842
  3. axis:    no     0.000000    0.000000   29.270571   140     0.2091

  Lengths:   8.509606   8.509606  29.270571
  Angles:   90.000000  90.000000  60.000000

Effective grid spacing dv^(1/3) = 0.2016

     iter     time        total  log10-change:
                         energy  eigst   dens
iter:   1 22:58:36  -199.662558  -2.99
iter:   2 22:59:45  -288.885161  -2.12  -1.76
iter:   3 23:00:54  -199.343507  -2.42  -1.31
iter:   4 23:02:03  -191.389033  -3.34  -1.81
iter:   5 23:03:12  -190.374925  -4.08  -2.22
iter:   6 23:04:21  -190.271407  -4.78  -2.57
iter:   7 23:05:30  -190.168995c -4.80  -2.67
iter:   8 23:06:40  -190.107091c -4.50  -2.78
iter:   9 23:07:49  -190.236823c -5.00  -2.79
iter:  10 23:08:58  -190.061916c -5.06  -2.63
iter:  11 23:10:08  -190.056151c -5.58  -3.18
iter:  12 23:11:17  -190.057166c -5.86  -3.09
iter:  13 23:12:25  -190.053721c -5.88  -3.25
iter:  14 23:13:34  -190.052805c -6.41  -3.49
iter:  15 23:14:43  -190.052113c -6.69  -3.57
iter:  16 23:15:52  -190.057086c -6.52  -3.44
iter:  17 23:17:01  -190.051644c -6.49  -3.53
iter:  18 23:18:11  -190.052816c -6.71  -3.82
iter:  19 23:19:20  -190.051247c -7.16  -3.96
iter:  20 23:20:29  -190.052437c -7.18  -4.01c
iter:  21 23:21:38  -190.052046c -7.73c -4.14c

Converged after 21 iterations.

Dipole moment: (-5.593178, 7.589724, -0.251486) |e|*Ang

Energy contributions relative to reference atoms: (reference = -12371328.023897)

Kinetic:       -231.389452
Potential:     +103.733858
External:        +0.000000
XC:             -54.546279
Entropy (-ST):   -1.897448
Local:           -6.901448
--------------------------
Free energy:   -191.000770
Extrapolated:  -190.052046

Showing only first 2 kpts
 Kpt  Band  Eigenvalues  Occupancy
  0   364      0.77533    0.92154
  0   365      0.77926    0.90204
  0   366      0.82482    0.68498
  0   367      0.85159    0.56998

  1   364      0.63987    1.53608
  1   365      0.68000    1.37825
  1   366      0.69526    1.31103
  1   367      0.71145    1.23623


Fermi level: 0.75960

No gap

Forces in eV/Ang:
  0 Pd    0.71552    0.05912    0.10269
  1 Pt   -0.61571   -0.17025    0.56311
  2 Ag   -0.09890   -0.08400   -0.55037
  3 Pd   -0.05166   -0.33404    0.21995
  4 Ag   -0.01004    0.03459   -0.56253
  5 Ag    0.15014    0.17376   -0.48578
  6 Ag    0.03999   -0.00559   -0.46673
  7 Pd    0.24524    0.36052    0.07731
  8 Pd   -0.13666    0.13422    0.20490
  9 Pd    0.01320    0.07664   -0.01924
 10 Pd   -0.00190   -0.04238   -0.10046
 11 Pt   -0.04169   -0.15299    0.12723
 12 Ir    0.68793    0.15799   -0.01723
 13 Pt   -0.66409   -0.19022    0.25428
 14 Ag    0.10840   -0.00925    0.08804
 15 Pt   -0.27948    0.02125    0.16934
 16 Pd   -0.06891    0.26148    0.15916
 17 Pd    0.13774    0.00863    0.16981
 18 Ag   -0.02267    0.00355    0.00543
 19 Ag   -0.00527   -0.01633    0.01093
 20 Pt   -0.03418   -0.03689    0.03226
 21 Ru    0.00978   -0.00167    0.00139
 22 Pd   -0.00454   -0.00234    0.04246
 23 Pt   -0.00391   -0.02589    0.01705
 24 Pt   -0.00277   -0.01740    0.04104
 25 Pt   -0.02818   -0.00977    0.02807
 26 Ag    0.00522   -0.03317    0.00338
 27 Ag   -0.01857   -0.01452   -0.04390
 28 Ag   -0.02441    0.04190    0.15932
 29 Pt   -0.01657   -0.03743   -0.02076
 30 Ag    0.06419   -0.07196    0.18573
 31 Pd   -0.08539   -0.02657    0.29959
 32 Ru   -0.03114   -0.00105   -0.03825
 33 Pd   -0.04454   -0.01663    0.02593
 34 Pt   -0.00130   -0.00393   -0.06502
 35 Pd    0.00010   -0.01444   -0.05990
 36 Pt    0.03026   -0.00400    0.05361
 37 Pt   -0.00624    0.04668    0.05376
 38 Ag    0.03219   -0.00072    0.01857
 39 Pt   -0.00106   -0.10245    0.31070
 40 Ru    0.16033    0.02612   -0.07841
 41 Pt    0.07138   -0.00854    0.05734
 42 Ir    0.24042   -0.06230    0.13862
 43 Pt   -0.10165   -0.08264    0.02419
 44 Ag    0.03102    0.01011    0.04423
 45 H    -0.34013    0.17093   -1.11983

System changes: positions 

Initializing position-dependent things.

Density initialized from wave functions
                                             
                                             
                                             
                                             
                                             
                                             
                H Ir     Pt    Ag            
                                             
             Pt   PRu    PPt    Pd           
                     Ag                      
       Pt    APt    Pd     Ru                
        Ag     Ag     Pt           Ag        
                     Pt     Pt               
                Ru     Pd     Pt             
                                             
           Ag    PAg    PPt    Pd            
                                             
            Ir     Pt    PAg    Pd           
       Pd    PPd    APt    Ag                
                                             
        Pd     Pt     Ag                     
                                             
                                             
                                             
                                             
                                             

Positions:
   0 Pd     0.000000    1.637674   10.000000    ( 0.0000,  0.0000,  0.0000)
   1 Pt     2.836535    1.637674   10.000000    ( 0.0000,  0.0000,  0.0000)
   2 Ag     5.673071    1.637674   10.000000    ( 0.0000,  0.0000,  0.0000)
   3 Pd     1.418268    4.094186   10.000000    ( 0.0000,  0.0000,  0.0000)
   4 Ag     4.254803    4.094186   10.000000    ( 0.0000,  0.0000,  0.0000)
   5 Ag     7.091338    4.094186   10.000000    ( 0.0000,  0.0000,  0.0000)
   6 Ag     2.836535    6.550698   10.000000    ( 0.0000,  0.0000,  0.0000)
   7 Pd     5.673071    6.550698   10.000000    ( 0.0000,  0.0000,  0.0000)
   8 Pd     8.509606    6.550698   10.000000    ( 0.0000,  0.0000,  0.0000)
   9 Pd     0.000000    0.000000   12.317643    ( 0.0000,  0.0000,  0.0000)
  10 Pd     2.836535    0.000000   12.317643    ( 0.0000,  0.0000,  0.0000)
  11 Pt     5.673071    0.000000   12.317643    ( 0.0000,  0.0000,  0.0000)
  12 Ir     1.418268    2.456512   12.317643    ( 0.0000,  0.0000,  0.0000)
  13 Pt     4.254803    2.456512   12.317643    ( 0.0000,  0.0000,  0.0000)
  14 Ag     7.091338    2.456512   12.317643    ( 0.0000,  0.0000,  0.0000)
  15 Pt     2.836535    4.913023   12.317643    ( 0.0000,  0.0000,  0.0000)
  16 Pd     5.673071    4.913023   12.317643    ( 0.0000,  0.0000,  0.0000)
  17 Pd     8.509606    4.913023   12.317643    ( 0.0000,  0.0000,  0.0000)
  18 Ag     1.386442    0.766365   14.613593    ( 0.0000,  0.0000,  0.0000)
  19 Ag     4.222279    0.787297   14.657215    ( 0.0000,  0.0000,  0.0000)
  20 Pt     7.061775    0.793515   14.649870    ( 0.0000,  0.0000,  0.0000)
  21 Ru     2.755956    3.303133   14.388171    ( 0.0000,  0.0000,  0.0000)
  22 Pd     5.603345    3.217164   14.639568    ( 0.0000,  0.0000,  0.0000)
  23 Pt     8.523270    3.253011   14.663902    ( 0.0000,  0.0000,  0.0000)
  24 Pt     4.175979    5.656280   14.618855    ( 0.0000,  0.0000,  0.0000)
  25 Pt     7.048600    5.608784   14.664567    ( 0.0000,  0.0000,  0.0000)
  26 Ag     9.873520    5.747555   14.694615    ( 0.0000,  0.0000,  0.0000)
  27 Ag     0.013971    1.611700   16.999805    ( 0.0000,  0.0000,  0.0000)
  28 Ag     2.795267    1.620627   16.880134    ( 0.0000,  0.0000,  0.0000)
  29 Pt     5.658800    1.646942   17.029016    ( 0.0000,  0.0000,  0.0000)
  30 Ag     1.340603    4.090784   17.010624    ( 0.0000,  0.0000,  0.0000)
  31 Pd     4.147538    4.035027   16.827903    ( 0.0000,  0.0000,  0.0000)
  32 Ru     6.954853    4.061983   16.869261    ( 0.0000,  0.0000,  0.0000)
  33 Pd     2.796144    6.542588   17.046307    ( 0.0000,  0.0000,  0.0000)
  34 Pt     5.654776    6.429019   16.914796    ( 0.0000,  0.0000,  0.0000)
  35 Pd     8.431967    6.500568   17.059797    ( 0.0000,  0.0000,  0.0000)
  36 Pt     0.079027   -0.037054   19.249256    ( 0.0000,  0.0000,  0.0000)
  37 Pt     2.809759    0.067002   19.241595    ( 0.0000,  0.0000,  0.0000)
  38 Ag     5.711426    0.010212   19.474077    ( 0.0000,  0.0000,  0.0000)
  39 Pt     1.582899    2.481933   19.569478    ( 0.0000,  0.0000,  0.0000)
  40 Ru     4.263711    2.568331   19.176648    ( 0.0000,  0.0000,  0.0000)
  41 Pt     7.124410    2.489356   19.202132    ( 0.0000,  0.0000,  0.0000)
  42 Ir     3.029317    4.844435   19.290862    ( 0.0000,  0.0000,  0.0000)
  43 Pt     5.733583    4.861263   19.151029    ( 0.0000,  0.0000,  0.0000)
  44 Ag     8.560234    4.906464   19.515304    ( 0.0000,  0.0000,  0.0000)
  45 H      2.871845    3.321821   20.398932    ( 0.0000,  0.0000,  0.0000)

Unit cell:
           periodic     x           y           z      points  spacing
  1. axis:    yes    8.509606    0.000000    0.000000    40     0.1842
  2. axis:    yes    4.254803    7.369535    0.000000    40     0.1842
  3. axis:    no     0.000000    0.000000   29.270571   140     0.2091

  Lengths:   8.509606   8.509606  29.270571
  Angles:   90.000000  90.000000  60.000000

Effective grid spacing dv^(1/3) = 0.2016

     iter     time        total  log10-change:
                         energy  eigst   dens
iter:   1 23:23:10  -195.270758  -3.08
iter:   2 23:24:18  -246.784845  -2.43  -1.89
iter:   3 23:25:27  -196.557678  -2.65  -1.44
iter:   4 23:26:36  -190.933459  -3.52  -1.89
iter:   5 23:27:45  -190.328328  -4.27  -2.34
iter:   6 23:28:53  -190.286511  -5.01  -2.70
iter:   7 23:30:01  -190.223456c -5.09  -2.78
iter:   8 23:31:09  -190.163367c -4.62  -2.90
iter:   9 23:32:18  -190.242838c -5.22  -3.11
iter:  10 23:33:27  -190.155732c -5.56  -2.76
iter:  11 23:34:36  -190.149574c -5.81  -3.24
iter:  12 23:35:44  -190.151125c -6.03  -3.20
iter:  13 23:36:53  -190.148067c -6.14  -3.38
iter:  14 23:38:01  -190.147633c -6.32  -3.44
iter:  15 23:39:08  -190.147616c -6.46  -3.59
iter:  16 23:40:16  -190.164220c -6.25  -3.53
iter:  17 23:41:24  -190.147802c -6.36  -3.20
iter:  18 23:42:32  -190.149846c -7.09  -3.85
iter:  19 23:43:40  -190.147454c -7.21  -3.88
iter:  20 23:44:48  -190.148590c -7.44c -3.94
iter:  21 23:45:56  -190.148571c -7.55c -4.09c

Converged after 21 iterations.

Dipole moment: (-5.779098, 7.617139, -0.255704) |e|*Ang

Energy contributions relative to reference atoms: (reference = -12371328.023897)

Kinetic:       -229.913779
Potential:     +102.656605
External:        +0.000000
XC:             -55.043249
Entropy (-ST):   -1.900653
Local:           -6.897822
--------------------------
Free energy:   -191.098898
Extrapolated:  -190.148571

Showing only first 2 kpts
 Kpt  Band  Eigenvalues  Occupancy
  0   364      0.76389    0.96038
  0   365      0.77619    0.89916
  0   366      0.81840    0.69757
  0   367      0.84635    0.57650

  1   364      0.63663    1.53466
  1   365      0.67445    1.38636
  1   366      0.69163    1.31100
  1   367      0.70875    1.23174


Fermi level: 0.75596

No gap

Forces in eV/Ang:
  0 Pd    0.71364    0.06249    0.09634
  1 Pt   -0.61223   -0.16964    0.55531
  2 Ag   -0.09803   -0.08275   -0.55894
  3 Pd   -0.05122   -0.33230    0.21372
  4 Ag   -0.00788    0.03547   -0.56815
  5 Ag    0.14813    0.17050   -0.49163
  6 Ag    0.03999   -0.00612   -0.47413
  7 Pd    0.24180    0.35761    0.07227
  8 Pd   -0.13307    0.13589    0.19958
  9 Pd    0.01659    0.07433   -0.01440
 10 Pd   -0.00373   -0.03858   -0.09571
 11 Pt   -0.04807   -0.15885    0.11824
 12 Ir    0.68924    0.16285   -0.00899
 13 Pt   -0.66308   -0.19324    0.25586
 14 Ag    0.10924   -0.00697    0.09293
 15 Pt   -0.27639    0.01702    0.18307
 16 Pd   -0.07353    0.26057    0.16407
 17 Pd    0.13905    0.00203    0.16749
 18 Ag   -0.02454   -0.01016   -0.00355
 19 Ag   -0.01858   -0.00905    0.01090
 20 Pt   -0.01346   -0.02092    0.10575
 21 Ru   -0.00637    0.01044    0.00757
 22 Pd   -0.00761    0.01894    0.08053
 23 Pt    0.00139   -0.01159    0.00891
 24 Pt   -0.01619   -0.04377    0.06694
 25 Pt   -0.05984   -0.02455    0.05906
 26 Ag    0.03267   -0.04129    0.01282
 27 Ag   -0.03840   -0.02555   -0.10570
 28 Ag   -0.01101    0.07246    0.25337
 29 Pt    0.00750   -0.07601   -0.08321
 30 Ag    0.09271   -0.09215    0.29106
 31 Pd   -0.02780   -0.01762    0.38035
 32 Ru   -0.07099    0.01317   -0.05921
 33 Pd   -0.07514    0.06780   -0.03861
 34 Pt    0.01361   -0.05337   -0.10528
 35 Pd    0.00807   -0.01235   -0.05336
 36 Pt    0.00968   -0.03746    0.21585
 37 Pt   -0.00525    0.13406    0.11293
 38 Ag    0.03179   -0.02420    0.06534
 39 Pt   -0.56698   -0.51782   -0.37479
 40 Ru    0.30630    0.06548   -0.43760
 41 Pt    0.04129   -0.00601    0.16869
 42 Ir    0.43316    0.14856   -0.44965
 43 Pt   -0.20717   -0.09112    0.09324
 44 Ag    0.07919   -0.01031    0.10104
 45 H    -0.03125    0.31617    0.06715

System changes: positions 

Initializing position-dependent things.

Density initialized from wave functions
                                             
                                             
                                             
                                             
                                             
                                             
                H Ir           Ag            
                         Pt                  
             Pt   PRu    PPt    Pd           
                     Ag                      
       Pt    APt    Pd     Ru                
        Ag            Pt                     
               Ag    Pt     Pt     Ag        
                       Pd     Pt             
                Ru                           
           Ag    PAg    PPt    Pd            
                                             
            Ir     Pt    PAg    Pd           
       Pd    PPd    APt    Ag                
                                             
        Pd     Pt     Ag                     
                                             
                                             
                                             
                                             
                                             

Positions:
   0 Pd     0.000000    1.637674   10.000000    ( 0.0000,  0.0000,  0.0000)
   1 Pt     2.836535    1.637674   10.000000    ( 0.0000,  0.0000,  0.0000)
   2 Ag     5.673071    1.637674   10.000000    ( 0.0000,  0.0000,  0.0000)
   3 Pd     1.418268    4.094186   10.000000    ( 0.0000,  0.0000,  0.0000)
   4 Ag     4.254803    4.094186   10.000000    ( 0.0000,  0.0000,  0.0000)
   5 Ag     7.091338    4.094186   10.000000    ( 0.0000,  0.0000,  0.0000)
   6 Ag     2.836535    6.550698   10.000000    ( 0.0000,  0.0000,  0.0000)
   7 Pd     5.673071    6.550698   10.000000    ( 0.0000,  0.0000,  0.0000)
   8 Pd     8.509606    6.550698   10.000000    ( 0.0000,  0.0000,  0.0000)
   9 Pd     0.000000    0.000000   12.317643    ( 0.0000,  0.0000,  0.0000)
  10 Pd     2.836535    0.000000   12.317643    ( 0.0000,  0.0000,  0.0000)
  11 Pt     5.673071    0.000000   12.317643    ( 0.0000,  0.0000,  0.0000)
  12 Ir     1.418268    2.456512   12.317643    ( 0.0000,  0.0000,  0.0000)
  13 Pt     4.254803    2.456512   12.317643    ( 0.0000,  0.0000,  0.0000)
  14 Ag     7.091338    2.456512   12.317643    ( 0.0000,  0.0000,  0.0000)
  15 Pt     2.836535    4.913023   12.317643    ( 0.0000,  0.0000,  0.0000)
  16 Pd     5.673071    4.913023   12.317643    ( 0.0000,  0.0000,  0.0000)
  17 Pd     8.509606    4.913023   12.317643    ( 0.0000,  0.0000,  0.0000)
  18 Ag     1.386388    0.765845   14.613340    ( 0.0000,  0.0000,  0.0000)
  19 Ag     4.222173    0.787586   14.657096    ( 0.0000,  0.0000,  0.0000)
  20 Pt     7.062669    0.794367   14.652307    ( 0.0000,  0.0000,  0.0000)
  21 Ru     2.755255    3.303685   14.388113    ( 0.0000,  0.0000,  0.0000)
  22 Pd     5.603658    3.217821   14.640459    ( 0.0000,  0.0000,  0.0000)
  23 Pt     8.523451    3.253503   14.663682    ( 0.0000,  0.0000,  0.0000)
  24 Pt     4.175655    5.655821   14.619164    ( 0.0000,  0.0000,  0.0000)
  25 Pt     7.047697    5.608375   14.665918    ( 0.0000,  0.0000,  0.0000)
  26 Ag     9.874495    5.747790   14.694748    ( 0.0000,  0.0000,  0.0000)
  27 Ag     0.013773    1.611768   16.998370    ( 0.0000,  0.0000,  0.0000)
  28 Ag     2.795662    1.621862   16.882922    ( 0.0000,  0.0000,  0.0000)
  29 Pt     5.660167    1.645703   17.026640    ( 0.0000,  0.0000,  0.0000)
  30 Ag     1.341753    4.090149   17.013165    ( 0.0000,  0.0000,  0.0000)
  31 Pd     4.149089    4.035092   16.830530    ( 0.0000,  0.0000,  0.0000)
  32 Ru     6.953780    4.062565   16.868380    ( 0.0000,  0.0000,  0.0000)
  33 Pd     2.795453    6.545787   17.044111    ( 0.0000,  0.0000,  0.0000)
  34 Pt     5.655578    6.427584   16.913354    ( 0.0000,  0.0000,  0.0000)
  35 Pd     8.432043    6.500874   17.059852    ( 0.0000,  0.0000,  0.0000)
  36 Pt     0.078401   -0.037900   19.253981    ( 0.0000,  0.0000,  0.0000)
  37 Pt     2.809259    0.070674   19.243529    ( 0.0000,  0.0000,  0.0000)
  38 Ag     5.711035    0.009683   19.475533    ( 0.0000,  0.0000,  0.0000)
  39 Pt     1.573911    2.474944   19.550655    ( 0.0000,  0.0000,  0.0000)
  40 Ru     4.264705    2.572502   19.164975    ( 0.0000,  0.0000,  0.0000)
  41 Pt     7.123132    2.489716   19.205488    ( 0.0000,  0.0000,  0.0000)
  42 Ir     3.035199    4.844376   19.272687    ( 0.0000,  0.0000,  0.0000)
  43 Pt     5.729173    4.860744   19.153756    ( 0.0000,  0.0000,  0.0000)
  44 Ag     8.561706    4.905307   19.516839    ( 0.0000,  0.0000,  0.0000)
  45 H      2.878193    3.323130   20.438244    ( 0.0000,  0.0000,  0.0000)

Unit cell:
           periodic     x           y           z      points  spacing
  1. axis:    yes    8.509606    0.000000    0.000000    40     0.1842
  2. axis:    yes    4.254803    7.369535    0.000000    40     0.1842
  3. axis:    no     0.000000    0.000000   29.270571   140     0.2091

  Lengths:   8.509606   8.509606  29.270571
  Angles:   90.000000  90.000000  60.000000

Effective grid spacing dv^(1/3) = 0.2016

     iter     time        total  log10-change:
                         energy  eigst   dens
iter:   1 23:47:28  -190.389472  -4.05
iter:   2 23:48:36  -195.098461  -3.83  -2.56
iter:   3 23:49:44  -190.219608  -4.05  -1.90
iter:   4 23:50:55  -190.189155  -5.48  -3.07
iter:   5 23:52:06  -190.201208c -5.73  -3.21
iter:   6 23:53:17  -190.180514c -5.85  -3.17
iter:   7 23:54:28  -190.181964c -6.00  -3.33
iter:   8 23:55:39  -190.182987c -6.24  -3.71
iter:   9 23:56:48  -190.179908c -6.59  -3.62
iter:  10 23:57:58  -190.180927c -7.00  -3.72
iter:  11 23:59:05  -190.182176c -7.18  -3.75
iter:  12 00:00:13  -190.180021c -7.08  -3.74
iter:  13 00:01:20  -190.179901c -7.64c -4.10c

Converged after 13 iterations.

Dipole moment: (-5.835941, 7.560968, -0.247324) |e|*Ang

Energy contributions relative to reference atoms: (reference = -12371328.023897)

Kinetic:       -231.281868
Potential:     +103.857453
External:        +0.000000
XC:             -54.878410
Entropy (-ST):   -1.898237
Local:           -6.927959
--------------------------
Free energy:   -191.129020
Extrapolated:  -190.179901

Showing only first 2 kpts
 Kpt  Band  Eigenvalues  Occupancy
  0   364      0.77000    0.94616
  0   365      0.77918    0.90055
  0   366      0.82243    0.69408
  0   367      0.85101    0.57081

  1   364      0.63970    1.53537
  1   365      0.67882    1.38166
  1   366      0.69469    1.31193
  1   367      0.71173    1.23309


Fermi level: 0.75922

No gap

Forces in eV/Ang:
  0 Pd    0.70311    0.06143    0.09537
  1 Pt   -0.60364   -0.16342    0.55287
  2 Ag   -0.09565   -0.07928   -0.56029
  3 Pd   -0.04862   -0.32984    0.21170
  4 Ag   -0.00452    0.03504   -0.57129
  5 Ag    0.14275    0.16736   -0.49334
  6 Ag    0.04091   -0.00515   -0.47714
  7 Pd    0.23647    0.34935    0.07140
  8 Pd   -0.12891    0.13575    0.19835
  9 Pd    0.01211    0.07550   -0.01829
 10 Pd   -0.00367   -0.04183   -0.09660
 11 Pt   -0.04303   -0.15415    0.11875
 12 Ir    0.68447    0.16186   -0.01101
 13 Pt   -0.65805   -0.18991    0.25211
 14 Ag    0.10791   -0.00750    0.09067
 15 Pt   -0.27254    0.01957    0.17569
 16 Pd   -0.07121    0.25849    0.16026
 17 Pd    0.13453    0.00156    0.16873
 18 Ag   -0.01822   -0.00368   -0.00114
 19 Ag   -0.01988   -0.00944    0.01120
 20 Pt   -0.01846   -0.02009    0.04462
 21 Ru   -0.00449    0.00086    0.00951
 22 Pd   -0.01245    0.00682    0.05539
 23 Pt   -0.00258   -0.00923    0.01306
 24 Pt   -0.01389   -0.03894    0.05697
 25 Pt   -0.03828   -0.02223    0.03344
 26 Ag    0.01654   -0.04173    0.01488
 27 Ag   -0.03393   -0.02097   -0.06011
 28 Ag   -0.01254    0.04795    0.19959
 29 Pt    0.00801   -0.05746   -0.04891
 30 Ag    0.06224   -0.06944    0.23726
 31 Pd   -0.03460   -0.01531    0.29177
 32 Ru   -0.04535    0.00314   -0.02227
 33 Pd   -0.06126    0.03532   -0.00446
 34 Pt    0.00212   -0.03886   -0.05301
 35 Pd    0.00115   -0.02372   -0.02672
 36 Pt    0.01806   -0.01538    0.13348
 37 Pt    0.01350    0.06094    0.06335
 38 Ag    0.03145   -0.02171    0.03480
 39 Pt   -0.25298   -0.27441   -0.16605
 40 Ru    0.20546    0.03289   -0.28228
 41 Pt    0.05929   -0.01076    0.09951
 42 Ir    0.29342    0.00670   -0.26402
 43 Pt   -0.09490   -0.06396    0.03697
 44 Ag    0.06226    0.00127    0.06953
 45 H    -0.16165    0.26823   -0.21325

System changes: positions 

Initializing position-dependent things.

Density initialized from wave functions
                                             
                                             
                                             
                                             
                                             
                                             
                H Ir           Ag            
                        Pt                   
             Pt   PRu    PPt    Pd           
                     Ag                      
       Pt    APt    Pd     Ru                
        Ag     Ag     Pt                     
                     Pt     Pt     Ag        
                       Pd     Pt             
                Ru                           
           Ag    PAg    PPt    Pd            
                                             
            Ir     Pt    PAg    Pd           
       Pd    PPd    APt    Ag                
                                             
        Pd     Pt     Ag                     
                                             
                                             
                                             
                                             
                                             

Positions:
   0 Pd     0.000000    1.637674   10.000000    ( 0.0000,  0.0000,  0.0000)
   1 Pt     2.836535    1.637674   10.000000    ( 0.0000,  0.0000,  0.0000)
   2 Ag     5.673071    1.637674   10.000000    ( 0.0000,  0.0000,  0.0000)
   3 Pd     1.418268    4.094186   10.000000    ( 0.0000,  0.0000,  0.0000)
   4 Ag     4.254803    4.094186   10.000000    ( 0.0000,  0.0000,  0.0000)
   5 Ag     7.091338    4.094186   10.000000    ( 0.0000,  0.0000,  0.0000)
   6 Ag     2.836535    6.550698   10.000000    ( 0.0000,  0.0000,  0.0000)
   7 Pd     5.673071    6.550698   10.000000    ( 0.0000,  0.0000,  0.0000)
   8 Pd     8.509606    6.550698   10.000000    ( 0.0000,  0.0000,  0.0000)
   9 Pd     0.000000    0.000000   12.317643    ( 0.0000,  0.0000,  0.0000)
  10 Pd     2.836535    0.000000   12.317643    ( 0.0000,  0.0000,  0.0000)
  11 Pt     5.673071    0.000000   12.317643    ( 0.0000,  0.0000,  0.0000)
  12 Ir     1.418268    2.456512   12.317643    ( 0.0000,  0.0000,  0.0000)
  13 Pt     4.254803    2.456512   12.317643    ( 0.0000,  0.0000,  0.0000)
  14 Ag     7.091338    2.456512   12.317643    ( 0.0000,  0.0000,  0.0000)
  15 Pt     2.836535    4.913023   12.317643    ( 0.0000,  0.0000,  0.0000)
  16 Pd     5.673071    4.913023   12.317643    ( 0.0000,  0.0000,  0.0000)
  17 Pd     8.509606    4.913023   12.317643    ( 0.0000,  0.0000,  0.0000)
  18 Ag     1.385842    0.765737   14.613272    ( 0.0000,  0.0000,  0.0000)
  19 Ag     4.221746    0.787403   14.657351    ( 0.0000,  0.0000,  0.0000)
  20 Pt     7.062205    0.793852   14.653805    ( 0.0000,  0.0000,  0.0000)
  21 Ru     2.755059    3.303848   14.388129    ( 0.0000,  0.0000,  0.0000)
  22 Pd     5.603373    3.218080   14.642113    ( 0.0000,  0.0000,  0.0000)
  23 Pt     8.523433    3.253285   14.663985    ( 0.0000,  0.0000,  0.0000)
  24 Pt     4.175237    5.654776   14.620721    ( 0.0000,  0.0000,  0.0000)
  25 Pt     7.046543    5.607705   14.667201    ( 0.0000,  0.0000,  0.0000)
  26 Ag     9.875097    5.746694   14.695039    ( 0.0000,  0.0000,  0.0000)
  27 Ag     0.012735    1.611187   16.996610    ( 0.0000,  0.0000,  0.0000)
  28 Ag     2.795447    1.623138   16.888391    ( 0.0000,  0.0000,  0.0000)
  29 Pt     5.660534    1.644143   17.025193    ( 0.0000,  0.0000,  0.0000)
  30 Ag     1.343416    4.088269   17.019420    ( 0.0000,  0.0000,  0.0000)
  31 Pd     4.148551    4.034748   16.838343    ( 0.0000,  0.0000,  0.0000)
  32 Ru     6.952411    4.062765   16.867548    ( 0.0000,  0.0000,  0.0000)
  33 Pd     2.793924    6.547062   17.043796    ( 0.0000,  0.0000,  0.0000)
  34 Pt     5.655792    6.426350   16.911730    ( 0.0000,  0.0000,  0.0000)
  35 Pd     8.431921    6.500348   17.059082    ( 0.0000,  0.0000,  0.0000)
  36 Pt     0.078827   -0.038468   19.258293    ( 0.0000,  0.0000,  0.0000)
  37 Pt     2.809459    0.072725   19.245809    ( 0.0000,  0.0000,  0.0000)
  38 Ag     5.711852    0.009177   19.476799    ( 0.0000,  0.0000,  0.0000)
  39 Pt     1.565622    2.466498   19.545244    ( 0.0000,  0.0000,  0.0000)
  40 Ru     4.270626    2.573488   19.157144    ( 0.0000,  0.0000,  0.0000)
  41 Pt     7.124413    2.489477   19.208723    ( 0.0000,  0.0000,  0.0000)
  42 Ir     3.043493    4.845477   19.264778    ( 0.0000,  0.0000,  0.0000)
  43 Pt     5.726056    4.858921   19.155462    ( 0.0000,  0.0000,  0.0000)
  44 Ag     8.563408    4.905171   19.519060    ( 0.0000,  0.0000,  0.0000)
  45 H      2.875159    3.330160   20.436393    ( 0.0000,  0.0000,  0.0000)

Unit cell:
           periodic     x           y           z      points  spacing
  1. axis:    yes    8.509606    0.000000    0.000000    40     0.1842
  2. axis:    yes    4.254803    7.369535    0.000000    40     0.1842
  3. axis:    no     0.000000    0.000000   29.270571   140     0.2091

  Lengths:   8.509606   8.509606  29.270571
  Angles:   90.000000  90.000000  60.000000

Effective grid spacing dv^(1/3) = 0.2016

     iter     time        total  log10-change:
                         energy  eigst   dens
iter:   1 00:02:51  -190.230395  -4.36
iter:   2 00:03:59  -190.225560  -5.16  -3.14
iter:   3 00:05:08  -190.222874c -5.62  -3.14
iter:   4 00:06:17  -190.212179c -5.99  -2.98
iter:   5 00:07:26  -190.212829c -6.54  -3.41
iter:   6 00:08:35  -190.207238c -6.73  -3.45
iter:   7 00:09:44  -190.208185c -6.69  -3.68
iter:   8 00:10:54  -190.207121c -6.94  -3.72
iter:   9 00:12:04  -190.205159c -6.87  -3.83
iter:  10 00:13:13  -190.206179c -7.25  -3.53
iter:  11 00:14:23  -190.206305c -7.81c -4.12c

Converged after 11 iterations.

Dipole moment: (-6.029625, 7.499056, -0.248216) |e|*Ang

Energy contributions relative to reference atoms: (reference = -12371328.023897)

Kinetic:       -231.538377
Potential:     +104.035378
External:        +0.000000
XC:             -54.851992
Entropy (-ST):   -1.894682
Local:           -6.903972
--------------------------
Free energy:   -191.153646
Extrapolated:  -190.206305

Showing only first 2 kpts
 Kpt  Band  Eigenvalues  Occupancy
  0   364      0.77284    0.93612
  0   365      0.78000    0.90055
  0   366      0.82310    0.69477
  0   367      0.85351    0.56394

  1   364      0.64025    1.53631
  1   365      0.68016    1.37944
  1   366      0.69501    1.31416
  1   367      0.71252    1.23323


Fermi level: 0.76004

No gap

Forces in eV/Ang:
  0 Pd    0.70453    0.06278    0.09953
  1 Pt   -0.60458   -0.16354    0.55675
  2 Ag   -0.09575   -0.07939   -0.55858
  3 Pd   -0.04949   -0.33097    0.21515
  4 Ag   -0.00509    0.03476   -0.56973
  5 Ag    0.14389    0.16784   -0.49148
  6 Ag    0.04087   -0.00516   -0.47533
  7 Pd    0.23788    0.34985    0.07398
  8 Pd   -0.12989    0.13577    0.20116
  9 Pd    0.01202    0.07344   -0.00841
 10 Pd   -0.00427   -0.04243   -0.08688
 11 Pt   -0.04379   -0.15488    0.13008
 12 Ir    0.68504    0.16300   -0.00224
 13 Pt   -0.65637   -0.18933    0.26572
 14 Ag    0.10667   -0.00799    0.10171
 15 Pt   -0.27040    0.02058    0.18713
 16 Pd   -0.07227    0.25802    0.16967
 17 Pd    0.13338    0.00232    0.17737
 18 Ag   -0.00702   -0.00221    0.00636
 19 Ag   -0.02580   -0.00738    0.01747
 20 Pt   -0.01761   -0.01802    0.03664
 21 Ru   -0.00342   -0.00637    0.01999
 22 Pd   -0.02440    0.00439    0.04792
 23 Pt    0.00200   -0.00141    0.01983
 24 Pt   -0.01442   -0.04215    0.05610
 25 Pt   -0.02406   -0.01505    0.01737
 26 Ag    0.00675   -0.04032    0.02239
 27 Ag   -0.03033   -0.02262   -0.04049
 28 Ag   -0.02074    0.02586    0.14582
 29 Pt    0.01244   -0.05010   -0.04623
 30 Ag    0.03500   -0.05453    0.20325
 31 Pd   -0.01600   -0.00195    0.17136
 32 Ru   -0.02132    0.00337   -0.01082
 33 Pd   -0.04871    0.02757   -0.00352
 34 Pt   -0.00034   -0.02982   -0.02837
 35 Pd   -0.00291   -0.02540   -0.00921
 36 Pt    0.02313   -0.01080    0.10911
 37 Pt    0.03244    0.01768    0.05688
 38 Ag    0.02610   -0.02979    0.03474
 39 Pt   -0.18431   -0.19846   -0.14504
 40 Ru    0.13304    0.01081   -0.20569
 41 Pt    0.05986   -0.00368    0.08205
 42 Ir    0.19160    0.00044   -0.18989
 43 Pt   -0.00986   -0.03431    0.03699
 44 Ag    0.04591    0.00620    0.06367
 45 H    -0.18833    0.26255   -0.33429

System changes: positions 

Initializing position-dependent things.

Density initialized from wave functions
                                             
                                             
                                             
                                             
                                             
                                             
                H Ir    Pt     Ag            
                                             
             Pt   PRu    PPt    Pd           
              Pt     Ag                      
       Pt    Ag     Pd     Ru                
        Ag     Ag     Pt           Ag        
                     Pt     Pt               
                Ru     Pd     Pt             
                                             
           Ag    PAg    PPt    Pd            
                                             
            Ir     Pt    PAg    Pd           
       Pd    PPd    APt    Ag                
                                             
        Pd     Pt     Ag                     
                                             
                                             
                                             
                                             
                                             

Positions:
   0 Pd     0.000000    1.637674   10.000000    ( 0.0000,  0.0000,  0.0000)
   1 Pt     2.836535    1.637674   10.000000    ( 0.0000,  0.0000,  0.0000)
   2 Ag     5.673071    1.637674   10.000000    ( 0.0000,  0.0000,  0.0000)
   3 Pd     1.418268    4.094186   10.000000    ( 0.0000,  0.0000,  0.0000)
   4 Ag     4.254803    4.094186   10.000000    ( 0.0000,  0.0000,  0.0000)
   5 Ag     7.091338    4.094186   10.000000    ( 0.0000,  0.0000,  0.0000)
   6 Ag     2.836535    6.550698   10.000000    ( 0.0000,  0.0000,  0.0000)
   7 Pd     5.673071    6.550698   10.000000    ( 0.0000,  0.0000,  0.0000)
   8 Pd     8.509606    6.550698   10.000000    ( 0.0000,  0.0000,  0.0000)
   9 Pd     0.000000    0.000000   12.317643    ( 0.0000,  0.0000,  0.0000)
  10 Pd     2.836535    0.000000   12.317643    ( 0.0000,  0.0000,  0.0000)
  11 Pt     5.673071    0.000000   12.317643    ( 0.0000,  0.0000,  0.0000)
  12 Ir     1.418268    2.456512   12.317643    ( 0.0000,  0.0000,  0.0000)
  13 Pt     4.254803    2.456512   12.317643    ( 0.0000,  0.0000,  0.0000)
  14 Ag     7.091338    2.456512   12.317643    ( 0.0000,  0.0000,  0.0000)
  15 Pt     2.836535    4.913023   12.317643    ( 0.0000,  0.0000,  0.0000)
  16 Pd     5.673071    4.913023   12.317643    ( 0.0000,  0.0000,  0.0000)
  17 Pd     8.509606    4.913023   12.317643    ( 0.0000,  0.0000,  0.0000)
  18 Ag     1.383108    0.765793   14.613621    ( 0.0000,  0.0000,  0.0000)
  19 Ag     4.218951    0.785980   14.659455    ( 0.0000,  0.0000,  0.0000)
  20 Pt     7.058198    0.789545   14.660164    ( 0.0000,  0.0000,  0.0000)
  21 Ru     2.754923    3.303790   14.388910    ( 0.0000,  0.0000,  0.0000)
  22 Pd     5.600560    3.218801   14.651006    ( 0.0000,  0.0000,  0.0000)
  23 Pt     8.523404    3.251626   14.666482    ( 0.0000,  0.0000,  0.0000)
  24 Pt     4.173078    5.648760   14.629960    ( 0.0000,  0.0000,  0.0000)
  25 Pt     7.041198    5.604586   14.672623    ( 0.0000,  0.0000,  0.0000)
  26 Ag     9.877094    5.739728   14.697037    ( 0.0000,  0.0000,  0.0000)
  27 Ag     0.006794    1.607336   16.988161    ( 0.0000,  0.0000,  0.0000)
  28 Ag     2.793081    1.628361   16.915766    ( 0.0000,  0.0000,  0.0000)
  29 Pt     5.660998    1.636452   17.019278    ( 0.0000,  0.0000,  0.0000)
  30 Ag     1.350956    4.078080   17.053149    ( 0.0000,  0.0000,  0.0000)
  31 Pd     4.144151    4.033263   16.877159    ( 0.0000,  0.0000,  0.0000)
  32 Ru     6.946494    4.063344   16.863672    ( 0.0000,  0.0000,  0.0000)
  33 Pd     2.786001    6.550351   17.044470    ( 0.0000,  0.0000,  0.0000)
  34 Pt     5.655998    6.421147   16.904272    ( 0.0000,  0.0000,  0.0000)
  35 Pd     8.430988    6.496799   17.054759    ( 0.0000,  0.0000,  0.0000)
  36 Pt     0.082491   -0.040871   19.277959    ( 0.0000,  0.0000,  0.0000)
  37 Pt     2.812153    0.078828   19.257516    ( 0.0000,  0.0000,  0.0000)
  38 Ag     5.717135    0.006325   19.483008    ( 0.0000,  0.0000,  0.0000)
  39 Pt     1.525755    2.424557   19.536835    ( 0.0000,  0.0000,  0.0000)
  40 Ru     4.303247    2.572767   19.127628    ( 0.0000,  0.0000,  0.0000)
  41 Pt     7.133841    2.487991   19.223957    ( 0.0000,  0.0000,  0.0000)
  42 Ir     3.082559    4.854765   19.243661    ( 0.0000,  0.0000,  0.0000)
  43 Pt     5.716154    4.849688   19.162992    ( 0.0000,  0.0000,  0.0000)
  44 Ag     8.571067    4.906103   19.530681    ( 0.0000,  0.0000,  0.0000)
  45 H      2.848197    3.371995   20.365390    ( 0.0000,  0.0000,  0.0000)

Unit cell:
           periodic     x           y           z      points  spacing
  1. axis:    yes    8.509606    0.000000    0.000000    40     0.1842
  2. axis:    yes    4.254803    7.369535    0.000000    40     0.1842
  3. axis:    no     0.000000    0.000000   29.270571   140     0.2091

  Lengths:   8.509606   8.509606  29.270571
  Angles:   90.000000  90.000000  60.000000

Effective grid spacing dv^(1/3) = 0.2016

     iter     time        total  log10-change:
                         energy  eigst   dens
iter:   1 00:15:56  -191.094565  -3.04
iter:   2 00:17:07  -202.428114  -3.23  -2.29
iter:   3 00:18:16  -191.075349  -3.43  -1.74
iter:   4 00:19:27  -190.334257  -4.36  -2.33
iter:   5 00:20:37  -190.297978  -5.06  -2.89
iter:   6 00:21:47  -190.315094c -5.55  -2.94
iter:   7 00:22:57  -190.298395c -5.89  -2.96
iter:   8 00:24:08  -190.283647c -5.30  -3.11
iter:   9 00:25:18  -190.287672c -5.92  -3.31
iter:  10 00:26:29  -190.281091c -6.29  -3.30
iter:  11 00:27:39  -190.279846c -6.60  -3.43
iter:  12 00:28:49  -190.283226c -6.73  -3.54
iter:  13 00:29:59  -190.282222c -6.40  -3.59
iter:  14 00:31:10  -190.279711c -6.91  -3.69
iter:  15 00:32:20  -190.280775c -6.97  -3.68
iter:  16 00:33:31  -190.280576c -7.02  -3.85
iter:  17 00:34:41  -190.279611c -7.12  -3.82
iter:  18 00:35:51  -190.286990c -6.87  -3.92
iter:  19 00:37:01  -190.281037c -6.98  -3.55
iter:  20 00:38:11  -190.279971c -7.63c -4.20c

Converged after 20 iterations.

Dipole moment: (-6.773095, 7.285472, -0.237492) |e|*Ang

Energy contributions relative to reference atoms: (reference = -12371328.023897)

Kinetic:       -229.071443
Potential:     +101.803142
External:        +0.000000
XC:             -55.158271
Entropy (-ST):   -1.884910
Local:           -6.910943
--------------------------
Free energy:   -191.222426
Extrapolated:  -190.279971

Showing only first 2 kpts
 Kpt  Band  Eigenvalues  Occupancy
  0   364      0.77687    0.93011
  0   365      0.78467    0.89140
  0   366      0.82477    0.70002
  0   367      0.86287    0.53785

  1   364      0.64052    1.54533
  1   365      0.68509    1.37040
  1   366      0.69266    1.33729
  1   367      0.71637    1.22836


Fermi level: 0.76287

No gap

Forces in eV/Ang:
  0 Pd    0.71060    0.06681    0.08837
  1 Pt   -0.60968   -0.16195    0.53980
  2 Ag   -0.09818   -0.08088   -0.56382
  3 Pd   -0.05167   -0.33023    0.20188
  4 Ag   -0.00508    0.03443   -0.57455
  5 Ag    0.14410    0.16851   -0.49947
  6 Ag    0.03922   -0.00605   -0.47879
  7 Pd    0.23945    0.34781    0.06042
  8 Pd   -0.12798    0.13582    0.19034
  9 Pd    0.00588    0.06514   -0.00449
 10 Pd   -0.00773   -0.04430   -0.09307
 11 Pt   -0.04467   -0.15640    0.14017
 12 Ir    0.68782    0.16649   -0.00619
 13 Pt   -0.65230   -0.18531    0.27870
 14 Ag    0.10180   -0.01274    0.12599
 15 Pt   -0.25527    0.02181    0.19881
 16 Pd   -0.07983    0.25835    0.18345
 17 Pd    0.12821    0.00328    0.18233
 18 Ag    0.02840    0.00924    0.02412
 19 Ag   -0.06306    0.00486    0.03339
 20 Pt   -0.00483   -0.01155   -0.04450
 21 Ru   -0.01281   -0.03375    0.04857
 22 Pd   -0.08343   -0.00085    0.04303
 23 Pt    0.01785    0.02548    0.04152
 24 Pt   -0.02678   -0.06220    0.04364
 25 Pt    0.02469   -0.00951   -0.07187
 26 Ag   -0.03146   -0.05480    0.04743
 27 Ag   -0.04069   -0.05781    0.02867
 28 Ag   -0.05014   -0.07440   -0.02773
 29 Pt    0.05724   -0.02298   -0.03138
 30 Ag   -0.07195   -0.01180    0.08555
 31 Pd    0.05670    0.02285   -0.17414
 32 Ru    0.05435   -0.03126    0.05089
 33 Pd    0.00652    0.04585   -0.01103
 34 Pt   -0.03712    0.00730    0.10083
 35 Pd   -0.04021   -0.02933    0.06280
 36 Pt    0.05091    0.00135   -0.01323
 37 Pt    0.11827   -0.13992   -0.01381
 38 Ag    0.02472   -0.02381    0.01154
 39 Pt   -0.03674   -0.01997   -0.20487
 40 Ru   -0.08612   -0.11556    0.08927
 41 Pt    0.03846   -0.02674   -0.01266
 42 Ir   -0.25218   -0.04381    0.03433
 43 Pt    0.34078    0.06038    0.02203
 44 Ag    0.01229    0.01499    0.02612
 45 H    -0.15836    0.23141   -0.27995

System changes: positions 

Initializing position-dependent things.

Density initialized from wave functions
                                             
                                             
                                             
                                             
                                             
                                             
                H Ir    Pt     Ag            
                                             
             Pt   PdRu   PPt    Pd           
              Pt     Ag                      
       Pt    Ag     Pd     Ru                
        Ag     Ag     Pt           Ag        
                     Pt     Pt               
                Ru     Pd     Pt             
                                             
           Ag    PAg    PPt    Pd            
                                             
            Ir     Pt    PAg    Pd           
       Pd    PPd    APt    Ag                
                                             
        Pd     Pt     Ag                     
                                             
                                             
                                             
                                             
                                             

Positions:
   0 Pd     0.000000    1.637674   10.000000    ( 0.0000,  0.0000,  0.0000)
   1 Pt     2.836535    1.637674   10.000000    ( 0.0000,  0.0000,  0.0000)
   2 Ag     5.673071    1.637674   10.000000    ( 0.0000,  0.0000,  0.0000)
   3 Pd     1.418268    4.094186   10.000000    ( 0.0000,  0.0000,  0.0000)
   4 Ag     4.254803    4.094186   10.000000    ( 0.0000,  0.0000,  0.0000)
   5 Ag     7.091338    4.094186   10.000000    ( 0.0000,  0.0000,  0.0000)
   6 Ag     2.836535    6.550698   10.000000    ( 0.0000,  0.0000,  0.0000)
   7 Pd     5.673071    6.550698   10.000000    ( 0.0000,  0.0000,  0.0000)
   8 Pd     8.509606    6.550698   10.000000    ( 0.0000,  0.0000,  0.0000)
   9 Pd     0.000000    0.000000   12.317643    ( 0.0000,  0.0000,  0.0000)
  10 Pd     2.836535    0.000000   12.317643    ( 0.0000,  0.0000,  0.0000)
  11 Pt     5.673071    0.000000   12.317643    ( 0.0000,  0.0000,  0.0000)
  12 Ir     1.418268    2.456512   12.317643    ( 0.0000,  0.0000,  0.0000)
  13 Pt     4.254803    2.456512   12.317643    ( 0.0000,  0.0000,  0.0000)
  14 Ag     7.091338    2.456512   12.317643    ( 0.0000,  0.0000,  0.0000)
  15 Pt     2.836535    4.913023   12.317643    ( 0.0000,  0.0000,  0.0000)
  16 Pd     5.673071    4.913023   12.317643    ( 0.0000,  0.0000,  0.0000)
  17 Pd     8.509606    4.913023   12.317643    ( 0.0000,  0.0000,  0.0000)
  18 Ag     1.382817    0.766089   14.614071    ( 0.0000,  0.0000,  0.0000)
  19 Ag     4.217454    0.785638   14.660414    ( 0.0000,  0.0000,  0.0000)
  20 Pt     7.056948    0.788092   14.660422    ( 0.0000,  0.0000,  0.0000)
  21 Ru     2.754895    3.303196   14.389702    ( 0.0000,  0.0000,  0.0000)
  22 Pd     5.598656    3.218815   14.653577    ( 0.0000,  0.0000,  0.0000)
  23 Pt     8.523600    3.251406   14.667670    ( 0.0000,  0.0000,  0.0000)
  24 Pt     4.172271    5.646613   14.632642    ( 0.0000,  0.0000,  0.0000)
  25 Pt     7.040452    5.603783   14.672563    ( 0.0000,  0.0000,  0.0000)
  26 Ag     9.876902    5.737225   14.698074    ( 0.0000,  0.0000,  0.0000)
  27 Ag     0.004814    1.605527   16.986810    ( 0.0000,  0.0000,  0.0000)
  28 Ag     2.791741    1.628233   16.921225    ( 0.0000,  0.0000,  0.0000)
  29 Pt     5.661526    1.634657   17.018091    ( 0.0000,  0.0000,  0.0000)
  30 Ag     1.351493    4.075599   17.061639    ( 0.0000,  0.0000,  0.0000)
  31 Pd     4.143461    4.033133   16.883717    ( 0.0000,  0.0000,  0.0000)
  32 Ru     6.946026    4.062829   16.863599    ( 0.0000,  0.0000,  0.0000)
  33 Pd     2.784432    6.551000   17.045000    ( 0.0000,  0.0000,  0.0000)
  34 Pt     5.655277    6.420418   16.904205    ( 0.0000,  0.0000,  0.0000)
  35 Pd     8.430151    6.495538   17.054469    ( 0.0000,  0.0000,  0.0000)
  36 Pt     0.084227   -0.041267   19.281211    ( 0.0000,  0.0000,  0.0000)
  37 Pt     2.814489    0.077542   19.259610    ( 0.0000,  0.0000,  0.0000)
  38 Ag     5.718887    0.005603   19.484258    ( 0.0000,  0.0000,  0.0000)
  39 Pt     1.517022    2.415269   19.536901    ( 0.0000,  0.0000,  0.0000)
  40 Ru     4.310038    2.569703   19.125065    ( 0.0000,  0.0000,  0.0000)
  41 Pt     7.136818    2.487058   19.226554    ( 0.0000,  0.0000,  0.0000)
  42 Ir     3.086878    4.857041   19.244106    ( 0.0000,  0.0000,  0.0000)
  43 Pt     5.719420    4.848332   19.164460    ( 0.0000,  0.0000,  0.0000)
  44 Ag     8.572698    4.906808   19.533400    ( 0.0000,  0.0000,  0.0000)
  45 H      2.838693    3.384682   20.335006    ( 0.0000,  0.0000,  0.0000)

Unit cell:
           periodic     x           y           z      points  spacing
  1. axis:    yes    8.509606    0.000000    0.000000    40     0.1842
  2. axis:    yes    4.254803    7.369535    0.000000    40     0.1842
  3. axis:    no     0.000000    0.000000   29.270571   140     0.2091

  Lengths:   8.509606   8.509606  29.270571
  Angles:   90.000000  90.000000  60.000000

Effective grid spacing dv^(1/3) = 0.2016

     iter     time        total  log10-change:
                         energy  eigst   dens
iter:   1 00:39:43  -192.471235  -4.04
iter:   2 00:40:54  -228.977870  -2.77  -2.07
iter:   3 00:42:04  -191.723791  -3.02  -1.50
iter:   4 00:43:14  -190.455459  -4.23  -2.21
iter:   5 00:44:24  -190.330014  -4.90  -2.68
iter:   6 00:45:34  -190.304914c -5.50  -3.01
iter:   7 00:46:44  -190.298902c -5.78  -3.36
iter:   8 00:47:55  -190.294856c -6.10  -3.55
iter:   9 00:49:05  -190.294703c -6.41  -3.30
iter:  10 00:50:15  -190.294738c -6.45  -3.69
iter:  11 00:51:25  -190.293496c -6.87  -3.89
iter:  12 00:52:35  -190.294045c -7.10  -3.95
iter:  13 00:53:45  -190.293624c -7.28  -4.07c
iter:  14 00:54:55  -190.294043c -7.13  -4.16c
iter:  15 00:56:05  -190.292700c -7.67c -4.31c

Converged after 15 iterations.

Dipole moment: (-6.798752, 7.332619, -0.235315) |e|*Ang

Energy contributions relative to reference atoms: (reference = -12371328.023897)

Kinetic:       -228.413163
Potential:     +101.211905
External:        +0.000000
XC:             -55.245040
Entropy (-ST):   -1.883838
Local:           -6.904482
--------------------------
Free energy:   -191.234619
Extrapolated:  -190.292700

Showing only first 2 kpts
 Kpt  Band  Eigenvalues  Occupancy
  0   364      0.77769    0.93349
  0   365      0.78662    0.88918
  0   366      0.82602    0.70112
  0   367      0.86485    0.53600

  1   364      0.64207    1.54518
  1   365      0.68676    1.36967
  1   366      0.69320    1.34154
  1   367      0.71820    1.22682


Fermi level: 0.76437

No gap

Forces in eV/Ang:
  0 Pd    0.70274    0.06786    0.09699
  1 Pt   -0.60175   -0.15452    0.54597
  2 Ag   -0.09763   -0.07957   -0.55738
  3 Pd   -0.04802   -0.33025    0.20708
  4 Ag   -0.00646    0.03234   -0.57018
  5 Ag    0.14213    0.16517   -0.49178
  6 Ag    0.03986   -0.00550   -0.47350
  7 Pd    0.23557    0.34303    0.06706
  8 Pd   -0.12649    0.13646    0.19496
  9 Pd    0.00619    0.06526    0.00416
 10 Pd   -0.01025   -0.04298   -0.08583
 11 Pt   -0.04479   -0.15689    0.15061
 12 Ir    0.68265    0.16693    0.00573
 13 Pt   -0.65015   -0.18412    0.28828
 14 Ag    0.10283   -0.01333    0.13489
 15 Pt   -0.25232    0.02110    0.21323
 16 Pd   -0.08369    0.25733    0.19032
 17 Pd    0.12919    0.00007    0.18890
 18 Ag    0.02717    0.00012    0.01621
 19 Ag   -0.05748   -0.00412    0.02660
 20 Pt   -0.00048   -0.00500   -0.05786
 21 Ru   -0.02017   -0.03686    0.03165
 22 Pd   -0.06592   -0.00743    0.01436
 23 Pt    0.01290    0.02714    0.03405
 24 Pt   -0.02052   -0.04079    0.01377
 25 Pt    0.02863   -0.00211   -0.07223
 26 Ag   -0.03950   -0.03990    0.04265
 27 Ag   -0.02895   -0.04434    0.03357
 28 Ag   -0.04591   -0.07886   -0.06418
 29 Pt    0.05132   -0.01342   -0.03562
 30 Ag   -0.09050    0.00395    0.04212
 31 Pd    0.06480    0.01676   -0.24589
 32 Ru    0.07058   -0.02162    0.04461
 33 Pd    0.00309    0.03101   -0.02010
 34 Pt   -0.02113    0.00233    0.09210
 35 Pd   -0.03737   -0.03394    0.05671
 36 Pt    0.05215   -0.00833   -0.02163
 37 Pt    0.12076   -0.13171   -0.00645
 38 Ag    0.02112   -0.03043    0.00974
 39 Pt    0.00063    0.01416   -0.23025
 40 Ru   -0.11933   -0.08696    0.11166
 41 Pt    0.02133   -0.01828   -0.03090
 42 Ir   -0.23225   -0.01763   -0.00409
 43 Pt    0.32175    0.05382    0.02730
 44 Ag    0.01306    0.00849    0.02686
 45 H    -0.14576    0.21283   -0.20428

System changes: positions 

Initializing position-dependent things.

Density initialized from wave functions
                                             
                                             
                                             
                                             
                                             
                                             
                H Ir     Pt     Ag           
                                             
             Pt   PdRu   PPt    Pd           
       Pt     Pt     Ag                      
             Ag     Pd     Ru                
        Ag     Ag     Pt           Ag        
                     Pt     Pt               
                Ru     Pd     Pt             
                                             
           Ag    PAg    PPt    Pd            
                                             
            Ir     Pt    PAg    Pd           
       Pd    PPd    APt    Ag                
                                             
        Pd     Pt     Ag                     
                                             
                                             
                                             
                                             
                                             

Positions:
   0 Pd     0.000000    1.637674   10.000000    ( 0.0000,  0.0000,  0.0000)
   1 Pt     2.836535    1.637674   10.000000    ( 0.0000,  0.0000,  0.0000)
   2 Ag     5.673071    1.637674   10.000000    ( 0.0000,  0.0000,  0.0000)
   3 Pd     1.418268    4.094186   10.000000    ( 0.0000,  0.0000,  0.0000)
   4 Ag     4.254803    4.094186   10.000000    ( 0.0000,  0.0000,  0.0000)
   5 Ag     7.091338    4.094186   10.000000    ( 0.0000,  0.0000,  0.0000)
   6 Ag     2.836535    6.550698   10.000000    ( 0.0000,  0.0000,  0.0000)
   7 Pd     5.673071    6.550698   10.000000    ( 0.0000,  0.0000,  0.0000)
[...]
  14 Ag     7.091338    2.456512   12.317643    ( 0.0000,  0.0000,  0.0000)
  15 Pt     2.836535    4.913023   12.317643    ( 0.0000,  0.0000,  0.0000)
  16 Pd     5.673071    4.913023   12.317643    ( 0.0000,  0.0000,  0.0000)
  17 Pd     8.509606    4.913023   12.317643    ( 0.0000,  0.0000,  0.0000)
  18 Ag     1.373318    0.731563   14.606215    ( 0.0000,  0.0000,  0.0000)
  19 Ag     4.193884    0.758733   14.666103    ( 0.0000,  0.0000,  0.0000)
  20 Pt     7.037959    0.766022   14.642544    ( 0.0000,  0.0000,  0.0000)
  21 Ru     2.742200    3.278043   14.387748    ( 0.0000,  0.0000,  0.0000)
  22 Pd     5.587428    3.190327   14.644360    ( 0.0000,  0.0000,  0.0000)
  23 Pt     8.513580    3.233691   14.661001    ( 0.0000,  0.0000,  0.0000)
  24 Pt     4.156765    5.627323   14.624667    ( 0.0000,  0.0000,  0.0000)
  25 Pt     7.032049    5.576149   14.679194    ( 0.0000,  0.0000,  0.0000)
  26 Ag     9.849208    5.712863   14.699369    ( 0.0000,  0.0000,  0.0000)
  27 Ag    -0.009525    1.556810   16.949182    ( 0.0000,  0.0000,  0.0000)
  28 Ag     2.762748    1.549809   16.891698    ( 0.0000,  0.0000,  0.0000)
  29 Pt     5.647454    1.599502   17.013414    ( 0.0000,  0.0000,  0.0000)
  30 Ag     1.333434    4.040050   17.056010    ( 0.0000,  0.0000,  0.0000)
  31 Pd     4.122729    3.982276   16.816903    ( 0.0000,  0.0000,  0.0000)
  32 Ru     6.941441    4.006392   16.865933    ( 0.0000,  0.0000,  0.0000)
  33 Pd     2.772651    6.540432   17.008162    ( 0.0000,  0.0000,  0.0000)
  34 Pt     5.639152    6.357645   16.923846    ( 0.0000,  0.0000,  0.0000)
  35 Pd     8.417010    6.440527   17.090504    ( 0.0000,  0.0000,  0.0000)
  36 Pt     0.152330   -0.082549   19.259546    ( 0.0000,  0.0000,  0.0000)
  37 Pt     2.903246    0.070074   19.292818    ( 0.0000,  0.0000,  0.0000)
  38 Ag     5.787769   -0.019713   19.503514    ( 0.0000,  0.0000,  0.0000)
  39 Pt     1.528357    2.366062   19.425719    ( 0.0000,  0.0000,  0.0000)
  40 Ru     4.279666    2.539459   19.090194    ( 0.0000,  0.0000,  0.0000)
  41 Pt     7.194241    2.446125   19.208375    ( 0.0000,  0.0000,  0.0000)
  42 Ir     3.130657    4.837866   19.188525    ( 0.0000,  0.0000,  0.0000)
  43 Pt     5.785872    4.783546   19.174633    ( 0.0000,  0.0000,  0.0000)
  44 Ag     8.618910    4.889300   19.572012    ( 0.0000,  0.0000,  0.0000)
  45 H      2.430761    3.719013   20.298732    ( 0.0000,  0.0000,  0.0000)

Unit cell:
           periodic     x           y           z      points  spacing
  1. axis:    yes    8.509606    0.000000    0.000000    40     0.1842
  2. axis:    yes    4.254803    7.369535    0.000000    40     0.1842
  3. axis:    no     0.000000    0.000000   29.270571   140     0.2091

  Lengths:   8.509606   8.509606  29.270571
  Angles:   90.000000  90.000000  60.000000

Effective grid spacing dv^(1/3) = 0.2016

     iter     time        total  log10-change:
                         energy  eigst   dens
iter:   1 05:27:46  -190.686696  -4.21
iter:   2 05:28:54  -196.595069  -3.68  -2.54
iter:   3 05:30:03  -190.445866  -3.86  -1.84
iter:   4 05:31:12  -190.411828  -5.44  -3.10
iter:   5 05:32:21  -190.408454c -6.16  -3.47
iter:   6 05:33:30  -190.405195c -6.43  -3.57
iter:   7 05:34:39  -190.404292c -6.84  -3.75
iter:   8 05:35:48  -190.403615c -6.63  -3.83
iter:   9 05:36:58  -190.403691c -7.16  -4.03c
iter:  10 05:38:07  -190.402576c -7.42c -4.12c

Converged after 10 iterations.

Dipole moment: (-14.333590, 7.345695, -0.208387) |e|*Ang

Energy contributions relative to reference atoms: (reference = -12371328.023897)

Kinetic:       -223.162663
Potential:      +96.820445
External:        +0.000000
XC:             -56.199869
Entropy (-ST):   -1.858072
Local:           -6.931452
--------------------------
Free energy:   -191.331612
Extrapolated:  -190.402576

Showing only first 2 kpts
 Kpt  Band  Eigenvalues  Occupancy
  0   364      0.79241    0.92137
  0   365      0.80166    0.87564
  0   366      0.83594    0.71195
  0   367      0.86532    0.58358

  1   364      0.65843    1.53071
  1   365      0.68997    1.40819
  1   366      0.70603    1.33915
  1   367      0.71973    1.27719


Fermi level: 0.77665

No gap

Forces in eV/Ang:
  0 Pd    0.70677    0.06540    0.09075
  1 Pt   -0.61048   -0.16149    0.53739
  2 Ag   -0.09817   -0.07869   -0.55775
  3 Pd   -0.04598   -0.32910    0.20550
  4 Ag   -0.00500    0.03541   -0.56901
  5 Ag    0.14255    0.16681   -0.49383
  6 Ag    0.04097   -0.00824   -0.47297
  7 Pd    0.24219    0.34756    0.06594
  8 Pd   -0.12907    0.13545    0.18928
  9 Pd   -0.01667    0.04130   -0.06938
 10 Pd   -0.00840   -0.06579   -0.13131
 11 Pt   -0.08514   -0.18037    0.14232
 12 Ir    0.65333    0.11518   -0.03906
 13 Pt   -0.66487   -0.22299    0.25848
 14 Ag    0.09545   -0.01759    0.08279
 15 Pt   -0.28980   -0.01716    0.20320
 16 Pd   -0.08617    0.24944    0.18271
 17 Pd    0.11243   -0.00987    0.15659
 18 Ag   -0.03282   -0.00160    0.00054
 19 Ag    0.05635   -0.02391   -0.03950
 20 Pt   -0.01243    0.01478   -0.01396
 21 Ru    0.00493    0.03100   -0.01921
 22 Pd    0.02169   -0.00938   -0.03878
 23 Pt    0.01297   -0.03277    0.02761
 24 Pt    0.00272   -0.01354   -0.00576
 25 Pt   -0.04516   -0.00739   -0.01498
 26 Ag    0.04710   -0.00708    0.03374
 27 Ag   -0.01521   -0.03340    0.02456
 28 Ag    0.07484    0.06813    0.05098
 29 Pt   -0.02275    0.02487    0.06006
 30 Ag    0.00974   -0.00001   -0.00608
 31 Pd    0.01217   -0.05474   -0.02646
 32 Ru   -0.01208    0.02666   -0.02042
 33 Pd    0.00439   -0.06720    0.03014
 34 Pt    0.01917   -0.02546   -0.02021
 35 Pd   -0.00018    0.04940   -0.02895
 36 Pt   -0.01153   -0.02339   -0.03125
 37 Pt   -0.00488   -0.03533   -0.03580
 38 Ag   -0.00402   -0.00099   -0.04775
 39 Pt    0.00227    0.04129    0.01829
 40 Ru    0.08688   -0.13571   -0.03589
 41 Pt   -0.05274    0.02844   -0.05090
 42 Ir   -0.06359    0.12985   -0.01735
 43 Pt   -0.00663   -0.01583   -0.02034
 44 Ag   -0.03384   -0.02290   -0.01849
 45 H    -0.03588   -0.00543    0.03670

System changes: positions 

Initializing position-dependent things.

Density initialized from wave functions
                                             
                                             
                                             
                                             
                                             
                                             
                H Ir     Pt     Ag           
                                             
             Pt   PRu    PtPt   Pd           
              Pt     Ag                      
        Pt   Ag     Pd     Ru                
        Ag     Ag     Pt           Ag        
                     Pt     Pt               
                Ru     Pd     Pt             
                                             
           Ag    PAg    PPt    Pd            
                                             
            Ir     Pt     Ag    Pd           
       Pd    PPd    APt    Ag                
                                             
        Pd     Pt     Ag                     
                                             
                                             
                                             
                                             
                                             

Positions:
   0 Pd     0.000000    1.637674   10.000000    ( 0.0000,  0.0000,  0.0000)
   1 Pt     2.836535    1.637674   10.000000    ( 0.0000,  0.0000,  0.0000)
   2 Ag     5.673071    1.637674   10.000000    ( 0.0000,  0.0000,  0.0000)
   3 Pd     1.418268    4.094186   10.000000    ( 0.0000,  0.0000,  0.0000)
   4 Ag     4.254803    4.094186   10.000000    ( 0.0000,  0.0000,  0.0000)
   5 Ag     7.091338    4.094186   10.000000    ( 0.0000,  0.0000,  0.0000)
   6 Ag     2.836535    6.550698   10.000000    ( 0.0000,  0.0000,  0.0000)
   7 Pd     5.673071    6.550698   10.000000    ( 0.0000,  0.0000,  0.0000)
   8 Pd     8.509606    6.550698   10.000000    ( 0.0000,  0.0000,  0.0000)
   9 Pd     0.000000    0.000000   12.317643    ( 0.0000,  0.0000,  0.0000)
  10 Pd     2.836535    0.000000   12.317643    ( 0.0000,  0.0000,  0.0000)
  11 Pt     5.673071    0.000000   12.317643    ( 0.0000,  0.0000,  0.0000)
  12 Ir     1.418268    2.456512   12.317643    ( 0.0000,  0.0000,  0.0000)
  13 Pt     4.254803    2.456512   12.317643    ( 0.0000,  0.0000,  0.0000)
  14 Ag     7.091338    2.456512   12.317643    ( 0.0000,  0.0000,  0.0000)
  15 Pt     2.836535    4.913023   12.317643    ( 0.0000,  0.0000,  0.0000)
  16 Pd     5.673071    4.913023   12.317643    ( 0.0000,  0.0000,  0.0000)
  17 Pd     8.509606    4.913023   12.317643    ( 0.0000,  0.0000,  0.0000)
  18 Ag     1.373280    0.733192   14.606387    ( 0.0000,  0.0000,  0.0000)
  19 Ag     4.196174    0.759751   14.664448    ( 0.0000,  0.0000,  0.0000)
  20 Pt     7.038566    0.767417   14.643862    ( 0.0000,  0.0000,  0.0000)
  21 Ru     2.742932    3.279820   14.387457    ( 0.0000,  0.0000,  0.0000)
  22 Pd     5.588093    3.191634   14.644278    ( 0.0000,  0.0000,  0.0000)
  23 Pt     8.514251    3.233793   14.661352    ( 0.0000,  0.0000,  0.0000)
  24 Pt     4.157512    5.627419   14.625048    ( 0.0000,  0.0000,  0.0000)
  25 Pt     7.031943    5.577314   14.678692    ( 0.0000,  0.0000,  0.0000)
  26 Ag     9.851300    5.713584   14.698859    ( 0.0000,  0.0000,  0.0000)
  27 Ag    -0.008949    1.558814   16.951443    ( 0.0000,  0.0000,  0.0000)
  28 Ag     2.764936    1.554003   16.893462    ( 0.0000,  0.0000,  0.0000)
  29 Pt     5.647779    1.600884   17.015047    ( 0.0000,  0.0000,  0.0000)
  30 Ag     1.335013    4.041761   17.054753    ( 0.0000,  0.0000,  0.0000)
  31 Pd     4.123097    3.984050   16.817947    ( 0.0000,  0.0000,  0.0000)
  32 Ru     6.941430    4.008916   16.865925    ( 0.0000,  0.0000,  0.0000)
  33 Pd     2.773121    6.539050   17.011092    ( 0.0000,  0.0000,  0.0000)
  34 Pt     5.640507    6.360133   16.922848    ( 0.0000,  0.0000,  0.0000)
  35 Pd     8.417590    6.443422   17.089446    ( 0.0000,  0.0000,  0.0000)
  36 Pt     0.149156   -0.080121   19.258340    ( 0.0000,  0.0000,  0.0000)
  37 Pt     2.898870    0.069614   19.289716    ( 0.0000,  0.0000,  0.0000)
  38 Ag     5.784795   -0.018940   19.501129    ( 0.0000,  0.0000,  0.0000)
  39 Pt     1.529453    2.369736   19.432788    ( 0.0000,  0.0000,  0.0000)
  40 Ru     4.282333    2.537141   19.091370    ( 0.0000,  0.0000,  0.0000)
  41 Pt     7.191972    2.448812   19.207193    ( 0.0000,  0.0000,  0.0000)
  42 Ir     3.126129    4.842040   19.192416    ( 0.0000,  0.0000,  0.0000)
  43 Pt     5.784738    4.786382   19.173133    ( 0.0000,  0.0000,  0.0000)
  44 Ag     8.615563    4.889484   19.568763    ( 0.0000,  0.0000,  0.0000)
  45 H      2.444962    3.704218   20.301156    ( 0.0000,  0.0000,  0.0000)

Unit cell:
           periodic     x           y           z      points  spacing
  1. axis:    yes    8.509606    0.000000    0.000000    40     0.1842
  2. axis:    yes    4.254803    7.369535    0.000000    40     0.1842
  3. axis:    no     0.000000    0.000000   29.270571   140     0.2091

  Lengths:   8.509606   8.509606  29.270571
  Angles:   90.000000  90.000000  60.000000

Effective grid spacing dv^(1/3) = 0.2016

     iter     time        total  log10-change:
                         energy  eigst   dens
iter:   1 05:39:40  -195.362790  -3.79
iter:   2 05:40:48  -258.261173  -2.43  -1.90
iter:   3 05:41:58  -193.875825  -2.71  -1.38
iter:   4 05:43:08  -190.794429  -3.83  -2.04
iter:   5 05:44:17  -190.464971  -4.51  -2.49
iter:   6 05:45:27  -190.427962  -5.21  -2.91
iter:   7 05:46:37  -190.414529c -5.45  -3.19
iter:   8 05:47:48  -190.417519c -5.65  -3.42
iter:   9 05:48:57  -190.407427c -6.09  -3.05
iter:  10 05:50:07  -190.406610c -6.25  -3.50
iter:  11 05:51:17  -190.405598c -6.63  -3.81
iter:  12 05:52:28  -190.405397c -6.87  -3.83
iter:  13 05:53:39  -190.405138c -7.18  -3.94
iter:  14 05:54:50  -190.406286c -6.95  -4.05c
iter:  15 05:56:00  -190.404663c -7.48c -4.23c

Converged after 15 iterations.

Dipole moment: (-13.929543, 7.348230, -0.211923) |e|*Ang

Energy contributions relative to reference atoms: (reference = -12371328.023897)

Kinetic:       -221.691173
Potential:      +95.364228
External:        +0.000000
XC:             -56.225428
Entropy (-ST):   -1.858959
Local:           -6.922810
--------------------------
Free energy:   -191.334143
Extrapolated:  -190.404663

Showing only first 2 kpts
 Kpt  Band  Eigenvalues  Occupancy
  0   364      0.79137    0.92179
  0   365      0.80108    0.87378
  0   366      0.83464    0.71351
  0   367      0.86485    0.58160

  1   364      0.65726    1.53148
  1   365      0.68937    1.40667
  1   366      0.70553    1.33710
  1   367      0.71877    1.27719


Fermi level: 0.77570

No gap

Forces in eV/Ang:
  0 Pd    0.70095    0.06539    0.09419
  1 Pt   -0.60252   -0.15400    0.54163
  2 Ag   -0.09824   -0.07878   -0.55567
  3 Pd   -0.04247   -0.32949    0.21092
  4 Ag   -0.00735    0.03284   -0.56807
  5 Ag    0.14132    0.16555   -0.48994
  6 Ag    0.04158   -0.00656   -0.47134
  7 Pd    0.23862    0.34346    0.07009
  8 Pd   -0.12800    0.13580    0.19572
  9 Pd   -0.01456    0.04516   -0.06668
 10 Pd   -0.01085   -0.06308   -0.12960
 11 Pt   -0.07993   -0.18141    0.13915
 12 Ir    0.65473    0.11546   -0.03636
 13 Pt   -0.67037   -0.22016    0.25339
 14 Ag    0.09918   -0.01789    0.08246
 15 Pt   -0.28856   -0.01732    0.19912
 16 Pd   -0.08599    0.25064    0.18266
 17 Pd    0.11492   -0.01103    0.15959
 18 Ag   -0.02108   -0.00466   -0.00329
 19 Ag    0.03640   -0.02233   -0.02319
 20 Pt   -0.00224   -0.00124   -0.03096
 21 Ru    0.00649    0.01406   -0.02233
 22 Pd    0.01100   -0.00828   -0.01778
 23 Pt    0.01166   -0.01947    0.02312
 24 Pt    0.00886   -0.00051   -0.00300
 25 Pt   -0.02554   -0.00974   -0.02290
 26 Ag    0.03537   -0.00593    0.03607
 27 Ag   -0.01407   -0.03109    0.01322
 28 Ag    0.06027    0.05575    0.04091
 29 Pt   -0.00085    0.01489    0.00854
 30 Ag   -0.00732   -0.00559    0.01747
 31 Pd    0.03880   -0.04080    0.04207
 32 Ru   -0.00022    0.02587   -0.03240
 33 Pd    0.01408   -0.05485    0.02322
 34 Pt    0.01009   -0.01770   -0.02990
 35 Pd   -0.00448    0.02159   -0.07260
 36 Pt   -0.00704   -0.02156    0.00322
 37 Pt   -0.00945   -0.02863   -0.01186
 38 Ag   -0.00831   -0.00116   -0.03338
 39 Pt   -0.01708    0.02920    0.01074
 40 Ru    0.05950   -0.06969    0.00219
 41 Pt   -0.04723    0.01195   -0.01958
 42 Ir   -0.02582    0.05200   -0.01187
 43 Pt   -0.04488   -0.01835   -0.00875
 44 Ag   -0.02295   -0.01353   -0.01462
 45 H    -0.02803    0.01622    0.02945

Timing:                                      incl.     excl.
-------------------------------------------------------------------
Density initialized from wave functions:    97.647    97.645   0.3% |
 Symmetrize density:                         0.002     0.002   0.0% |
Forces:                                    438.659   438.659   1.5% ||
Hamiltonian:                                47.338     0.287   0.0% |
 Atomic:                                     2.997     0.821   0.0% |
  XC Correction:                             2.176     2.176   0.0% |
 Calculate atomic Hamiltonians:             33.754    33.754   0.1% |
 Communicate:                                3.536     3.536   0.0% |
 Initialize Hamiltonian:                     0.000     0.000   0.0% |
 Poisson:                                    0.138     0.138   0.0% |
 XC 3D grid:                                 6.626     6.626   0.0% |
LCAO initialization:                       139.107     2.426   0.0% |
 LCAO eigensolver:                          14.819     0.001   0.0% |
  Blacs Orbital Layouts:                     0.316     0.000   0.0% |
   General diagonalize:                      0.310     0.310   0.0% |
   Redistribute coefs:                       0.003     0.003   0.0% |
   Send coefs to domains:                    0.003     0.003   0.0% |
  Calculate projections:                     0.003     0.003   0.0% |
  Distribute overlap matrix:                13.708     0.000   0.0% |
   Scalapack redistribute:                   0.008     0.008   0.0% |
   blocked summation:                       13.700    13.700   0.0% |
  Potential matrix:                          0.751     0.751   0.0% |
  SparseAtomicCorrection:                    0.004     0.004   0.0% |
  Sum over cells:                            0.037     0.037   0.0% |
 LCAO to grid:                             118.684   118.684   0.4% |
 Set positions (LCAO WFS):                   3.178     0.007   0.0% |
  Basic WFS set positions:                   0.003     0.003   0.0% |
  Basis functions set positions:             0.000     0.000   0.0% |
  P tci:                                     0.000     0.000   0.0% |
  ST tci:                                    0.285     0.285   0.0% |
  Scalapack redistribute:                    0.008     0.008   0.0% |
  blocked summation:                         2.762     2.762   0.0% |
  mktci:                                     0.113     0.113   0.0% |
PWDescriptor:                                0.659     0.659   0.0% |
Redistribute:                                0.038     0.038   0.0% |
SCF-cycle:                               28031.314   497.221   1.7% ||
 Davidson:                               25440.132  5576.502  19.3% |-------|
  Apply H:                                3010.244  2952.189  10.2% |---|
   HMM T:                                   58.055    58.055   0.2% |
  Subspace diag:                          3023.267     0.102   0.0% |
   calc_h_matrix:                         2065.347   533.200   1.8% ||
    Apply H:                              1532.147  1500.377   5.2% |-|
     HMM T:                                 31.770    31.770   0.1% |
   diagonalize:                             99.905    99.905   0.3% |
   rotate_psi:                             857.913   857.913   3.0% ||
  calc. matrices:                         9706.162  5408.197  18.7% |------|
   Apply H:                               4297.965  4214.137  14.6% |-----|
    HMM T:                                  83.828    83.828   0.3% |
  diagonalize:                            1466.086  1466.086   5.1% |-|
  rotate_psi:                             2657.870  2657.870   9.2% |---|
 Density:                                 1346.061     0.024   0.0% |
  Atomic density matrices:                   7.735     7.735   0.0% |
  Mix:                                     493.292   493.292   1.7% ||
  Multipole moments:                         0.772     0.772   0.0% |
  Pseudo density:                          844.238   844.217   2.9% ||
   Symmetrize density:                       0.021     0.021   0.0% |
 Hamiltonian:                              632.954     3.880   0.0% |
  Atomic:                                   40.255    11.479   0.0% |
   XC Correction:                           28.776    28.776   0.1% |
  Calculate atomic Hamiltonians:           441.346   441.346   1.5% ||
  Communicate:                              49.475    49.475   0.2% |
  Poisson:                                   1.815     1.815   0.0% |
  XC 3D grid:                               96.183    96.183   0.3% |
 Orthonormalize:                           114.946     0.013   0.0% |
  calc_s_matrix:                            18.546    18.546   0.1% |
  inverse-cholesky:                          6.227     6.227   0.0% |
  projections:                              59.421    59.421   0.2% |
  rotate_psi_s:                             30.740    30.740   0.1% |
Set symmetry:                                0.002     0.002   0.0% |
Other:                                     130.695   130.695   0.5% |
-------------------------------------------------------------------
Total:                                             28885.457 100.0%

Memory usage: 859.47 MiB
Date: Fri Jun 14 05:56:15 2024
