
  ___ ___ ___ _ _ _  
 |   |   |_  | | | | 
 | | | | | . | | | | 
 |__ |  _|___|_____|  22.1.0
 |___|_|             

User:   clausen@node428.cluster
Date:   Fri Jun 14 12:15:30 2024
Arch:   x86_64
Pid:    4633
Python: 3.10.4
gpaw:   /groups/kemi/clausen/miniconda3/envs/gpaw22/lib/python3.10/site-packages/gpaw
_gpaw:  /groups/kemi/clausen/miniconda3/envs/gpaw22/lib/python3.10/site-packages/
        _gpaw.cpython-310-x86_64-linux-gnu.so
ase:    /groups/kemi/clausen/miniconda3/envs/gpaw22/lib/python3.10/site-packages/ase (version 3.22.1)
numpy:  /groups/kemi/clausen/miniconda3/envs/gpaw22/lib/python3.10/site-packages/numpy (version 1.23.1)
scipy:  /groups/kemi/clausen/miniconda3/envs/gpaw22/lib/python3.10/site-packages/scipy (version 1.8.1)
libxc:  5.2.3
units:  Angstrom and eV
cores: 24
OpenMP: True
OMP_NUM_THREADS: 1

Input parameters:
  eigensolver: {name: dav,
                niter: 3}
  kpts: [4 4 1]
  mode: {ecut: 400.0,
         name: pw}
  xc: RPBE

System changes: positions, numbers, cell, pbc, initial_charges, initial_magmoms 

Initialize ...

Pd-setup:
  name: Palladium
  id: 6da19bfba079f22767af9506641940b9
  Z: 46.0
  valence: 16
  core: 30
  charge: 0.0
  file: /groups/kemi/clausen/miniconda3/envs/gpaw22/share/gpaw/Pd.RPBE.gz
  compensation charges: gauss, rc=0.38, lmax=2
  cutoffs: 2.38(filt), 2.28(core),
  valence states:
                energy  radius
    5s(0.00)    -3.225   1.228
    4p(6.00)   -51.131   1.360
    5p(0.00)    -0.373   1.360
    4d(10.00)    -3.964   1.228
    *s          23.987   1.228
    *d          23.247   1.228

  Using partial waves for Pd as LCAO basis

Pt-setup:
  name: Platinum
  id: f04f522592575c47ad794f6b4a415b4b
  Z: 78.0
  valence: 16
  core: 62
  charge: 0.0
  file: /groups/kemi/clausen/miniconda3/envs/gpaw22/share/gpaw/Pt.RPBE.gz
  compensation charges: gauss, rc=0.41, lmax=2
  cutoffs: 2.26(filt), 2.26(core),
  valence states:
                energy  radius
    6s(1.00)    -5.516   1.307
    5p(6.00)   -55.971   1.371
    6p(0.00)    -0.856   1.371
    5d(9.00)    -6.087   1.307
    *s          21.695   1.307
    *d          21.125   1.307

  Using partial waves for Pt as LCAO basis

Ru-setup:
  name: Ruthenium
  id: 76477906e28f51dc1b29884d53556fe9
  Z: 44.0
  valence: 16
  core: 28
  charge: 0.0
  file: /groups/kemi/clausen/miniconda3/envs/gpaw22/share/gpaw/Ru.RPBE.gz
  compensation charges: gauss, rc=0.39, lmax=2
  cutoffs: 2.16(filt), 1.30(core),
  valence states:
                energy  radius
    4s(2.00)   -76.255   1.281
    5s(1.00)    -4.126   1.281
    4p(6.00)   -46.371   1.286
    5p(0.00)    -0.913   1.286
    4d(7.00)    -5.146   1.254
    *d          22.066   1.254

  Using partial waves for Ru as LCAO basis

Ag-setup:
  name: Silver
  id: c05e55bab2c3858b3f9398f6d75cb77c
  Z: 47.0
  valence: 17
  core: 30
  charge: 0.0
  file: /groups/kemi/clausen/miniconda3/envs/gpaw22/share/gpaw/Ag.RPBE.gz
  compensation charges: gauss, rc=0.40, lmax=2
  cutoffs: 2.35(filt), 2.19(core),
  valence states:
                energy  radius
    5s(1.00)    -4.277   1.286
    4p(6.00)   -58.523   1.328
    5p(0.00)    -0.755   1.328
    4d(10.00)    -7.386   1.180
    *s          22.934   1.286
    *d          19.826   1.180

  Using partial waves for Ag as LCAO basis

Ir-setup:
  name: Iridium
  id: 73b603359d1d5397a85ae3c2440f9033
  Z: 77.0
  valence: 15
  core: 62
  charge: 0.0
  file: /groups/kemi/clausen/miniconda3/envs/gpaw22/share/gpaw/Ir.RPBE.gz
  compensation charges: gauss, rc=0.40, lmax=2
  cutoffs: 2.40(filt), 2.36(core),
  valence states:
                energy  radius
    6s(2.00)    -6.219   1.296
    5p(6.00)   -54.684   1.328
    6p(0.00)    -1.215   1.328
    5d(7.00)    -7.118   1.286
    *s          20.992   1.296
    *d          20.093   1.286

  Using partial waves for Ir as LCAO basis

O-setup:
  name: Oxygen
  id: 08071ca1eed670e7821b24b7eb4d558c
  Z: 8.0
  valence: 6
  core: 2
  charge: 0.0
  file: /groups/kemi/clausen/miniconda3/envs/gpaw22/share/gpaw/O.RPBE.gz
  compensation charges: gauss, rc=0.21, lmax=2
  cutoffs: 1.17(filt), 0.83(core),
  valence states:
                energy  radius
    2s(2.00)   -24.041   0.688
    2p(4.00)    -8.984   0.598
    *s           3.170   0.688
    *p          18.228   0.598
    *d           0.000   0.619

  Using partial waves for O as LCAO basis

H-setup:
  name: Hydrogen
  id: ea3f9156a1dc40d47a60fdce8f8bd75d
  Z: 1.0
  valence: 1
  core: 0
  charge: 0.0
  file: /groups/kemi/clausen/miniconda3/envs/gpaw22/share/gpaw/H.RPBE.gz
  compensation charges: gauss, rc=0.15, lmax=2
  cutoffs: 0.85(filt), 0.53(core),
  valence states:
                energy  radius
    1s(1.00)    -6.572   0.476
    *s          20.639   0.476
    *p           0.000   0.476

  Using partial waves for H as LCAO basis

Reference energy: -14174791.127075

Spin-paired calculation

Convergence criteria:
 Maximum [total energy] change in last 3 cyles: 0.0005 eV / electron
 Maximum integral of absolute [dens]ity change: 0.0001 electrons / valence electron
 Maximum integral of absolute [eigenst]ate change: 4e-08 eV^2 / valence electron
 Maximum number of scf [iter]ations: 333
 (Square brackets indicate name in SCF output, whereas a 'c' in
 the SCF output indicates the quantity has converged.)

Symmetries present (total): 1

  ( 1  0  0)
  ( 0  1  0)
  ( 0  0  1)

16 k-points: 4 x 4 x 1 Monkhorst-Pack grid
8 k-points in the irreducible part of the Brillouin zone
       k-points in crystal coordinates                weights
   0:     0.12500000   -0.37500000    0.00000000          2/16
   1:     0.12500000   -0.12500000    0.00000000          2/16
   2:     0.12500000    0.12500000    0.00000000          2/16
   3:     0.12500000    0.37500000    0.00000000          2/16
   4:     0.37500000   -0.37500000    0.00000000          2/16
   5:     0.37500000   -0.12500000    0.00000000          2/16
   6:     0.37500000    0.12500000    0.00000000          2/16
   7:     0.37500000    0.37500000    0.00000000          2/16

Wave functions: Plane wave expansion
  Cutoff energy: 400.000 eV
  Number of coefficients (min, max): 33332, 33436
  Pulay-stress correction: 0.000000 eV/Ang^3 (de/decut=0.000000)
  Using FFTW library
  ScaLapack parameters: grid=3x1, blocksize=64
  Wavefunction extrapolation:
    Improved wavefunction reuse through dual PAW basis 

Occupation numbers: Fermi-Dirac: width=0.1000 eV
 

Eigensolver
   Davidson(niter=3) 

Densities:
  Coarse grid: 40*40*140 grid
  Fine grid: 80*80*280 grid
  Total Charge: 0.000000 

Density mixing:
  Method: separate
  Backend: pulay
  Linear mixing parameter: 0.05
  Mixing with 5 old densities
  Damping of long wave oscillations: 50 

Hamiltonian:
  XC and Coulomb potentials evaluated on a 80*80*280 grid
  Using the RPBE Exchange-Correlation functional
  External potential:
    NoExternalPotential
 

XC parameters: RPBE with 2 nearest neighbor stencil

Memory estimate:
  Process memory now: 196.61 MiB
  Calculator: 561.53 MiB
    Density: 50.45 MiB
      Arrays: 14.92 MiB
      Localized functions: 29.79 MiB
      Mixer: 5.74 MiB
    Hamiltonian: 10.71 MiB
      Arrays: 9.75 MiB
      XC: 0.00 MiB
      Poisson: 0.00 MiB
      vbar: 0.96 MiB
    Wavefunctions: 500.36 MiB
      Arrays psit_nG: 226.53 MiB
      Eigensolver: 259.17 MiB
      Projections: 1.87 MiB
      Projectors: 4.00 MiB
      PW-descriptor: 8.80 MiB

Total number of cores used: 24
Parallelization over k-points: 8
Domain decomposition: 1 x 1 x 3
                      2 x 2 x 6 (xc only)

Number of atoms: 47
Number of atomic orbitals: 547
Number of bands in calculation: 444
Number of valence electrons: 733
Bands to converge: occupied

... initialized

Initializing position-dependent things.

Density initialized from atomic densities
Creating initial wave functions:
  444 bands from LCAO basis set

                                             
                                             
                                             
                                             
                                             
                                             
                            H                
                          O                  
                 Pt     Ag     Pt            
                                             
            Pt    PPd    APd    Pt           
       Pt    IPt    PPt    Pd                
                                             
        Pt     Pd    APd    Pt     Ag        
                                             
                Pt     Pd     Pt             
           Pt    APt    ARu    Pt            
                                             
            Pd    PPt    PAg    Ru           
       Pd     Pt     Pd                      
             Pd     Pd     Pt                
        Pd     Pt     Pt                     
                                             
                                             
                                             
                                             
                                             

Positions:
   0 Pd     0.000000    1.639149   10.000000    ( 0.0000,  0.0000,  0.0000)
   1 Pt     2.839089    1.639149   10.000000    ( 0.0000,  0.0000,  0.0000)
   2 Pt     5.678177    1.639149   10.000000    ( 0.0000,  0.0000,  0.0000)
   3 Pd     1.419544    4.097872   10.000000    ( 0.0000,  0.0000,  0.0000)
   4 Pd     4.258633    4.097872   10.000000    ( 0.0000,  0.0000,  0.0000)
   5 Pt     7.097722    4.097872   10.000000    ( 0.0000,  0.0000,  0.0000)
   6 Pd     2.839089    6.556595   10.000000    ( 0.0000,  0.0000,  0.0000)
   7 Pt     5.678177    6.556595   10.000000    ( 0.0000,  0.0000,  0.0000)
   8 Ru     8.517266    6.556595   10.000000    ( 0.0000,  0.0000,  0.0000)
   9 Pd     0.000000    0.000000   12.317643    ( 0.0000,  0.0000,  0.0000)
  10 Pt     2.839089    0.000000   12.317643    ( 0.0000,  0.0000,  0.0000)
  11 Pd     5.678177    0.000000   12.317643    ( 0.0000,  0.0000,  0.0000)
  12 Pd     1.419544    2.458723   12.317643    ( 0.0000,  0.0000,  0.0000)
  13 Pt     4.258633    2.458723   12.317643    ( 0.0000,  0.0000,  0.0000)
  14 Ag     7.097722    2.458723   12.317643    ( 0.0000,  0.0000,  0.0000)
  15 Ag     2.839089    4.917446   12.317643    ( 0.0000,  0.0000,  0.0000)
  16 Ag     5.678177    4.917446   12.317643    ( 0.0000,  0.0000,  0.0000)
  17 Pt     8.517266    4.917446   12.317643    ( 0.0000,  0.0000,  0.0000)
  18 Pt     1.382601    0.802015   14.574458    ( 0.0000,  0.0000,  0.0000)
  19 Pt     4.320375    0.816336   14.613039    ( 0.0000,  0.0000,  0.0000)
  20 Ru     7.144265    0.918131   14.702206    ( 0.0000,  0.0000,  0.0000)
  21 Pt     2.831254    3.224549   14.674209    ( 0.0000,  0.0000,  0.0000)
  22 Pd     5.669505    3.253449   14.666412    ( 0.0000,  0.0000,  0.0000)
  23 Pt     8.531860    3.282380   14.648110    ( 0.0000,  0.0000,  0.0000)
  24 Ag     4.274318    5.722991   14.646070    ( 0.0000,  0.0000,  0.0000)
  25 Pt     7.164045    5.771726   14.621475    ( 0.0000,  0.0000,  0.0000)
  26 Ag     9.986908    5.738787   14.643456    ( 0.0000,  0.0000,  0.0000)
  27 Pt    -0.010030    1.649760   16.860047    ( 0.0000,  0.0000,  0.0000)
  28 Pd     2.846447    1.596866   16.907942    ( 0.0000,  0.0000,  0.0000)
  29 Pd     5.675289    1.629573   16.927321    ( 0.0000,  0.0000,  0.0000)
  30 Ir     1.434330    4.054121   16.976739    ( 0.0000,  0.0000,  0.0000)
  31 Pt     4.206017    4.046333   16.977057    ( 0.0000,  0.0000,  0.0000)
  32 Pd     7.080668    4.096815   16.929692    ( 0.0000,  0.0000,  0.0000)
  33 Pd     2.838049    6.583929   16.905471    ( 0.0000,  0.0000,  0.0000)
  34 Ag     5.672922    6.523405   16.970942    ( 0.0000,  0.0000,  0.0000)
  35 Pt     8.525101    6.536969   16.950374    ( 0.0000,  0.0000,  0.0000)
  36 Pt    -0.017716    0.053004   19.239954    ( 0.0000,  0.0000,  0.0000)
  37 Pt     2.857597    0.044181   19.266473    ( 0.0000,  0.0000,  0.0000)
  38 Pt     5.659519   -0.012970   19.233800    ( 0.0000,  0.0000,  0.0000)
  39 Pt     1.394642    2.415452   19.172426    ( 0.0000,  0.0000,  0.0000)
  40 Pd     4.249890    2.430035   19.273035    ( 0.0000,  0.0000,  0.0000)
  41 Pd     7.120027    2.427105   19.248801    ( 0.0000,  0.0000,  0.0000)
  42 Pt     2.796750    4.960022   19.159701    ( 0.0000,  0.0000,  0.0000)
  43 Ag     5.679377    4.925181   19.423236    ( 0.0000,  0.0000,  0.0000)
  44 Pt     8.558870    4.929592   19.192007    ( 0.0000,  0.0000,  0.0000)
  45 O      7.120027    2.427105   21.423236    ( 0.0000,  0.0000,  0.0000)
  46 H      7.770027    3.077105   21.823236    ( 0.0000,  0.0000,  0.0000)

Unit cell:
           periodic     x           y           z      points  spacing
  1. axis:    yes    8.517266    0.000000    0.000000    40     0.1844
  2. axis:    yes    4.258633    7.376169    0.000000    40     0.1844
  3. axis:    no     0.000000    0.000000   29.270571   140     0.2091

  Lengths:   8.517266   8.517266  29.270571
  Angles:   90.000000  90.000000  60.000000

Effective grid spacing dv^(1/3) = 0.2017

     iter     time        total  log10-change:
                         energy  eigst   dens
iter:   1 12:18:49  -261.656028
iter:   2 12:19:47  -226.559464  -1.65  -1.20
iter:   3 12:20:46  -262.843151  -2.13  -1.36
iter:   4 12:21:44  -228.376322  -2.33  -1.24
iter:   5 12:22:43  -230.779883  -2.20  -1.38
iter:   6 12:23:41  -211.844591  -2.74  -1.42
iter:   7 12:24:40  -207.043839  -2.95  -1.58
iter:   8 12:25:39  -206.034630  -3.48  -1.73
iter:   9 12:26:38  -209.328316  -2.99  -1.77
iter:  10 12:27:37  -210.053762  -3.73  -1.74
iter:  11 12:28:35  -207.499831  -2.95  -1.72
iter:  12 12:29:34  -205.295062  -3.50  -1.88
iter:  13 12:30:33  -204.710390  -3.43  -2.00
iter:  14 12:31:32  -204.635763  -4.17  -2.19
iter:  15 12:32:31  -204.670152c -4.22  -2.26
iter:  16 12:33:30  -204.555680c -4.24  -2.28
iter:  17 12:34:29  -204.639360c -3.91  -2.36
iter:  18 12:35:29  -205.068356  -4.15  -2.38
iter:  19 12:36:28  -204.352877  -4.11  -2.23
iter:  20 12:37:28  -204.315117  -4.52  -2.74
iter:  21 12:38:28  -204.313358c -5.24  -2.91
iter:  22 12:39:28  -204.308633c -5.23  -2.95
iter:  23 12:40:27  -204.304465c -5.50  -2.98
iter:  24 12:41:27  -204.307310c -5.65  -3.07
iter:  25 12:42:27  -204.302630c -5.31  -3.07
iter:  26 12:43:27  -204.301707c -5.79  -3.43
iter:  27 12:44:27  -204.303151c -5.94  -3.45
iter:  28 12:45:27  -204.301836c -6.66  -3.57
iter:  29 12:46:27  -204.303778c -6.63  -3.63
iter:  30 12:47:27  -204.302509c -7.00  -3.48
iter:  31 12:48:27  -204.302775c -6.98  -3.74
iter:  32 12:49:26  -204.302090c -6.69  -3.82
iter:  33 12:50:26  -204.302448c -7.06  -3.93
iter:  34 12:51:26  -204.302386c -7.13  -4.06c
iter:  35 12:52:26  -204.302215c -7.43c -3.86
iter:  36 12:53:25  -204.301984c -7.71c -4.21c

Converged after 36 iterations.

Dipole moment: (28.471863, 11.148900, -0.261663) |e|*Ang

Energy contributions relative to reference atoms: (reference = -14174791.127075)

Kinetic:       -330.386487
Potential:     +183.919041
External:        +0.000000
XC:             -45.587160
Entropy (-ST):   -2.378995
Local:          -11.057881
--------------------------
Free energy:   -205.491481
Extrapolated:  -204.301984

Showing only first 2 kpts
 Kpt  Band  Eigenvalues  Occupancy
  0   364      0.56179    1.08683
  0   365      0.60380    0.87760
  0   366      0.63578    0.72443
  0   367      0.64928    0.66327

  1   364      0.48568    1.43625
  1   365      0.49110    1.41408
  1   366      0.50268    1.36497
  1   367      0.55432    1.12377


Fermi level: 0.57920

No gap

Forces in eV/Ang:
  0 Pd    0.01126   -0.00966   -0.25435
  1 Pt    0.30412   -0.52575    0.38525
  2 Pt   -0.34137   -0.14301    0.02806
  3 Pd   -0.40789    0.17746   -0.08970
  4 Pd    0.22039   -0.22222   -0.24761
  5 Pt    0.21819    0.31231   -0.18156
  6 Pd   -0.21455    0.23203   -0.10430
  7 Pt    0.55971    0.16454    0.08513
  8 Ru   -0.49603    0.06704    1.33319
  9 Pd   -0.22914    0.16145    0.17046
 10 Pt    0.29268    0.00280   -0.31192
 11 Pd    0.03959    0.04396   -0.06675
 12 Pd    0.08157    0.09426   -0.00516
 13 Pt   -0.18979   -0.18110    0.15592
 14 Ag    0.05099   -0.12771    0.07400
 15 Ag   -0.01072   -0.06693   -0.09976
 16 Ag   -0.05961   -0.05585    0.07766
 17 Pt    0.03178    0.23711   -0.57433
 18 Pt    0.04204    0.02170   -0.00084
 19 Pt   -0.01259    0.00955   -0.02923
 20 Ru    0.00176   -0.04055   -0.07502
 21 Pt    0.03660   -0.01786   -0.01123
 22 Pd    0.05938   -0.02763    0.01176
 23 Pt   -0.02753   -0.05727    0.03823
 24 Ag    0.03259   -0.01344   -0.00859
 25 Pt    0.00036   -0.00217    0.02003
 26 Ag    0.01426    0.02361   -0.04658
 27 Pt   -0.10557    0.13590    0.06811
 28 Pd    0.00880    0.00819   -0.03325
 29 Pd    0.10023    0.04291    0.03882
 30 Ir    0.02384    0.02112   -0.03392
 31 Pt   -0.00659   -0.04039   -0.02607
 32 Pd   -0.00848   -0.08668   -0.04330
 33 Pd   -0.00617   -0.00171   -0.01348
 34 Ag   -0.01506   -0.05028    0.02477
 35 Pt    0.09341   -0.05509   -0.01676
 36 Pt    0.02071   -0.16566   -0.06293
 37 Pt    0.01506   -0.03454   -0.01237
 38 Pt   -0.12313   -0.18687   -0.12280
 39 Pt    0.20546    0.03320   -0.08707
 40 Pd   -0.13981    0.01449   -0.00697
 41 Pd    0.15398    0.15291    1.26328
 42 Pt   -0.05627    0.01785    0.00096
 43 Ag   -0.02639    0.04758    0.12408
 44 Pt    0.06737    0.12408   -0.08274
 45 O     0.12091    0.27904   -0.63482
 46 H    -0.29989   -0.30439   -0.52698

System changes: positions 

Initializing position-dependent things.

Density initialized from wave functions
                                             
                                             
                                             
                                             
                                             
                                             
                            H                
                          O                  
                 Pt     Ag     Pt            
                                             
            Pt    PPd    APd    Pt           
       Pt    IPt    PPt    Pd                
                                             
        Pt     Pd    APd    Pt     Ag        
                                             
                Pt     Pd     Pt             
           Pt    APt    ARu    Pt            
                                             
            Pd    PPt    PAg    Ru           
       Pd     Pt     Pd                      
             Pd     Pd     Pt                
        Pd     Pt     Pt                     
                                             
                                             
                                             
                                             
                                             

Positions:
   0 Pd     0.000000    1.639149   10.000000    ( 0.0000,  0.0000,  0.0000)
   1 Pt     2.839089    1.639149   10.000000    ( 0.0000,  0.0000,  0.0000)
   2 Pt     5.678177    1.639149   10.000000    ( 0.0000,  0.0000,  0.0000)
   3 Pd     1.419544    4.097872   10.000000    ( 0.0000,  0.0000,  0.0000)
   4 Pd     4.258633    4.097872   10.000000    ( 0.0000,  0.0000,  0.0000)
   5 Pt     7.097722    4.097872   10.000000    ( 0.0000,  0.0000,  0.0000)
   6 Pd     2.839089    6.556595   10.000000    ( 0.0000,  0.0000,  0.0000)
   7 Pt     5.678177    6.556595   10.000000    ( 0.0000,  0.0000,  0.0000)
   8 Ru     8.517266    6.556595   10.000000    ( 0.0000,  0.0000,  0.0000)
   9 Pd     0.000000    0.000000   12.317643    ( 0.0000,  0.0000,  0.0000)
  10 Pt     2.839089    0.000000   12.317643    ( 0.0000,  0.0000,  0.0000)
  11 Pd     5.678177    0.000000   12.317643    ( 0.0000,  0.0000,  0.0000)
  12 Pd     1.419544    2.458723   12.317643    ( 0.0000,  0.0000,  0.0000)
  13 Pt     4.258633    2.458723   12.317643    ( 0.0000,  0.0000,  0.0000)
  14 Ag     7.097722    2.458723   12.317643    ( 0.0000,  0.0000,  0.0000)
  15 Ag     2.839089    4.917446   12.317643    ( 0.0000,  0.0000,  0.0000)
  16 Ag     5.678177    4.917446   12.317643    ( 0.0000,  0.0000,  0.0000)
  17 Pt     8.517266    4.917446   12.317643    ( 0.0000,  0.0000,  0.0000)
  18 Pt     1.383201    0.802325   14.574445    ( 0.0000,  0.0000,  0.0000)
  19 Pt     4.320195    0.816472   14.612621    ( 0.0000,  0.0000,  0.0000)
  20 Ru     7.144290    0.917552   14.701134    ( 0.0000,  0.0000,  0.0000)
  21 Pt     2.831777    3.224293   14.674049    ( 0.0000,  0.0000,  0.0000)
  22 Pd     5.670353    3.253054   14.666580    ( 0.0000,  0.0000,  0.0000)
  23 Pt     8.531467    3.281562   14.648657    ( 0.0000,  0.0000,  0.0000)
  24 Ag     4.274784    5.722799   14.645947    ( 0.0000,  0.0000,  0.0000)
  25 Pt     7.164050    5.771695   14.621761    ( 0.0000,  0.0000,  0.0000)
  26 Ag     9.987112    5.739124   14.642790    ( 0.0000,  0.0000,  0.0000)
  27 Pt    -0.011538    1.651701   16.861020    ( 0.0000,  0.0000,  0.0000)
  28 Pd     2.846573    1.596983   16.907467    ( 0.0000,  0.0000,  0.0000)
  29 Pd     5.676721    1.630186   16.927875    ( 0.0000,  0.0000,  0.0000)
  30 Ir     1.434671    4.054422   16.976255    ( 0.0000,  0.0000,  0.0000)
  31 Pt     4.205923    4.045756   16.976685    ( 0.0000,  0.0000,  0.0000)
  32 Pd     7.080547    4.095577   16.929074    ( 0.0000,  0.0000,  0.0000)
  33 Pd     2.837961    6.583905   16.905278    ( 0.0000,  0.0000,  0.0000)
  34 Ag     5.672707    6.522687   16.971296    ( 0.0000,  0.0000,  0.0000)
  35 Pt     8.526435    6.536182   16.950135    ( 0.0000,  0.0000,  0.0000)
  36 Pt    -0.017420    0.050638   19.239055    ( 0.0000,  0.0000,  0.0000)
  37 Pt     2.857812    0.043688   19.266296    ( 0.0000,  0.0000,  0.0000)
  38 Pt     5.657760   -0.015640   19.232046    ( 0.0000,  0.0000,  0.0000)
  39 Pt     1.397577    2.415927   19.171182    ( 0.0000,  0.0000,  0.0000)
  40 Pd     4.247892    2.430242   19.272936    ( 0.0000,  0.0000,  0.0000)
  41 Pd     7.122227    2.429289   19.266848    ( 0.0000,  0.0000,  0.0000)
  42 Pt     2.795946    4.960277   19.159715    ( 0.0000,  0.0000,  0.0000)
  43 Ag     5.679000    4.925861   19.425008    ( 0.0000,  0.0000,  0.0000)
  44 Pt     8.559833    4.931365   19.190825    ( 0.0000,  0.0000,  0.0000)
  45 O      7.121754    2.431091   21.414167    ( 0.0000,  0.0000,  0.0000)
  46 H      7.765743    3.072757   21.815707    ( 0.0000,  0.0000,  0.0000)

Unit cell:
           periodic     x           y           z      points  spacing
  1. axis:    yes    8.517266    0.000000    0.000000    40     0.1844
  2. axis:    yes    4.258633    7.376169    0.000000    40     0.1844
  3. axis:    no     0.000000    0.000000   29.270571   140     0.2091

  Lengths:   8.517266   8.517266  29.270571
  Angles:   90.000000  90.000000  60.000000

Effective grid spacing dv^(1/3) = 0.2017

     iter     time        total  log10-change:
                         energy  eigst   dens
iter:   1 12:54:45  -204.394800  -4.22
iter:   2 12:55:45  -206.350804  -4.27  -2.85
iter:   3 12:56:44  -204.375093  -4.59  -2.07
iter:   4 12:57:43  -204.375055  -5.47  -2.96
iter:   5 12:58:43  -204.340378c -5.77  -2.91
iter:   6 12:59:42  -204.341749c -6.60  -3.59
iter:   7 13:00:42  -204.342339c -6.90  -3.87
iter:   8 13:01:41  -204.343062c -6.60  -3.62
iter:   9 13:02:40  -204.342481c -6.93  -3.65
iter:  10 13:03:40  -204.341373c -7.17  -4.10c
iter:  11 13:04:39  -204.341548c -7.81c -4.14c

Converged after 11 iterations.

Dipole moment: (28.445014, 11.369561, -0.245415) |e|*Ang

Energy contributions relative to reference atoms: (reference = -14174791.127075)

Kinetic:       -331.507583
Potential:     +185.097763
External:        +0.000000
XC:             -45.685064
Entropy (-ST):   -2.376533
Local:          -11.058397
--------------------------
Free energy:   -205.529815
Extrapolated:  -204.341548

Showing only first 2 kpts
 Kpt  Band  Eigenvalues  Occupancy
  0   364      0.56957    1.08493
  0   365      0.61130    0.87711
  0   366      0.64315    0.72454
  0   367      0.65689    0.66235

  1   364      0.49274    1.43761
  1   365      0.49872    1.41314
  1   366      0.50900    1.36962
  1   367      0.56099    1.12737


Fermi level: 0.58660

No gap

Forces in eV/Ang:
  0 Pd    0.01165   -0.00960   -0.25031
  1 Pt    0.30164   -0.52198    0.38521
  2 Pt   -0.33872   -0.14516    0.02718
  3 Pd   -0.40781    0.18117   -0.08415
  4 Pd    0.21610   -0.22014   -0.24086
  5 Pt    0.22450    0.31004   -0.18459
  6 Pd   -0.21425    0.22844   -0.09413
  7 Pt    0.55229    0.16572    0.08730
  8 Ru   -0.49259    0.06506    1.34645
  9 Pd   -0.23159    0.15896    0.17595
 10 Pt    0.28714   -0.00287   -0.30143
 11 Pd    0.04626    0.04318   -0.06715
 12 Pd    0.07985    0.10187   -0.00285
 13 Pt   -0.18865   -0.16667    0.16310
 14 Ag    0.05353   -0.12747    0.06878
 15 Ag   -0.00874   -0.06821   -0.10257
 16 Ag   -0.06334   -0.05704    0.07836
 17 Pt    0.03468    0.22821   -0.56689
 18 Pt    0.02506    0.00954    0.00296
 19 Pt   -0.00259    0.00449   -0.01832
 20 Ru    0.01488   -0.04250   -0.04810
 21 Pt    0.03082   -0.00345   -0.01322
 22 Pd    0.04508   -0.02577    0.01301
 23 Pt   -0.01605   -0.04611    0.02352
 24 Ag    0.03336   -0.00979   -0.00580
 25 Pt    0.00048   -0.00178    0.01869
 26 Ag    0.01122    0.01694   -0.04597
 27 Pt   -0.11496    0.11355    0.07744
 28 Pd    0.01111   -0.00741   -0.04630
 29 Pd    0.10590    0.04680    0.06730
 30 Ir    0.01791    0.00452   -0.04649
 31 Pt    0.01093   -0.03649   -0.02046
 32 Pd   -0.01691   -0.08711   -0.01082
 33 Pd    0.01112    0.01952   -0.02490
 34 Ag   -0.00724   -0.04418    0.01428
 35 Pt    0.05942   -0.03831   -0.04733
 36 Pt    0.01453   -0.13082   -0.08785
 37 Pt    0.00369   -0.02649   -0.01598
 38 Pt   -0.09628   -0.12510   -0.11581
 39 Pt    0.17663    0.00936   -0.11918
 40 Pd   -0.10136    0.00939   -0.03172
 41 Pd    0.12793    0.11216    1.01093
 42 Pt   -0.02248    0.00969    0.00004
 43 Ag   -0.03241    0.03754    0.07252
 44 Pt    0.04040    0.09949   -0.11722
 45 O    -0.14100    0.02858   -0.70899
 46 H    -0.06957   -0.07528   -0.40811

System changes: positions 

Initializing position-dependent things.

Density initialized from wave functions
                                             
                                             
                                             
                                             
                                             
                                             
                            H                
                          O                  
                 Pt     Ag     Pt            
                   Pd     Pd                 
            Pt    Pd     Ag     Pt           
       Pt    IPt    PPt    Pd                
                                             
        Pt     Pd    APd    Pt     Ag        
                       Pd     Pt             
                Pt                           
           Pt    APt    ARu    Pt            
                                             
            Pd    PPt    PAg    Ru           
       Pd     Pt     Pd                      
             Pd     Pd     Pt                
        Pd     Pt     Pt                     
                                             
                                             
                                             
                                             
                                             

Positions:
   0 Pd     0.000000    1.639149   10.000000    ( 0.0000,  0.0000,  0.0000)
   1 Pt     2.839089    1.639149   10.000000    ( 0.0000,  0.0000,  0.0000)
   2 Pt     5.678177    1.639149   10.000000    ( 0.0000,  0.0000,  0.0000)
   3 Pd     1.419544    4.097872   10.000000    ( 0.0000,  0.0000,  0.0000)
   4 Pd     4.258633    4.097872   10.000000    ( 0.0000,  0.0000,  0.0000)
   5 Pt     7.097722    4.097872   10.000000    ( 0.0000,  0.0000,  0.0000)
   6 Pd     2.839089    6.556595   10.000000    ( 0.0000,  0.0000,  0.0000)
   7 Pt     5.678177    6.556595   10.000000    ( 0.0000,  0.0000,  0.0000)
   8 Ru     8.517266    6.556595   10.000000    ( 0.0000,  0.0000,  0.0000)
   9 Pd     0.000000    0.000000   12.317643    ( 0.0000,  0.0000,  0.0000)
  10 Pt     2.839089    0.000000   12.317643    ( 0.0000,  0.0000,  0.0000)
  11 Pd     5.678177    0.000000   12.317643    ( 0.0000,  0.0000,  0.0000)
  12 Pd     1.419544    2.458723   12.317643    ( 0.0000,  0.0000,  0.0000)
  13 Pt     4.258633    2.458723   12.317643    ( 0.0000,  0.0000,  0.0000)
  14 Ag     7.097722    2.458723   12.317643    ( 0.0000,  0.0000,  0.0000)
  15 Ag     2.839089    4.917446   12.317643    ( 0.0000,  0.0000,  0.0000)
  16 Ag     5.678177    4.917446   12.317643    ( 0.0000,  0.0000,  0.0000)
  17 Pt     8.517266    4.917446   12.317643    ( 0.0000,  0.0000,  0.0000)
  18 Pt     1.385756    0.803421   14.574621    ( 0.0000,  0.0000,  0.0000)
  19 Pt     4.319752    0.816974   14.610786    ( 0.0000,  0.0000,  0.0000)
  20 Ru     7.145303    0.913887   14.696354    ( 0.0000,  0.0000,  0.0000)
  21 Pt     2.834591    3.223679   14.672939    ( 0.0000,  0.0000,  0.0000)
  22 Pd     5.674596    3.250765   14.667688    ( 0.0000,  0.0000,  0.0000)
  23 Pt     8.529817    3.277297   14.651027    ( 0.0000,  0.0000,  0.0000)
  24 Ag     4.277677    5.721866   14.645381    ( 0.0000,  0.0000,  0.0000)
  25 Pt     7.164089    5.771531   14.623420    ( 0.0000,  0.0000,  0.0000)
  26 Ag     9.988157    5.740747   14.638768    ( 0.0000,  0.0000,  0.0000)
  27 Pt    -0.021362    1.662092   16.867572    ( 0.0000,  0.0000,  0.0000)
  28 Pd     2.847492    1.596675   16.903712    ( 0.0000,  0.0000,  0.0000)
  29 Pd     5.685836    1.634184   16.933128    ( 0.0000,  0.0000,  0.0000)
  30 Ir     1.436362    4.055177   16.972472    ( 0.0000,  0.0000,  0.0000)
  31 Pt     4.206496    4.042488   16.974778    ( 0.0000,  0.0000,  0.0000)
  32 Pd     7.079254    4.087987   16.927425    ( 0.0000,  0.0000,  0.0000)
  33 Pd     2.838555    6.585147   16.903355    ( 0.0000,  0.0000,  0.0000)
  34 Ag     5.671906    6.518701   16.972770    ( 0.0000,  0.0000,  0.0000)
  35 Pt     8.532357    6.532476   16.946670    ( 0.0000,  0.0000,  0.0000)
  36 Pt    -0.016018    0.038469   19.231933    ( 0.0000,  0.0000,  0.0000)
  37 Pt     2.858381    0.041202   19.264980    ( 0.0000,  0.0000,  0.0000)
  38 Pt     5.648778   -0.027894   19.221792    ( 0.0000,  0.0000,  0.0000)
  39 Pt     1.413611    2.417261   19.161483    ( 0.0000,  0.0000,  0.0000)
  40 Pd     4.238216    2.431171   19.270706    ( 0.0000,  0.0000,  0.0000)
  41 Pd     7.133952    2.439959   19.360515    ( 0.0000,  0.0000,  0.0000)
  42 Pt     2.793251    4.961300   19.159738    ( 0.0000,  0.0000,  0.0000)
  43 Ag     5.676304    4.929354   19.432454    ( 0.0000,  0.0000,  0.0000)
  44 Pt     8.563943    4.940578   19.181348    ( 0.0000,  0.0000,  0.0000)
  45 O      7.115143    2.439025   21.353931    ( 0.0000,  0.0000,  0.0000)
  46 H      7.754671    3.061213   21.777525    ( 0.0000,  0.0000,  0.0000)

Unit cell:
           periodic     x           y           z      points  spacing
  1. axis:    yes    8.517266    0.000000    0.000000    40     0.1844
  2. axis:    yes    4.258633    7.376169    0.000000    40     0.1844
  3. axis:    no     0.000000    0.000000   29.270571   140     0.2091

  Lengths:   8.517266   8.517266  29.270571
  Angles:   90.000000  90.000000  60.000000

Effective grid spacing dv^(1/3) = 0.2017

     iter     time        total  log10-change:
                         energy  eigst   dens
iter:   1 13:05:58  -204.856589  -2.87
iter:   2 13:06:57  -205.939310  -3.50  -2.47
iter:   3 13:07:56  -208.881886  -3.58  -2.19
iter:   4 13:08:55  -204.871639  -3.96  -1.88
iter:   5 13:09:55  -204.486974  -4.73  -2.41
iter:   6 13:10:55  -204.466574  -5.43  -2.97
iter:   7 13:11:54  -204.467059c -5.71  -3.07
iter:   8 13:12:54  -204.508743c -5.09  -3.06
iter:   9 13:13:54  -204.447814c -5.48  -2.75
iter:  10 13:14:53  -204.452593c -5.83  -3.42
iter:  11 13:15:53  -204.444334c -6.09  -3.22
iter:  12 13:16:52  -204.445974c -6.58  -3.62
iter:  13 13:17:52  -204.444913c -6.77  -3.75
iter:  14 13:18:52  -204.444972c -6.63  -3.81
iter:  15 13:19:52  -204.444693c -6.87  -3.68
iter:  16 13:20:52  -204.444979c -6.92  -3.83
iter:  17 13:21:53  -204.445063c -6.96  -3.75
iter:  18 13:22:53  -204.444338c -7.21  -3.79
iter:  19 13:23:53  -204.444785c -7.35  -4.13c
iter:  20 13:24:54  -204.444317c -7.53c -4.10c

Converged after 20 iterations.

Dipole moment: (28.106702, 12.411502, -0.152142) |e|*Ang

Energy contributions relative to reference atoms: (reference = -14174791.127075)

Kinetic:       -327.720825
Potential:     +181.870371
External:        +0.000000
XC:             -46.326650
Entropy (-ST):   -2.365257
Local:          -11.084584
--------------------------
Free energy:   -205.626945
Extrapolated:  -204.444317

Showing only first 2 kpts
 Kpt  Band  Eigenvalues  Occupancy
  0   364      0.61469    1.07993
  0   365      0.65539    0.87724
  0   366      0.68571    0.73170
  0   367      0.70024    0.66569

  1   364      0.53537    1.44358
  1   365      0.54406    1.40804
  1   366      0.54784    1.39215
  1   367      0.60126    1.14618


Fermi level: 0.63071

No gap

Forces in eV/Ang:
  0 Pd    0.01083   -0.00979   -0.25246
  1 Pt    0.29976   -0.52106    0.38171
  2 Pt   -0.33796   -0.14343    0.02575
  3 Pd   -0.40802    0.18032   -0.08157
  4 Pd    0.21573   -0.22037   -0.24115
  5 Pt    0.22449    0.30890   -0.18821
  6 Pd   -0.21305    0.22822   -0.09243
  7 Pt    0.55232    0.16660    0.08473
  8 Ru   -0.49452    0.06535    1.34728
  9 Pd   -0.23307    0.16318    0.18151
 10 Pt    0.28999   -0.00451   -0.30728
 11 Pd    0.05254    0.05134   -0.07437
 12 Pd    0.08069    0.10136   -0.00176
 13 Pt   -0.18509   -0.16571    0.16160
 14 Ag    0.05428   -0.12961    0.06005
 15 Ag   -0.00440   -0.06942   -0.11196
 16 Ag   -0.06101   -0.06047    0.07831
 17 Pt    0.03138    0.22581   -0.56887
 18 Pt    0.01419    0.00040   -0.00435
 19 Pt    0.00361    0.00342   -0.02718
 20 Ru    0.02380   -0.02301   -0.03193
 21 Pt    0.02232    0.00746   -0.02346
 22 Pd    0.01744   -0.02131   -0.01636
 23 Pt    0.01342   -0.01435   -0.01101
 24 Ag    0.02391   -0.01652   -0.00773
 25 Pt    0.00970   -0.00828   -0.00167
 26 Ag    0.01291   -0.00700   -0.03663
 27 Pt   -0.03232    0.04474    0.12116
 28 Pd    0.01614   -0.03045   -0.05071
 29 Pd    0.04655    0.01113    0.12604
 30 Ir    0.03855    0.01681   -0.06238
 31 Pt   -0.02708   -0.00753   -0.01621
 32 Pd    0.00367   -0.03202    0.07934
 33 Pd    0.01060   -0.02361   -0.04024
 34 Ag    0.01901   -0.01854   -0.00649
 35 Pt    0.01393   -0.00633   -0.08555
 36 Pt    0.00582   -0.04684   -0.06145
 37 Pt    0.00096   -0.02686   -0.04558
 38 Pt   -0.04909   -0.05721   -0.07436
 39 Pt    0.09169   -0.00989   -0.05051
 40 Pd   -0.05703    0.01031   -0.01105
 41 Pd    0.16223    0.10546   -0.29922
 42 Pt    0.00259   -0.00023   -0.04338
 43 Ag   -0.00797    0.00943    0.06304
 44 Pt   -0.03367    0.00931   -0.00272
 45 O    -0.31647   -0.11653    0.28992
 46 H     0.10931    0.09411   -0.30066

System changes: positions 

Initializing position-dependent things.

Density initialized from wave functions
                                             
                                             
                                             
                                             
                                             
                                             
                            H                
                          O                  
                 Pt     Ag     Pt            
                   Pd     Pd                 
            Pt    Pd     Ag     Pt           
       Pt    IPt    PPt    Pd                
                                             
        Pt     Pd    APd    Pt     Ag        
                Pt     Pd     Pt             
                                             
           Pt    APt    ARu    Pt            
                                             
            Pd    PPt    PAg    Ru           
       Pd     Pt     Pd                      
             Pd     Pd     Pt                
        Pd     Pt     Pt                     
                                             
                                             
                                             
                                             
                                             

Positions:
   0 Pd     0.000000    1.639149   10.000000    ( 0.0000,  0.0000,  0.0000)
   1 Pt     2.839089    1.639149   10.000000    ( 0.0000,  0.0000,  0.0000)
   2 Pt     5.678177    1.639149   10.000000    ( 0.0000,  0.0000,  0.0000)
   3 Pd     1.419544    4.097872   10.000000    ( 0.0000,  0.0000,  0.0000)
   4 Pd     4.258633    4.097872   10.000000    ( 0.0000,  0.0000,  0.0000)
   5 Pt     7.097722    4.097872   10.000000    ( 0.0000,  0.0000,  0.0000)
   6 Pd     2.839089    6.556595   10.000000    ( 0.0000,  0.0000,  0.0000)
   7 Pt     5.678177    6.556595   10.000000    ( 0.0000,  0.0000,  0.0000)
   8 Ru     8.517266    6.556595   10.000000    ( 0.0000,  0.0000,  0.0000)
   9 Pd     0.000000    0.000000   12.317643    ( 0.0000,  0.0000,  0.0000)
  10 Pt     2.839089    0.000000   12.317643    ( 0.0000,  0.0000,  0.0000)
  11 Pd     5.678177    0.000000   12.317643    ( 0.0000,  0.0000,  0.0000)
  12 Pd     1.419544    2.458723   12.317643    ( 0.0000,  0.0000,  0.0000)
  13 Pt     4.258633    2.458723   12.317643    ( 0.0000,  0.0000,  0.0000)
  14 Ag     7.097722    2.458723   12.317643    ( 0.0000,  0.0000,  0.0000)
  15 Ag     2.839089    4.917446   12.317643    ( 0.0000,  0.0000,  0.0000)
  16 Ag     5.678177    4.917446   12.317643    ( 0.0000,  0.0000,  0.0000)
  17 Pt     8.517266    4.917446   12.317643    ( 0.0000,  0.0000,  0.0000)
  18 Pt     1.385804    0.803375   14.574550    ( 0.0000,  0.0000,  0.0000)
  19 Pt     4.319812    0.816994   14.610537    ( 0.0000,  0.0000,  0.0000)
  20 Ru     7.145528    0.913820   14.696203    ( 0.0000,  0.0000,  0.0000)
  21 Pt     2.834712    3.223793   14.672710    ( 0.0000,  0.0000,  0.0000)
  22 Pd     5.674579    3.250630   14.667409    ( 0.0000,  0.0000,  0.0000)
  23 Pt     8.530075    3.277360   14.650761    ( 0.0000,  0.0000,  0.0000)
  24 Ag     4.277805    5.721707   14.645313    ( 0.0000,  0.0000,  0.0000)
  25 Pt     7.164210    5.771435   14.623299    ( 0.0000,  0.0000,  0.0000)
  26 Ag     9.988262    5.740567   14.638544    ( 0.0000,  0.0000,  0.0000)
  27 Pt    -0.021163    1.662058   16.868708    ( 0.0000,  0.0000,  0.0000)
  28 Pd     2.847639    1.596325   16.903310    ( 0.0000,  0.0000,  0.0000)
  29 Pd     5.685867    1.634077   16.934380    ( 0.0000,  0.0000,  0.0000)
  30 Ir     1.436759    4.055367   16.971922    ( 0.0000,  0.0000,  0.0000)
  31 Pt     4.206092    4.042587   16.974680    ( 0.0000,  0.0000,  0.0000)
  32 Pd     7.079391    4.088042   16.928497    ( 0.0000,  0.0000,  0.0000)
  33 Pd     2.838631    6.584742   16.902973    ( 0.0000,  0.0000,  0.0000)
  34 Ag     5.672187    6.518699   16.972611    ( 0.0000,  0.0000,  0.0000)
  35 Pt     8.532218    6.532599   16.945828    ( 0.0000,  0.0000,  0.0000)
  36 Pt    -0.016021    0.038568   19.231615    ( 0.0000,  0.0000,  0.0000)
  37 Pt     2.858373    0.041000   19.264483    ( 0.0000,  0.0000,  0.0000)
  38 Pt     5.648665   -0.027956   19.221459    ( 0.0000,  0.0000,  0.0000)
  39 Pt     1.413841    2.417084   19.161471    ( 0.0000,  0.0000,  0.0000)
  40 Pd     4.238028    2.431253   19.270733    ( 0.0000,  0.0000,  0.0000)
  41 Pd     7.135342    2.440707   19.351301    ( 0.0000,  0.0000,  0.0000)
  42 Pt     2.793405    4.961245   19.159184    ( 0.0000,  0.0000,  0.0000)
  43 Ag     5.676374    4.929274   19.432871    ( 0.0000,  0.0000,  0.0000)
  44 Pt     8.563297    4.940166   19.181937    ( 0.0000,  0.0000,  0.0000)
  45 O      7.111843    2.437376   21.361407    ( 0.0000,  0.0000,  0.0000)
  46 H      7.756446    3.062824   21.775862    ( 0.0000,  0.0000,  0.0000)

Unit cell:
           periodic     x           y           z      points  spacing
  1. axis:    yes    8.517266    0.000000    0.000000    40     0.1844
  2. axis:    yes    4.258633    7.376169    0.000000    40     0.1844
  3. axis:    no     0.000000    0.000000   29.270571   140     0.2091

  Lengths:   8.517266   8.517266  29.270571
  Angles:   90.000000  90.000000  60.000000

Effective grid spacing dv^(1/3) = 0.2017

     iter     time        total  log10-change:
                         energy  eigst   dens
iter:   1 13:26:15  -204.621644  -4.62
iter:   2 13:27:15  -210.340626  -3.81  -2.60
iter:   3 13:28:16  -204.514240  -3.96  -1.82
iter:   4 13:29:16  -204.528627  -5.14  -2.82
iter:   5 13:30:16  -204.469884c -5.88  -2.77
iter:   6 13:31:16  -204.450380c -6.16  -3.06
iter:   7 13:32:17  -204.451665c -6.81  -3.77
iter:   8 13:33:17  -204.450360c -7.00  -3.81
iter:   9 13:34:17  -204.450921c -7.30  -3.98
iter:  10 13:35:17  -204.450714c -7.16  -3.98
iter:  11 13:36:18  -204.450230c -7.76c -3.83
iter:  12 13:37:18  -204.450402c -7.41c -4.16c

Converged after 12 iterations.

Dipole moment: (28.103496, 12.421516, -0.169691) |e|*Ang

Energy contributions relative to reference atoms: (reference = -14174791.127075)

Kinetic:       -328.345062
Potential:     +182.430201
External:        +0.000000
XC:             -46.222726
Entropy (-ST):   -2.366046
Local:          -11.129791
--------------------------
Free energy:   -205.633425
Extrapolated:  -204.450402

Showing only first 2 kpts
 Kpt  Band  Eigenvalues  Occupancy
  0   364      0.60780    1.07909
  0   365      0.64839    0.87689
  0   366      0.67860    0.73195
  0   367      0.69346    0.66444

  1   364      0.52861    1.44239
  1   365      0.53665    1.40949
  1   366      0.54169    1.38827
  1   367      0.59431    1.14566


Fermi level: 0.62365

No gap

Forces in eV/Ang:
  0 Pd    0.01054   -0.00936   -0.24986
  1 Pt    0.30082   -0.52396    0.38381
  2 Pt   -0.33872   -0.14436    0.02867
  3 Pd   -0.40887    0.18138   -0.07998
  4 Pd    0.21697   -0.22055   -0.23869
  5 Pt    0.22448    0.31040   -0.18397
  6 Pd   -0.21409    0.22846   -0.09142
  7 Pt    0.55496    0.16650    0.08897
  8 Ru   -0.49608    0.06709    1.35288
  9 Pd   -0.23136    0.16267    0.18289
 10 Pt    0.28973   -0.00834   -0.30798
 11 Pd    0.05165    0.05056   -0.07310
 12 Pd    0.07843    0.10328    0.00048
 13 Pt   -0.18260   -0.16438    0.16092
 14 Ag    0.05448   -0.12744    0.06260
 15 Ag   -0.00439   -0.06965   -0.11131
 16 Ag   -0.05957   -0.06082    0.07818
 17 Pt    0.02973    0.22400   -0.56510
 18 Pt    0.00647   -0.00026    0.01279
 19 Pt    0.00779    0.00306   -0.00954
 20 Ru    0.02574   -0.02080   -0.01043
 21 Pt    0.01898    0.00415   -0.01754
 22 Pd    0.02613   -0.02630    0.00233
 23 Pt    0.00742   -0.02187    0.00212
 24 Ag    0.02554   -0.00944   -0.00207
 25 Pt    0.00795   -0.00764    0.00555
 26 Ag    0.01229   -0.00404   -0.03390
 27 Pt   -0.04587    0.04004    0.10809
 28 Pd    0.01725   -0.03149   -0.05152
 29 Pd    0.05665    0.01729    0.11095
 30 Ir    0.02176    0.00599   -0.05647
 31 Pt   -0.00244   -0.01714   -0.01145
 32 Pd   -0.00349   -0.04109    0.06561
 33 Pd    0.01678    0.00243   -0.04074
 34 Ag    0.01448   -0.01793   -0.01011
 35 Pt    0.01288   -0.00375   -0.08437
 36 Pt   -0.00221   -0.03132   -0.04092
 37 Pt   -0.00236   -0.01667   -0.02300
 38 Pt   -0.03724   -0.03483   -0.05117
 39 Pt    0.08261   -0.01430   -0.03561
 40 Pd   -0.04477    0.00504    0.00352
 41 Pd    0.14779    0.08060   -0.00062
 42 Pt    0.00312   -0.00028   -0.01621
 43 Ag   -0.01176    0.00673    0.06885
 44 Pt   -0.02329    0.00404   -0.00311
 45 O    -0.29755   -0.10764    0.25122
 46 H     0.06146    0.04669   -0.29515

System changes: positions 

Initializing position-dependent things.

Density initialized from wave functions
                                             
                                             
                                             
                                             
                                             
                                             
                            H                
                          O                  
                 Pt     Ag     Pt            
                   Pd     Pd                 
            Pt    Pd     Ag     Pt           
       Pt    IPt    PPt    Pd                
                                             
        Pt     Pd    APd    Pt     Ag        
                Pt     Pd     Pt             
                                             
           Pt    APt    ARu    Pt            
                                             
            Pd    PPt    PAg    Ru           
       Pd     Pt     Pd                      
             Pd     Pd     Pt                
        Pd     Pt     Pt                     
                                             
                                             
                                             
                                             
                                             

Positions:
   0 Pd     0.000000    1.639149   10.000000    ( 0.0000,  0.0000,  0.0000)
   1 Pt     2.839089    1.639149   10.000000    ( 0.0000,  0.0000,  0.0000)
   2 Pt     5.678177    1.639149   10.000000    ( 0.0000,  0.0000,  0.0000)
   3 Pd     1.419544    4.097872   10.000000    ( 0.0000,  0.0000,  0.0000)
   4 Pd     4.258633    4.097872   10.000000    ( 0.0000,  0.0000,  0.0000)
   5 Pt     7.097722    4.097872   10.000000    ( 0.0000,  0.0000,  0.0000)
   6 Pd     2.839089    6.556595   10.000000    ( 0.0000,  0.0000,  0.0000)
   7 Pt     5.678177    6.556595   10.000000    ( 0.0000,  0.0000,  0.0000)
   8 Ru     8.517266    6.556595   10.000000    ( 0.0000,  0.0000,  0.0000)
   9 Pd     0.000000    0.000000   12.317643    ( 0.0000,  0.0000,  0.0000)
  10 Pt     2.839089    0.000000   12.317643    ( 0.0000,  0.0000,  0.0000)
  11 Pd     5.678177    0.000000   12.317643    ( 0.0000,  0.0000,  0.0000)
  12 Pd     1.419544    2.458723   12.317643    ( 0.0000,  0.0000,  0.0000)
  13 Pt     4.258633    2.458723   12.317643    ( 0.0000,  0.0000,  0.0000)
  14 Ag     7.097722    2.458723   12.317643    ( 0.0000,  0.0000,  0.0000)
  15 Ag     2.839089    4.917446   12.317643    ( 0.0000,  0.0000,  0.0000)
  16 Ag     5.678177    4.917446   12.317643    ( 0.0000,  0.0000,  0.0000)
  17 Pt     8.517266    4.917446   12.317643    ( 0.0000,  0.0000,  0.0000)
  18 Pt     1.386550    0.803458   14.574826    ( 0.0000,  0.0000,  0.0000)
  19 Pt     4.320113    0.817228   14.609350    ( 0.0000,  0.0000,  0.0000)
  20 Ru     7.147006    0.912447   14.694734    ( 0.0000,  0.0000,  0.0000)
  21 Pt     2.836045    3.224059   14.671448    ( 0.0000,  0.0000,  0.0000)
  22 Pd     5.676067    3.249110   14.667008    ( 0.0000,  0.0000,  0.0000)
  23 Pt     8.530634    3.276122   14.650613    ( 0.0000,  0.0000,  0.0000)
  24 Ag     4.279364    5.720884   14.644998    ( 0.0000,  0.0000,  0.0000)
  25 Pt     7.164757    5.770936   14.623453    ( 0.0000,  0.0000,  0.0000)
  26 Ag     9.989072    5.740278   14.636322    ( 0.0000,  0.0000,  0.0000)
  27 Pt    -0.023632    1.664890   16.875819    ( 0.0000,  0.0000,  0.0000)
  28 Pd     2.848675    1.594482   16.900175    ( 0.0000,  0.0000,  0.0000)
  29 Pd     5.689128    1.634977   16.941605    ( 0.0000,  0.0000,  0.0000)
  30 Ir     1.438653    4.056161   16.968278    ( 0.0000,  0.0000,  0.0000)
  31 Pt     4.205119    4.041755   16.973782    ( 0.0000,  0.0000,  0.0000)
  32 Pd     7.079426    4.085700   16.932788    ( 0.0000,  0.0000,  0.0000)
  33 Pd     2.839398    6.584013   16.900502    ( 0.0000,  0.0000,  0.0000)
  34 Ag     5.673172    6.517502   16.972157    ( 0.0000,  0.0000,  0.0000)
  35 Pt     8.533292    6.532167   16.940691    ( 0.0000,  0.0000,  0.0000)
  36 Pt    -0.015879    0.035880   19.228571    ( 0.0000,  0.0000,  0.0000)
  37 Pt     2.858395    0.039599   19.262403    ( 0.0000,  0.0000,  0.0000)
  38 Pt     5.645781   -0.031227   19.217486    ( 0.0000,  0.0000,  0.0000)
  39 Pt     1.419530    2.416472   19.158951    ( 0.0000,  0.0000,  0.0000)
  40 Pd     4.234588    2.431758   19.270664    ( 0.0000,  0.0000,  0.0000)
  41 Pd     7.145215    2.446772   19.344617    ( 0.0000,  0.0000,  0.0000)
  42 Pt     2.793365    4.961284   19.157385    ( 0.0000,  0.0000,  0.0000)
  43 Ag     5.675771    4.929854   19.437354    ( 0.0000,  0.0000,  0.0000)
  44 Pt     8.561726    4.940774   19.181907    ( 0.0000,  0.0000,  0.0000)
  45 O      7.094257    2.431953   21.378318    ( 0.0000,  0.0000,  0.0000)
  46 H      7.760225    3.065674   21.756337    ( 0.0000,  0.0000,  0.0000)

Unit cell:
           periodic     x           y           z      points  spacing
  1. axis:    yes    8.517266    0.000000    0.000000    40     0.1844
  2. axis:    yes    4.258633    7.376169    0.000000    40     0.1844
  3. axis:    no     0.000000    0.000000   29.270571   140     0.2091

  Lengths:   8.517266   8.517266  29.270571
  Angles:   90.000000  90.000000  60.000000

Effective grid spacing dv^(1/3) = 0.2017

     iter     time        total  log10-change:
                         energy  eigst   dens
iter:   1 13:38:39  -206.869159  -3.80
iter:   2 13:39:40  -267.800838  -2.58  -2.03
iter:   3 13:40:40  -208.366869  -2.93  -1.38
iter:   4 13:41:41  -204.681592  -3.94  -1.99
iter:   5 13:42:41  -204.495311  -4.79  -2.57
iter:   6 13:43:41  -204.484396c -5.26  -3.10
iter:   7 13:44:42  -204.484762c -5.64  -3.05
iter:   8 13:45:42  -204.467389c -5.77  -3.11
iter:   9 13:46:42  -204.468071c -6.27  -3.49
iter:  10 13:47:42  -204.466557c -6.39  -3.49
iter:  11 13:48:43  -204.468994c -6.16  -3.60
iter:  12 13:49:43  -204.465093c -6.68  -3.41
iter:  13 13:50:43  -204.465184c -6.80  -3.96
iter:  14 13:51:43  -204.465320c -7.26  -3.79
iter:  15 13:52:43  -204.465084c -7.34  -3.84
iter:  16 13:53:43  -204.464622c -7.85c -4.18c

Converged after 16 iterations.

Dipole moment: (27.966270, 12.706351, -0.196142) |e|*Ang

Energy contributions relative to reference atoms: (reference = -14174791.127075)

Kinetic:       -327.136518
Potential:     +181.156369
External:        +0.000000
XC:             -46.187000
Entropy (-ST):   -2.367708
Local:          -11.113620
--------------------------
Free energy:   -205.648476
Extrapolated:  -204.464622

Showing only first 2 kpts
 Kpt  Band  Eigenvalues  Occupancy
  0   364      0.59730    1.07537
  0   365      0.63700    0.87765
  0   366      0.66711    0.73311
  0   367      0.68183    0.66619

  1   364      0.51733    1.44252
  1   365      0.52474    1.41226
  1   366      0.53009    1.38981
  1   367      0.58308    1.14559


Fermi level: 0.61240

No gap

Forces in eV/Ang:
  0 Pd    0.01065   -0.00852   -0.24676
  1 Pt    0.29960   -0.52122    0.38753
  2 Pt   -0.33781   -0.14017    0.03079
  3 Pd   -0.40826    0.17900   -0.07324
  4 Pd    0.21847   -0.22113   -0.23497
  5 Pt    0.22228    0.30897   -0.17939
  6 Pd   -0.21280    0.22761   -0.08463
  7 Pt    0.55527    0.16591    0.09514
  8 Ru   -0.49733    0.06603    1.35412
  9 Pd   -0.22449    0.16205    0.18080
 10 Pt    0.28929   -0.01301   -0.31463
 11 Pd    0.04872    0.04991   -0.08285
 12 Pd    0.07973    0.10315   -0.00462
 13 Pt   -0.18272   -0.16250    0.15398
 14 Ag    0.05556   -0.12304    0.05440
 15 Ag   -0.00349   -0.07114   -0.11959
 16 Ag   -0.05663   -0.06112    0.07471
 17 Pt    0.02867    0.22343   -0.56904
 18 Pt   -0.00867    0.00233    0.02796
 19 Pt    0.02015    0.00550    0.00770
 20 Ru    0.03026   -0.00561    0.02441
 21 Pt    0.01171   -0.00114   -0.01764
 22 Pd    0.02422   -0.02603    0.02228
 23 Pt    0.00548   -0.01943    0.02138
 24 Ag    0.02857   -0.00699   -0.00067
 25 Pt    0.00843   -0.01622    0.00294
 26 Ag    0.00849   -0.00600   -0.03492
 27 Pt   -0.00574    0.00683    0.02598
 28 Pd    0.01697   -0.02960   -0.04246
 29 Pd    0.00932    0.00399    0.04006
 30 Ir    0.00286   -0.00119   -0.04145
 31 Pt    0.01900   -0.01953   -0.00645
 32 Pd   -0.00984   -0.00049    0.02757
 33 Pd    0.01953    0.01045   -0.03966
 34 Ag    0.00979   -0.01644   -0.01278
 35 Pt    0.00779   -0.00661   -0.06299
 36 Pt   -0.01755    0.00398   -0.02302
 37 Pt   -0.00031   -0.01191   -0.02698
 38 Pt   -0.00714    0.00203   -0.03847
 39 Pt    0.05073   -0.00865   -0.01614
 40 Pd    0.00022    0.00106    0.00132
 41 Pd    0.05894   -0.00928    0.21919
 42 Pt   -0.00035    0.00155   -0.01276
 43 Ag   -0.01176   -0.01045    0.05714
 44 Pt   -0.00637   -0.00797   -0.01564
 45 O    -0.05657    0.11663   -0.08755
 46 H    -0.08820   -0.09937   -0.31063

System changes: positions 

Initializing position-dependent things.

Density initialized from wave functions
                                             
                                             
                                             
                                             
                                             
                                             
                            H                
                          O                  
                 Pt     Ag     Pt            
                   Pd     Pd                 
            Pt    Pd     Ag     Pt           
       Pt    IPt    PPt    Pd                
                                             
        Pt     Pd    APd    Pt     Ag        
                Pt     Pd     Pt             
                                             
           Pt    APt    ARu    Pt            
                                             
            Pd    PPt    PAg    Ru           
       Pd     Pt     Pd                      
             Pd     Pd     Pt                
        Pd     Pt     Pt                     
                                             
                                             
                                             
                                             
                                             

Positions:
   0 Pd     0.000000    1.639149   10.000000    ( 0.0000,  0.0000,  0.0000)
   1 Pt     2.839089    1.639149   10.000000    ( 0.0000,  0.0000,  0.0000)
   2 Pt     5.678177    1.639149   10.000000    ( 0.0000,  0.0000,  0.0000)
   3 Pd     1.419544    4.097872   10.000000    ( 0.0000,  0.0000,  0.0000)
   4 Pd     4.258633    4.097872   10.000000    ( 0.0000,  0.0000,  0.0000)
   5 Pt     7.097722    4.097872   10.000000    ( 0.0000,  0.0000,  0.0000)
   6 Pd     2.839089    6.556595   10.000000    ( 0.0000,  0.0000,  0.0000)
   7 Pt     5.678177    6.556595   10.000000    ( 0.0000,  0.0000,  0.0000)
   8 Ru     8.517266    6.556595   10.000000    ( 0.0000,  0.0000,  0.0000)
   9 Pd     0.000000    0.000000   12.317643    ( 0.0000,  0.0000,  0.0000)
  10 Pt     2.839089    0.000000   12.317643    ( 0.0000,  0.0000,  0.0000)
  11 Pd     5.678177    0.000000   12.317643    ( 0.0000,  0.0000,  0.0000)
  12 Pd     1.419544    2.458723   12.317643    ( 0.0000,  0.0000,  0.0000)
  13 Pt     4.258633    2.458723   12.317643    ( 0.0000,  0.0000,  0.0000)
  14 Ag     7.097722    2.458723   12.317643    ( 0.0000,  0.0000,  0.0000)
  15 Ag     2.839089    4.917446   12.317643    ( 0.0000,  0.0000,  0.0000)
  16 Ag     5.678177    4.917446   12.317643    ( 0.0000,  0.0000,  0.0000)
  17 Pt     8.517266    4.917446   12.317643    ( 0.0000,  0.0000,  0.0000)
  18 Pt     1.387353    0.803719   14.575266    ( 0.0000,  0.0000,  0.0000)
  19 Pt     4.320560    0.817561   14.608171    ( 0.0000,  0.0000,  0.0000)
  20 Ru     7.148644    0.910911   14.693220    ( 0.0000,  0.0000,  0.0000)
  21 Pt     2.837577    3.224180   14.670039    ( 0.0000,  0.0000,  0.0000)
  22 Pd     5.677927    3.247400   14.667003    ( 0.0000,  0.0000,  0.0000)
  23 Pt     8.530977    3.274493   14.651027    ( 0.0000,  0.0000,  0.0000)
  24 Ag     4.281288    5.719966   14.644605    ( 0.0000,  0.0000,  0.0000)
  25 Pt     7.165308    5.770269   14.623711    ( 0.0000,  0.0000,  0.0000)
  26 Ag     9.989913    5.740149   14.633615    ( 0.0000,  0.0000,  0.0000)
  27 Pt    -0.026450    1.668363   16.882036    ( 0.0000,  0.0000,  0.0000)
  28 Pd     2.849776    1.592701   16.896834    ( 0.0000,  0.0000,  0.0000)
  29 Pd     5.692489    1.636076   16.948021    ( 0.0000,  0.0000,  0.0000)
  30 Ir     1.440456    4.056945   16.964508    ( 0.0000,  0.0000,  0.0000)
  31 Pt     4.204502    4.040560   16.972732    ( 0.0000,  0.0000,  0.0000)
  32 Pd     7.079207    4.083293   16.936095    ( 0.0000,  0.0000,  0.0000)
  33 Pd     2.840239    6.583458   16.897891    ( 0.0000,  0.0000,  0.0000)
  34 Ag     5.673963    6.515854   16.971886    ( 0.0000,  0.0000,  0.0000)
  35 Pt     8.534971    6.531205   16.935672    ( 0.0000,  0.0000,  0.0000)
  36 Pt    -0.015791    0.032272   19.224829    ( 0.0000,  0.0000,  0.0000)
  37 Pt     2.858540    0.037945   19.259968    ( 0.0000,  0.0000,  0.0000)
  38 Pt     5.642337   -0.035382   19.212368    ( 0.0000,  0.0000,  0.0000)
  39 Pt     1.426543    2.416173   19.155423    ( 0.0000,  0.0000,  0.0000)
  40 Pd     4.230822    2.432324   19.270086    ( 0.0000,  0.0000,  0.0000)
  41 Pd     7.154586    2.452414   19.352216    ( 0.0000,  0.0000,  0.0000)
  42 Pt     2.792949    4.961481   19.155509    ( 0.0000,  0.0000,  0.0000)
  43 Ag     5.674852    4.930556   19.442273    ( 0.0000,  0.0000,  0.0000)
  44 Pt     8.560978    4.942375   19.180294    ( 0.0000,  0.0000,  0.0000)
  45 O      7.080608    2.431654   21.379945    ( 0.0000,  0.0000,  0.0000)
  46 H      7.760259    3.064821   21.732411    ( 0.0000,  0.0000,  0.0000)

Unit cell:
           periodic     x           y           z      points  spacing
  1. axis:    yes    8.517266    0.000000    0.000000    40     0.1844
  2. axis:    yes    4.258633    7.376169    0.000000    40     0.1844
  3. axis:    no     0.000000    0.000000   29.270571   140     0.2091

  Lengths:   8.517266   8.517266  29.270571
  Angles:   90.000000  90.000000  60.000000

Effective grid spacing dv^(1/3) = 0.2017

     iter     time        total  log10-change:
                         energy  eigst   dens
iter:   1 13:55:04  -204.576950  -4.07
iter:   2 13:56:04  -205.628901  -4.18  -2.75
iter:   3 13:57:04  -204.898821  -4.34  -2.16
iter:   4 13:58:05  -204.482407  -4.99  -2.37
iter:   5 13:59:05  -204.478225  -6.35  -3.32
iter:   6 14:00:05  -204.477427c -6.78  -3.43
iter:   7 14:01:06  -204.475788c -6.56  -3.61
iter:   8 14:02:06  -204.476580c -6.56  -3.84
iter:   9 14:03:06  -204.476611c -7.00  -3.68
iter:  10 14:04:07  -204.475977c -7.36  -3.95
iter:  11 14:05:07  -204.476299c -7.30  -3.97
iter:  12 14:06:07  -204.476032c -7.87c -4.15c

Converged after 12 iterations.

Dipole moment: (27.828621, 13.069942, -0.204980) |e|*Ang

Energy contributions relative to reference atoms: (reference = -14174791.127075)

Kinetic:       -328.159126
Potential:     +182.163441
External:        +0.000000
XC:             -46.206881
Entropy (-ST):   -2.366217
Local:          -11.090357
--------------------------
Free energy:   -205.659140
Extrapolated:  -204.476032

Showing only first 2 kpts
 Kpt  Band  Eigenvalues  Occupancy
  0   364      0.59626    1.07047
  0   365      0.63523    0.87636
  0   366      0.66472    0.73477
  0   367      0.68044    0.66334

  1   364      0.51534    1.44238
  1   365      0.52215    1.41458
  1   366      0.52791    1.39044
  1   367      0.58053    1.14814


Fermi level: 0.61037

No gap

Forces in eV/Ang:
  0 Pd    0.01139   -0.00861   -0.24615
  1 Pt    0.29962   -0.52305    0.38925
  2 Pt   -0.33882   -0.14011    0.03194
  3 Pd   -0.40874    0.17894   -0.07477
  4 Pd    0.21870   -0.22219   -0.23415
  5 Pt    0.22253    0.30903   -0.17659
  6 Pd   -0.21239    0.22840   -0.08716
  7 Pt    0.55642    0.16827    0.09877
  8 Ru   -0.49901    0.06918    1.36578
  9 Pd   -0.21969    0.16119    0.18784
 10 Pt    0.28737   -0.01757   -0.31444
 11 Pd    0.05135    0.05448   -0.08128
 12 Pd    0.07873    0.10399   -0.00171
 13 Pt   -0.17859   -0.15999    0.15361
 14 Ag    0.05619   -0.12082    0.05721
 15 Ag    0.00073   -0.07273   -0.12527
 16 Ag   -0.05360   -0.06283    0.07622
 17 Pt    0.02316    0.21779   -0.56507
 18 Pt   -0.02612   -0.00003    0.04804
 19 Pt    0.03206    0.00888    0.02641
 20 Ru    0.03285    0.00702    0.05688
 21 Pt    0.00646   -0.00721   -0.01948
 22 Pd    0.02840   -0.03071    0.03874
 23 Pt   -0.00002   -0.02155    0.02824
 24 Ag    0.03099   -0.00079    0.00199
 25 Pt    0.00323   -0.02358    0.00240
 26 Ag    0.01011   -0.00618   -0.03234
 27 Pt    0.01314   -0.02683   -0.02599
 28 Pd    0.02081   -0.03962   -0.06226
 29 Pd   -0.01242   -0.00211   -0.00991
 30 Ir   -0.01580   -0.01181   -0.03749
 31 Pt    0.04770   -0.01888   -0.00785
 32 Pd   -0.01997    0.01561    0.01530
 33 Pd    0.03036    0.02848   -0.06067
 34 Ag    0.00788   -0.01219   -0.03280
 35 Pt   -0.00778    0.00368   -0.07283
 36 Pt   -0.03043    0.05052    0.00866
 37 Pt   -0.00493   -0.00244   -0.00186
 38 Pt    0.02744    0.05473   -0.00161
 39 Pt    0.00197   -0.01464    0.01518
 40 Pd    0.03963   -0.00954    0.00213
 41 Pd    0.00860   -0.09199    0.09368
 42 Pt    0.00332   -0.00099    0.01384
 43 Ag   -0.01525   -0.01562    0.04301
 44 Pt   -0.00244   -0.03828   -0.00962
 45 O    -0.02247    0.12546   -0.06666
 46 H    -0.08992   -0.10277   -0.22237

System changes: positions 

Initializing position-dependent things.

Density initialized from wave functions
                                             
                                             
                                             
                                             
                                             
                                             
                            H                
                          O                  
                 Pt     Ag     Pt            
                   Pd     Pd                 
            Pt    Pd     Ag     Pt           
       Pt    IPt    PPt    Pd                
                                             
        Pt     Pd    APd    Pt     Ag        
                Pt     Pd     Pt             
                                             
           Pt    APt    ARu    Pt            
                                             
            Pd    PPt    PAg    Ru           
       Pd     Pt     Pd                      
             Pd     Pd     Pt                
        Pd     Pt     Pt                     
                                             
                                             
                                             
                                             
                                             

Positions:
   0 Pd     0.000000    1.639149   10.000000    ( 0.0000,  0.0000,  0.0000)
   1 Pt     2.839089    1.639149   10.000000    ( 0.0000,  0.0000,  0.0000)
   2 Pt     5.678177    1.639149   10.000000    ( 0.0000,  0.0000,  0.0000)
   3 Pd     1.419544    4.097872   10.000000    ( 0.0000,  0.0000,  0.0000)
   4 Pd     4.258633    4.097872   10.000000    ( 0.0000,  0.0000,  0.0000)
   5 Pt     7.097722    4.097872   10.000000    ( 0.0000,  0.0000,  0.0000)
   6 Pd     2.839089    6.556595   10.000000    ( 0.0000,  0.0000,  0.0000)
   7 Pt     5.678177    6.556595   10.000000    ( 0.0000,  0.0000,  0.0000)
   8 Ru     8.517266    6.556595   10.000000    ( 0.0000,  0.0000,  0.0000)
   9 Pd     0.000000    0.000000   12.317643    ( 0.0000,  0.0000,  0.0000)
  10 Pt     2.839089    0.000000   12.317643    ( 0.0000,  0.0000,  0.0000)
  11 Pd     5.678177    0.000000   12.317643    ( 0.0000,  0.0000,  0.0000)
  12 Pd     1.419544    2.458723   12.317643    ( 0.0000,  0.0000,  0.0000)
  13 Pt     4.258633    2.458723   12.317643    ( 0.0000,  0.0000,  0.0000)
  14 Ag     7.097722    2.458723   12.317643    ( 0.0000,  0.0000,  0.0000)
  15 Ag     2.839089    4.917446   12.317643    ( 0.0000,  0.0000,  0.0000)
  16 Ag     5.678177    4.917446   12.317643    ( 0.0000,  0.0000,  0.0000)
  17 Pt     8.517266    4.917446   12.317643    ( 0.0000,  0.0000,  0.0000)
  18 Pt     1.387548    0.803941   14.576633    ( 0.0000,  0.0000,  0.0000)
  19 Pt     4.321613    0.818056   14.607617    ( 0.0000,  0.0000,  0.0000)
  20 Ru     7.150773    0.909647   14.692949    ( 0.0000,  0.0000,  0.0000)
  21 Pt     2.839115    3.224131   14.668343    ( 0.0000,  0.0000,  0.0000)
  22 Pd     5.680210    3.245218   14.667753    ( 0.0000,  0.0000,  0.0000)
  23 Pt     8.531255    3.272558   14.651912    ( 0.0000,  0.0000,  0.0000)
  24 Ag     4.283663    5.719125   14.644278    ( 0.0000,  0.0000,  0.0000)
  25 Pt     7.165834    5.769182   14.623991    ( 0.0000,  0.0000,  0.0000)
  26 Ag     9.990905    5.739927   14.630509    ( 0.0000,  0.0000,  0.0000)
  27 Pt    -0.028819    1.670984   16.887165    ( 0.0000,  0.0000,  0.0000)
  28 Pd     2.851209    1.590244   16.892391    ( 0.0000,  0.0000,  0.0000)
  29 Pd     5.695365    1.637059   16.953615    ( 0.0000,  0.0000,  0.0000)
  30 Ir     1.441781    4.057410   16.960288    ( 0.0000,  0.0000,  0.0000)
  31 Pt     4.204938    4.039122   16.971568    ( 0.0000,  0.0000,  0.0000)
  32 Pd     7.078575    4.081338   16.939448    ( 0.0000,  0.0000,  0.0000)
  33 Pd     2.841649    6.583548   16.894178    ( 0.0000,  0.0000,  0.0000)
  34 Ag     5.674838    6.514106   16.970897    ( 0.0000,  0.0000,  0.0000)
  35 Pt     8.536306    6.530442   16.929533    ( 0.0000,  0.0000,  0.0000)
  36 Pt    -0.016300    0.030019   19.221619    ( 0.0000,  0.0000,  0.0000)
  37 Pt     2.858549    0.036396   19.257837    ( 0.0000,  0.0000,  0.0000)
  38 Pt     5.639766   -0.038021   19.207735    ( 0.0000,  0.0000,  0.0000)
  39 Pt     1.432886    2.415582   19.152507    ( 0.0000,  0.0000,  0.0000)
  40 Pd     4.228177    2.432614   19.269529    ( 0.0000,  0.0000,  0.0000)
  41 Pd     7.163323    2.455624   19.359341    ( 0.0000,  0.0000,  0.0000)
  42 Pt     2.792652    4.961626   19.154174    ( 0.0000,  0.0000,  0.0000)
  43 Ag     5.673678    4.930959   19.447532    ( 0.0000,  0.0000,  0.0000)
  44 Pt     8.560237    4.943028   19.178600    ( 0.0000,  0.0000,  0.0000)
  45 O      7.067059    2.433105   21.380699    ( 0.0000,  0.0000,  0.0000)
  46 H      7.759146    3.062627   21.706758    ( 0.0000,  0.0000,  0.0000)

Unit cell:
           periodic     x           y           z      points  spacing
  1. axis:    yes    8.517266    0.000000    0.000000    40     0.1844
  2. axis:    yes    4.258633    7.376169    0.000000    40     0.1844
  3. axis:    no     0.000000    0.000000   29.270571   140     0.2091

  Lengths:   8.517266   8.517266  29.270571
  Angles:   90.000000  90.000000  60.000000

Effective grid spacing dv^(1/3) = 0.2017

     iter     time        total  log10-change:
                         energy  eigst   dens
iter:   1 14:07:28  -205.774008  -4.03
iter:   2 14:08:28  -244.988826  -2.80  -2.14
iter:   3 14:09:28  -207.004569  -3.13  -1.48
iter:   4 14:10:29  -204.641788  -4.04  -2.08
iter:   5 14:11:29  -204.511801  -5.08  -2.63
iter:   6 14:12:30  -204.487849c -5.54  -3.03
iter:   7 14:13:30  -204.489619c -5.96  -3.49
iter:   8 14:14:30  -204.483908c -6.06  -3.34
iter:   9 14:15:30  -204.483045c -6.23  -3.74
iter:  10 14:16:29  -204.483292c -6.60  -3.89
iter:  11 14:17:29  -204.482782c -6.91  -3.88
iter:  12 14:18:30  -204.483052c -7.17  -3.82
iter:  13 14:19:30  -204.482579c -6.94  -3.99
iter:  14 14:20:30  -204.482662c -7.56c -4.28c

Converged after 14 iterations.

Dipole moment: (27.714831, 13.310101, -0.208891) |e|*Ang

Energy contributions relative to reference atoms: (reference = -14174791.127075)

Kinetic:       -327.373881
Potential:     +181.471254
External:        +0.000000
XC:             -46.305998
Entropy (-ST):   -2.365286
Local:          -11.091394
--------------------------
Free energy:   -205.665305
Extrapolated:  -204.482662

Showing only first 2 kpts
 Kpt  Band  Eigenvalues  Occupancy
  0   364      0.59383    1.06858
  0   365      0.63229    0.87702
  0   366      0.66130    0.73765
  0   367      0.67743    0.66426

  1   364      0.51269    1.44176
  1   365      0.51882    1.41678
  1   366      0.52468    1.39226
  1   367      0.57737    1.14987


Fermi level: 0.60757

No gap

Forces in eV/Ang:
  0 Pd    0.00978   -0.00789   -0.25484
  1 Pt    0.29913   -0.52186    0.37510
  2 Pt   -0.33726   -0.14174    0.01812
  3 Pd   -0.40704    0.18204   -0.08333
  4 Pd    0.21574   -0.22014   -0.24255
  5 Pt    0.22380    0.30797   -0.18808
  6 Pd   -0.21499    0.22569   -0.09524
  7 Pt    0.55579    0.16869    0.08658
  8 Ru   -0.49561    0.06848    1.35103
  9 Pd   -0.22082    0.16039    0.19536
 10 Pt    0.28665   -0.01865   -0.31285
 11 Pd    0.05736    0.05381   -0.08423
 12 Pd    0.07730    0.10346   -0.00093
 13 Pt   -0.17558   -0.15733    0.15352
 14 Ag    0.05851   -0.12309    0.05463
 15 Ag    0.00430   -0.07015   -0.12840
 16 Ag   -0.05561   -0.06498    0.07719
 17 Pt    0.02684    0.21466   -0.56533
 18 Pt   -0.02110   -0.00494    0.02441
 19 Pt    0.03459   -0.00303    0.01571
 20 Ru    0.02406    0.00443    0.04676
 21 Pt    0.00215    0.00615   -0.02086
 22 Pd    0.02052   -0.02224    0.03283
 23 Pt    0.00855   -0.00192    0.02251
 24 Ag    0.01773   -0.00986   -0.01024
 25 Pt    0.01066   -0.02306   -0.01011
 26 Ag    0.01606   -0.01212   -0.03111
 27 Pt    0.04086   -0.03346   -0.02367
 28 Pd    0.01841   -0.02566   -0.03063
 29 Pd   -0.03559   -0.01346   -0.02656
 30 Ir   -0.00587   -0.00847   -0.01596
 31 Pt    0.03096   -0.01176    0.00682
 32 Pd   -0.01296    0.02982    0.02321
 33 Pd    0.01629    0.00616   -0.04160
 34 Ag    0.00647   -0.01154   -0.01295
 35 Pt    0.00136   -0.00412   -0.03824
 36 Pt   -0.02488    0.04477   -0.00167
 37 Pt    0.00124   -0.00712   -0.01829
 38 Pt    0.03128    0.05035   -0.00069
 39 Pt    0.00459   -0.01049   -0.00389
 40 Pd    0.05164   -0.00499   -0.00252
 41 Pd   -0.05323   -0.11879    0.01438
 42 Pt    0.00626   -0.00111   -0.01214
 43 Ag   -0.01321   -0.02106    0.02417
 44 Pt    0.00077   -0.02329   -0.03023
 45 O    -0.08194    0.07830   -0.12200
 46 H    -0.02401   -0.03996   -0.08408

System changes: positions 

Initializing position-dependent things.

Density initialized from wave functions
                                             
                                             
                                             
                                             
                                             
                                             
                            H                
                          O                  
                 Pt     Ag     Pt            
                   Pd     Pd                 
            Pt    Pd     Ag     Pt           
       Pt    IPt    PPt    Pd                
                                             
        Pt     Pd    APd    Pt     Ag        
                Pt     Pd     Pt             
                                             
           Pt    APt    ARu    Pt            
                                             
            Pd    PPt    PAg    Ru           
       Pd     Pt     Pd                      
             Pd     Pd     Pt                
        Pd     Pt     Pt                     
                                             
                                             
                                             
                                             
                                             

Positions:
   0 Pd     0.000000    1.639149   10.000000    ( 0.0000,  0.0000,  0.0000)
   1 Pt     2.839089    1.639149   10.000000    ( 0.0000,  0.0000,  0.0000)
   2 Pt     5.678177    1.639149   10.000000    ( 0.0000,  0.0000,  0.0000)
   3 Pd     1.419544    4.097872   10.000000    ( 0.0000,  0.0000,  0.0000)
   4 Pd     4.258633    4.097872   10.000000    ( 0.0000,  0.0000,  0.0000)
   5 Pt     7.097722    4.097872   10.000000    ( 0.0000,  0.0000,  0.0000)
   6 Pd     2.839089    6.556595   10.000000    ( 0.0000,  0.0000,  0.0000)
   7 Pt     5.678177    6.556595   10.000000    ( 0.0000,  0.0000,  0.0000)
   8 Ru     8.517266    6.556595   10.000000    ( 0.0000,  0.0000,  0.0000)
   9 Pd     0.000000    0.000000   12.317643    ( 0.0000,  0.0000,  0.0000)
  10 Pt     2.839089    0.000000   12.317643    ( 0.0000,  0.0000,  0.0000)
  11 Pd     5.678177    0.000000   12.317643    ( 0.0000,  0.0000,  0.0000)
  12 Pd     1.419544    2.458723   12.317643    ( 0.0000,  0.0000,  0.0000)
  13 Pt     4.258633    2.458723   12.317643    ( 0.0000,  0.0000,  0.0000)
  14 Ag     7.097722    2.458723   12.317643    ( 0.0000,  0.0000,  0.0000)
  15 Ag     2.839089    4.917446   12.317643    ( 0.0000,  0.0000,  0.0000)
  16 Ag     5.678177    4.917446   12.317643    ( 0.0000,  0.0000,  0.0000)
  17 Pt     8.517266    4.917446   12.317643    ( 0.0000,  0.0000,  0.0000)
  18 Pt     1.387402    0.803993   14.577744    ( 0.0000,  0.0000,  0.0000)
  19 Pt     4.322858    0.818253   14.607419    ( 0.0000,  0.0000,  0.0000)
  20 Ru     7.152466    0.908860   14.693400    ( 0.0000,  0.0000,  0.0000)
  21 Pt     2.840139    3.224269   14.666895    ( 0.0000,  0.0000,  0.0000)
  22 Pd     5.682009    3.243492   14.668744    ( 0.0000,  0.0000,  0.0000)
  23 Pt     8.531601    3.271367   14.652852    ( 0.0000,  0.0000,  0.0000)
  24 Ag     4.285413    5.718349   14.643808    ( 0.0000,  0.0000,  0.0000)
  25 Pt     7.166394    5.768107   14.623936    ( 0.0000,  0.0000,  0.0000)
  26 Ag     9.991856    5.739571   14.627977    ( 0.0000,  0.0000,  0.0000)
  27 Pt    -0.029558    1.672193   16.890093    ( 0.0000,  0.0000,  0.0000)
  28 Pd     2.852418    1.588361   16.889236    ( 0.0000,  0.0000,  0.0000)
  29 Pd     5.696537    1.637425   16.956636    ( 0.0000,  0.0000,  0.0000)
  30 Ir     1.442619    4.057615   16.957451    ( 0.0000,  0.0000,  0.0000)
  31 Pt     4.205604    4.038022   16.971007    ( 0.0000,  0.0000,  0.0000)
  32 Pd     7.077996    4.080608   16.941955    ( 0.0000,  0.0000,  0.0000)
  33 Pd     2.842711    6.583546   16.891241    ( 0.0000,  0.0000,  0.0000)
  34 Ag     5.675475    6.512752   16.970214    ( 0.0000,  0.0000,  0.0000)
  35 Pt     8.537341    6.529773   16.925220    ( 0.0000,  0.0000,  0.0000)
  36 Pt    -0.016975    0.029109   19.219412    ( 0.0000,  0.0000,  0.0000)
  37 Pt     2.858636    0.035221   19.256047    ( 0.0000,  0.0000,  0.0000)
  38 Pt     5.638544   -0.039101   19.204644    ( 0.0000,  0.0000,  0.0000)
  39 Pt     1.437227    2.415103   19.150368    ( 0.0000,  0.0000,  0.0000)
  40 Pd     4.227285    2.432763   19.269085    ( 0.0000,  0.0000,  0.0000)
  41 Pd     7.167723    2.455667   19.364895    ( 0.0000,  0.0000,  0.0000)
  42 Pt     2.792521    4.961719   19.152944    ( 0.0000,  0.0000,  0.0000)
  43 Ag     5.672699    4.930880   19.451277    ( 0.0000,  0.0000,  0.0000)
  44 Pt     8.559878    4.943293   19.176790    ( 0.0000,  0.0000,  0.0000)
  45 O      7.056935    2.435409   21.377965    ( 0.0000,  0.0000,  0.0000)
  46 H      7.758110    3.060617   21.689403    ( 0.0000,  0.0000,  0.0000)

Unit cell:
           periodic     x           y           z      points  spacing
  1. axis:    yes    8.517266    0.000000    0.000000    40     0.1844
  2. axis:    yes    4.258633    7.376169    0.000000    40     0.1844
  3. axis:    no     0.000000    0.000000   29.270571   140     0.2091

  Lengths:   8.517266   8.517266  29.270571
  Angles:   90.000000  90.000000  60.000000

Effective grid spacing dv^(1/3) = 0.2017

     iter     time        total  log10-change:
                         energy  eigst   dens
iter:   1 14:21:51  -205.232270  -4.34
iter:   2 14:22:50  -231.216255  -3.05  -2.27
iter:   3 14:23:50  -205.649682  -3.36  -1.56
iter:   4 14:24:50  -204.590407  -4.51  -2.22
iter:   5 14:25:50  -204.494142  -5.29  -2.71
iter:   6 14:26:50  -204.488897c -5.80  -3.40
iter:   7 14:27:51  -204.489166c -6.20  -3.68
iter:   8 14:28:51  -204.486862c -6.41  -3.56
iter:   9 14:29:52  -204.485888c -6.53  -3.92
iter:  10 14:30:52  -204.486237c -6.89  -3.91
iter:  11 14:31:52  -204.486054c -7.15  -4.05c
iter:  12 14:32:52  -204.485892c -7.49c -3.92
iter:  13 14:33:52  -204.485595c -7.73c -4.27c

Converged after 13 iterations.

Dipole moment: (27.645645, 13.409893, -0.208996) |e|*Ang

Energy contributions relative to reference atoms: (reference = -14174791.127075)

Kinetic:       -326.663244
Potential:     +180.856596
External:        +0.000000
XC:             -46.405094
Entropy (-ST):   -2.364604
Local:          -11.091551
--------------------------
Free energy:   -205.667897
Extrapolated:  -204.485595

Showing only first 2 kpts
 Kpt  Band  Eigenvalues  Occupancy
  0   364      0.59404    1.06805
  0   365      0.63252    0.87639
  0   366      0.66117    0.73871
  0   367      0.67738    0.66489

  1   364      0.51284    1.44156
  1   365      0.51841    1.41886
  1   366      0.52428    1.39434
  1   367      0.57735    1.15046


Fermi level: 0.60767

No gap

Forces in eV/Ang:
  0 Pd    0.01147   -0.00783   -0.25259
  1 Pt    0.29662   -0.52138    0.37933
  2 Pt   -0.33732   -0.13870    0.02300
  3 Pd   -0.40834    0.17769   -0.08189
  4 Pd    0.21820   -0.22150   -0.24135
  5 Pt    0.22225    0.30782   -0.18466
  6 Pd   -0.21219    0.22737   -0.09357
  7 Pt    0.55619    0.16914    0.09049
  8 Ru   -0.49877    0.06868    1.35216
  9 Pd   -0.21479    0.16521    0.18963
 10 Pt    0.28727   -0.01726   -0.31682
 11 Pd    0.05368    0.06130   -0.09596
 12 Pd    0.07743    0.09700   -0.00590
 13 Pt   -0.17286   -0.16404    0.14624
 14 Ag    0.05912   -0.12249    0.05200
 15 Ag    0.00734   -0.07195   -0.14246
 16 Ag   -0.04910   -0.06716    0.07057
 17 Pt    0.01900    0.21198   -0.57661
 18 Pt   -0.01030   -0.00757    0.00716
 19 Pt    0.02483   -0.00324    0.00246
 20 Ru    0.01915    0.01439    0.03953
 21 Pt    0.00188   -0.00689   -0.01868
 22 Pd    0.01645   -0.01641    0.02510
 23 Pt    0.00549    0.00287    0.01454
 24 Ag    0.01876   -0.01146   -0.01213
 25 Pt    0.00817   -0.01819   -0.01892
 26 Ag    0.01353   -0.01218   -0.02720
 27 Pt    0.04808   -0.03671   -0.03234
 28 Pd    0.01559   -0.01719   -0.02130
 29 Pd   -0.03993   -0.01580   -0.04691
 30 Ir   -0.00633   -0.01210   -0.00464
 31 Pt    0.02557   -0.00792    0.00583
 32 Pd   -0.00738    0.03163    0.01531
 33 Pd    0.01259    0.00029   -0.02850
 34 Ag    0.00623   -0.00960   -0.00929
 35 Pt   -0.00212   -0.00631   -0.01990
 36 Pt   -0.01849    0.04810    0.02224
 37 Pt    0.00163   -0.00588   -0.00445
 38 Pt    0.03905    0.04661    0.02563
 39 Pt   -0.01309   -0.00673    0.01411
 40 Pd    0.05309   -0.01112    0.01064
 41 Pd   -0.07357   -0.13517   -0.10095
 42 Pt    0.00143    0.00093   -0.00311
 43 Ag   -0.01107   -0.01449    0.02146
 44 Pt    0.01028   -0.02292   -0.01704
 45 O    -0.07707    0.08453   -0.09902
 46 H     0.00439   -0.01429   -0.02234

System changes: positions 

Initializing position-dependent things.

Density initialized from wave functions
                                             
                                             
                                             
                                             
                                             
                                             
                            H                
                          O                  
                 Pt     Ag     Pt            
                   Pd    APd                 
            Pt    Pd            Pt           
       Pt    IPt    PPt    Pd                
                                             
        Pt     Pd    APd    Pt     Ag        
                Pt     Pd     Pt             
                                             
           Pt    APt    ARu    Pt            
                                             
            Pd    PPt    PAg    Ru           
       Pd     Pt     Pd                      
[...]
  20 Ru     7.175555    0.895211   14.679707    ( 0.0000,  0.0000,  0.0000)
  21 Pt     2.856280    3.209349   14.662439    ( 0.0000,  0.0000,  0.0000)
  22 Pd     5.698053    3.232199   14.659877    ( 0.0000,  0.0000,  0.0000)
  23 Pt     8.548884    3.263504   14.649213    ( 0.0000,  0.0000,  0.0000)
  24 Ag     4.302715    5.701601   14.642203    ( 0.0000,  0.0000,  0.0000)
  25 Pt     7.182403    5.752326   14.623989    ( 0.0000,  0.0000,  0.0000)
  26 Ag    10.012532    5.728510   14.623410    ( 0.0000,  0.0000,  0.0000)
  27 Pt    -0.009655    1.646440   16.872900    ( 0.0000,  0.0000,  0.0000)
  28 Pd     2.865471    1.566634   16.881227    ( 0.0000,  0.0000,  0.0000)
  29 Pd     5.702504    1.602989   16.913757    ( 0.0000,  0.0000,  0.0000)
  30 Ir     1.461791    4.039256   16.945148    ( 0.0000,  0.0000,  0.0000)
  31 Pt     4.227709    4.018683   16.971994    ( 0.0000,  0.0000,  0.0000)
  32 Pd     7.087736    4.064300   16.929960    ( 0.0000,  0.0000,  0.0000)
  33 Pd     2.864843    6.570530   16.888172    ( 0.0000,  0.0000,  0.0000)
  34 Ag     5.690315    6.489863   16.970954    ( 0.0000,  0.0000,  0.0000)
  35 Pt     8.553198    6.508526   16.917552    ( 0.0000,  0.0000,  0.0000)
  36 Pt     0.006998    0.014861   19.223241    ( 0.0000,  0.0000,  0.0000)
  37 Pt     2.871787    0.017167   19.243477    ( 0.0000,  0.0000,  0.0000)
  38 Pt     5.656488   -0.055746   19.199184    ( 0.0000,  0.0000,  0.0000)
  39 Pt     1.432248    2.399841   19.140620    ( 0.0000,  0.0000,  0.0000)
  40 Pd     4.230395    2.406611   19.242336    ( 0.0000,  0.0000,  0.0000)
  41 Pd     7.137170    2.402035   19.276769    ( 0.0000,  0.0000,  0.0000)
  42 Pt     2.811764    4.946517   19.144391    ( 0.0000,  0.0000,  0.0000)
  43 Ag     5.688925    4.912826   19.482015    ( 0.0000,  0.0000,  0.0000)
  44 Pt     8.577630    4.913849   19.156670    ( 0.0000,  0.0000,  0.0000)
  45 O      6.841146    2.674281   21.265595    ( 0.0000,  0.0000,  0.0000)
  46 H      7.719001    2.985284   21.592269    ( 0.0000,  0.0000,  0.0000)

Unit cell:
           periodic     x           y           z      points  spacing
  1. axis:    yes    8.517266    0.000000    0.000000    40     0.1844
  2. axis:    yes    4.258633    7.376169    0.000000    40     0.1844
  3. axis:    no     0.000000    0.000000   29.270571   140     0.2091

  Lengths:   8.517266   8.517266  29.270571
  Angles:   90.000000  90.000000  60.000000

Effective grid spacing dv^(1/3) = 0.2017

     iter     time        total  log10-change:
                         energy  eigst   dens
iter:   1 18:06:41  -207.118180  -4.07
iter:   2 18:07:42  -276.965447  -2.54  -2.03
iter:   3 18:08:43  -208.680922  -2.89  -1.34
iter:   4 18:09:43  -205.035180  -3.91  -1.97
iter:   5 18:10:44  -204.664515  -4.82  -2.41
iter:   6 18:11:45  -204.552871  -5.04  -2.69
iter:   7 18:12:46  -204.549507c -5.61  -3.27
iter:   8 18:13:47  -204.542347c -5.80  -3.45
iter:   9 18:14:48  -204.543058c -6.24  -3.53
iter:  10 18:15:49  -204.543019c -6.60  -3.66
iter:  11 18:16:50  -204.542258c -6.49  -3.68
iter:  12 18:17:52  -204.541079c -6.80  -3.70
iter:  13 18:18:54  -204.541072c -7.22  -4.13c
iter:  14 18:19:56  -204.540541c -7.31  -3.98
iter:  15 18:20:57  -204.540857c -7.84c -4.28c

Converged after 15 iterations.

Dipole moment: (27.911119, 13.841842, -0.177228) |e|*Ang

Energy contributions relative to reference atoms: (reference = -14174791.127075)

Kinetic:       -321.624081
Potential:     +176.585367
External:        +0.000000
XC:             -47.223534
Entropy (-ST):   -2.353045
Local:          -11.102087
--------------------------
Free energy:   -205.717379
Extrapolated:  -204.540857

Showing only first 2 kpts
 Kpt  Band  Eigenvalues  Occupancy
  0   364      0.60157    1.09867
  0   365      0.64742    0.87047
  0   366      0.67615    0.73275
  0   367      0.69120    0.66435

  1   364      0.52791    1.43603
  1   365      0.53111    1.42295
  1   366      0.53740    1.39681
  1   367      0.59343    1.13878


Fermi level: 0.62137

No gap

Forces in eV/Ang:
  0 Pd    0.01048   -0.00553   -0.25658
  1 Pt    0.29439   -0.52527    0.36858
  2 Pt   -0.33954   -0.14729    0.01130
  3 Pd   -0.41323    0.18791   -0.09044
  4 Pd    0.21540   -0.21964   -0.24502
  5 Pt    0.22590    0.31357   -0.19269
  6 Pd   -0.22354    0.22764   -0.10054
  7 Pt    0.56315    0.16992    0.07522
  8 Ru   -0.50027    0.06617    1.34022
  9 Pd   -0.20776    0.14713    0.18777
 10 Pt    0.32098   -0.04885   -0.34226
 11 Pd    0.08384    0.04348   -0.13931
 12 Pd    0.08996    0.07934   -0.01821
 13 Pt   -0.15416   -0.18002    0.11735
 14 Ag    0.07936   -0.12984    0.01887
 15 Ag    0.02616   -0.08187   -0.17024
 16 Ag   -0.03360   -0.07218    0.04098
 17 Pt    0.04374    0.19923   -0.60369
 18 Pt    0.00190    0.00308   -0.00838
 19 Pt   -0.01351   -0.00214   -0.01562
 20 Ru   -0.00765   -0.00209    0.01747
 21 Pt   -0.00939    0.00834    0.00123
 22 Pd   -0.00171   -0.01519    0.01501
 23 Pt   -0.00498   -0.01126    0.00223
 24 Ag    0.00102    0.00046   -0.00643
 25 Pt   -0.01210   -0.00090   -0.03335
 26 Ag   -0.01463    0.00729   -0.01121
 27 Pt   -0.00051    0.01547    0.00830
 28 Pd   -0.00528   -0.00087   -0.04329
 29 Pd   -0.00481    0.01706    0.00055
 30 Ir    0.00248   -0.00718    0.00269
 31 Pt    0.00393   -0.00767   -0.03992
 32 Pd    0.01023    0.00382   -0.01874
 33 Pd   -0.00593   -0.03530   -0.02981
 34 Ag    0.00985   -0.01385    0.00184
 35 Pt    0.00565   -0.00947   -0.00880
 36 Pt   -0.01362   -0.01639   -0.04982
 37 Pt   -0.01682   -0.03187   -0.00516
 38 Pt   -0.01310   -0.01284   -0.04446
 39 Pt    0.03712   -0.02395   -0.03594
 40 Pd    0.03729    0.01181   -0.00259
 41 Pd   -0.00315    0.02778    0.03677
 42 Pt   -0.01436   -0.00920   -0.03348
 43 Ag    0.00156   -0.03777   -0.00310
 44 Pt    0.01723    0.00454   -0.02114
 45 O    -0.14730    0.04478   -0.01207
 46 H     0.08989    0.05373    0.08229

System changes: positions 

Initializing position-dependent things.

Density initialized from wave functions
                                             
                                             
                                             
                                             
                                             
                                             
                            H                
                        AgO                  
                 Pt            Pt            
            Pt     Pd    APd    Pt           
                                             
       Pt    IPt    PPt    Pd                
                                             
        Pt     Pd    APd    Pt     Ag        
                Pt     Pd     Pt             
                                             
           Pt    APt    ARu    Pt            
                                             
            Pd    PPt    PAg    Ru           
       Pd     Pt     Pd                      
             Pd     Pd     Pt                
        Pd     Pt     Pt                     
                                             
                                             
                                             
                                             
                                             

Positions:
   0 Pd     0.000000    1.639149   10.000000    ( 0.0000,  0.0000,  0.0000)
   1 Pt     2.839089    1.639149   10.000000    ( 0.0000,  0.0000,  0.0000)
   2 Pt     5.678177    1.639149   10.000000    ( 0.0000,  0.0000,  0.0000)
   3 Pd     1.419544    4.097872   10.000000    ( 0.0000,  0.0000,  0.0000)
   4 Pd     4.258633    4.097872   10.000000    ( 0.0000,  0.0000,  0.0000)
   5 Pt     7.097722    4.097872   10.000000    ( 0.0000,  0.0000,  0.0000)
   6 Pd     2.839089    6.556595   10.000000    ( 0.0000,  0.0000,  0.0000)
   7 Pt     5.678177    6.556595   10.000000    ( 0.0000,  0.0000,  0.0000)
   8 Ru     8.517266    6.556595   10.000000    ( 0.0000,  0.0000,  0.0000)
   9 Pd     0.000000    0.000000   12.317643    ( 0.0000,  0.0000,  0.0000)
  10 Pt     2.839089    0.000000   12.317643    ( 0.0000,  0.0000,  0.0000)
  11 Pd     5.678177    0.000000   12.317643    ( 0.0000,  0.0000,  0.0000)
  12 Pd     1.419544    2.458723   12.317643    ( 0.0000,  0.0000,  0.0000)
  13 Pt     4.258633    2.458723   12.317643    ( 0.0000,  0.0000,  0.0000)
  14 Ag     7.097722    2.458723   12.317643    ( 0.0000,  0.0000,  0.0000)
  15 Ag     2.839089    4.917446   12.317643    ( 0.0000,  0.0000,  0.0000)
  16 Ag     5.678177    4.917446   12.317643    ( 0.0000,  0.0000,  0.0000)
  17 Pt     8.517266    4.917446   12.317643    ( 0.0000,  0.0000,  0.0000)
  18 Pt     1.400883    0.786823   14.572901    ( 0.0000,  0.0000,  0.0000)
  19 Pt     4.333721    0.802611   14.597818    ( 0.0000,  0.0000,  0.0000)
  20 Ru     7.176717    0.894120   14.679007    ( 0.0000,  0.0000,  0.0000)
  21 Pt     2.857051    3.209174   14.661918    ( 0.0000,  0.0000,  0.0000)
  22 Pd     5.699083    3.230273   14.659395    ( 0.0000,  0.0000,  0.0000)
  23 Pt     8.549693    3.261939   14.648842    ( 0.0000,  0.0000,  0.0000)
  24 Ag     4.303798    5.700889   14.642095    ( 0.0000,  0.0000,  0.0000)
  25 Pt     7.182808    5.751162   14.622681    ( 0.0000,  0.0000,  0.0000)
  26 Ag    10.013158    5.728128   14.622671    ( 0.0000,  0.0000,  0.0000)
  27 Pt    -0.009325    1.645970   16.872608    ( 0.0000,  0.0000,  0.0000)
  28 Pd     2.866021    1.564591   16.878844    ( 0.0000,  0.0000,  0.0000)
  29 Pd     5.703223    1.601652   16.912191    ( 0.0000,  0.0000,  0.0000)
  30 Ir     1.463062    4.038024   16.944113    ( 0.0000,  0.0000,  0.0000)
  31 Pt     4.229701    4.017176   16.970856    ( 0.0000,  0.0000,  0.0000)
  32 Pd     7.088692    4.063034   16.928329    ( 0.0000,  0.0000,  0.0000)
  33 Pd     2.866587    6.568292   16.887265    ( 0.0000,  0.0000,  0.0000)
  34 Ag     5.692004    6.487382   16.971120    ( 0.0000,  0.0000,  0.0000)
  35 Pt     8.554261    6.506876   16.916407    ( 0.0000,  0.0000,  0.0000)
  36 Pt     0.007123    0.013250   19.222183    ( 0.0000,  0.0000,  0.0000)
  37 Pt     2.872080    0.014174   19.243241    ( 0.0000,  0.0000,  0.0000)
  38 Pt     5.656788   -0.057159   19.197497    ( 0.0000,  0.0000,  0.0000)
  39 Pt     1.433920    2.397863   19.139264    ( 0.0000,  0.0000,  0.0000)
  40 Pd     4.230450    2.405270   19.239550    ( 0.0000,  0.0000,  0.0000)
  41 Pd     7.138073    2.399776   19.277270    ( 0.0000,  0.0000,  0.0000)
  42 Pt     2.813086    4.944649   19.143177    ( 0.0000,  0.0000,  0.0000)
  43 Ag     5.689994    4.911088   19.483290    ( 0.0000,  0.0000,  0.0000)
  44 Pt     8.579340    4.912500   19.154665    ( 0.0000,  0.0000,  0.0000)
  45 O      6.825830    2.690768   21.257945    ( 0.0000,  0.0000,  0.0000)
  46 H      7.714632    2.979598   21.583848    ( 0.0000,  0.0000,  0.0000)

Unit cell:
           periodic     x           y           z      points  spacing
  1. axis:    yes    8.517266    0.000000    0.000000    40     0.1844
  2. axis:    yes    4.258633    7.376169    0.000000    40     0.1844
  3. axis:    no     0.000000    0.000000   29.270571   140     0.2091

  Lengths:   8.517266   8.517266  29.270571
  Angles:   90.000000  90.000000  60.000000

Effective grid spacing dv^(1/3) = 0.2017

     iter     time        total  log10-change:
                         energy  eigst   dens
iter:   1 18:22:20  -205.409621  -4.37
iter:   2 18:23:21  -236.500175  -2.97  -2.23
iter:   3 18:24:22  -206.041046  -3.29  -1.51
iter:   4 18:25:23  -204.698406  -4.34  -2.17
iter:   5 18:26:24  -204.621372  -5.33  -2.66
iter:   6 18:27:25  -204.546444c -5.44  -2.78
iter:   7 18:28:26  -204.545913c -6.09  -3.66
iter:   8 18:29:27  -204.543526c -6.36  -3.71
iter:   9 18:30:29  -204.543943c -6.69  -3.82
iter:  10 18:31:31  -204.543498c -6.73  -3.84
iter:  11 18:32:33  -204.543419c -7.06  -3.80
iter:  12 18:33:35  -204.542552c -7.26  -3.83
iter:  13 18:34:37  -204.542867c -7.66c -4.20c

Converged after 13 iterations.

Dipole moment: (27.870794, 13.973296, -0.179317) |e|*Ang

Energy contributions relative to reference atoms: (reference = -14174791.127075)

Kinetic:       -322.172058
Potential:     +177.127685
External:        +0.000000
XC:             -47.224467
Entropy (-ST):   -2.352473
Local:          -11.097791
--------------------------
Free energy:   -205.719104
Extrapolated:  -204.542867

Showing only first 2 kpts
 Kpt  Band  Eigenvalues  Occupancy
  0   364      0.60162    1.10149
  0   365      0.64791    0.87114
  0   366      0.67622    0.73532
  0   367      0.69191    0.66400

  1   364      0.52909    1.43375
  1   365      0.53147    1.42405
  1   366      0.53839    1.39524
  1   367      0.59361    1.14097


Fermi level: 0.62199

No gap

Forces in eV/Ang:
  0 Pd    0.01019   -0.00617   -0.25510
  1 Pt    0.29409   -0.52633    0.36944
  2 Pt   -0.33981   -0.14777    0.01231
  3 Pd   -0.41431    0.18949   -0.08882
  4 Pd    0.21748   -0.21938   -0.24201
  5 Pt    0.22545    0.31556   -0.19084
  6 Pd   -0.22393    0.22795   -0.10049
  7 Pt    0.56480    0.16893    0.07611
  8 Ru   -0.50109    0.06654    1.34525
  9 Pd   -0.20484    0.14210    0.18581
 10 Pt    0.31955   -0.05175   -0.34247
 11 Pd    0.08540    0.04061   -0.13770
 12 Pd    0.09305    0.08029   -0.01701
 13 Pt   -0.15243   -0.17787    0.11584
 14 Ag    0.07794   -0.12749    0.01715
 15 Ag    0.02793   -0.08168   -0.16878
 16 Ag   -0.03469   -0.07411    0.04008
 17 Pt    0.04559    0.19604   -0.60211
 18 Pt    0.00161   -0.00129    0.00237
 19 Pt   -0.01198   -0.00719   -0.00204
 20 Ru   -0.01627    0.00051    0.03405
 21 Pt   -0.01172    0.01049    0.00833
 22 Pd   -0.00334   -0.00351    0.02457
 23 Pt   -0.00769    0.00495    0.01586
 24 Ag   -0.00146   -0.00070   -0.00331
 25 Pt   -0.00930    0.00224   -0.01774
 26 Ag   -0.01622    0.00472   -0.00240
 27 Pt   -0.00268    0.01276    0.03323
 28 Pd   -0.00280    0.00313   -0.01804
 29 Pd   -0.00355    0.01768    0.02689
 30 Ir    0.00150    0.00094    0.01484
 31 Pt   -0.01548    0.00062   -0.02982
 32 Pd    0.01880    0.00283    0.00207
 33 Pd   -0.01906   -0.02679   -0.02278
 34 Ag    0.00547   -0.00112    0.00299
 35 Pt    0.00104   -0.00240   -0.00322
 36 Pt   -0.02908    0.01304    0.00557
 37 Pt   -0.00569    0.00064    0.01765
 38 Pt   -0.00163    0.00524    0.01046
 39 Pt    0.02072   -0.02657    0.01696
 40 Pd    0.02045   -0.01935    0.02553
 41 Pd    0.01725   -0.01917    0.00979
 42 Pt   -0.03577    0.00007   -0.01013
 43 Ag   -0.00458   -0.01663    0.00187
 44 Pt    0.03470    0.00027    0.01790
 45 O     0.00358    0.05793    0.06624
 46 H    -0.03223    0.00072    0.05311

Timing:                                      incl.     excl.
-------------------------------------------------------------------
Density initialized from wave functions:    68.454    68.453   0.3% |
 Symmetrize density:                         0.001     0.001   0.0% |
Forces:                                    328.923   328.923   1.4% ||
Hamiltonian:                                37.873     0.196   0.0% |
 Atomic:                                     3.552     1.804   0.0% |
  XC Correction:                             1.748     1.748   0.0% |
 Calculate atomic Hamiltonians:             25.269    25.269   0.1% |
 Communicate:                                2.979     2.979   0.0% |
 Initialize Hamiltonian:                     0.001     0.001   0.0% |
 Poisson:                                    0.133     0.133   0.0% |
 XC 3D grid:                                 5.742     5.742   0.0% |
LCAO initialization:                       128.665     2.820   0.0% |
 LCAO eigensolver:                          14.127     0.001   0.0% |
  Blacs Orbital Layouts:                     0.283     0.000   0.0% |
   General diagonalize:                      0.278     0.278   0.0% |
   Redistribute coefs:                       0.003     0.003   0.0% |
   Send coefs to domains:                    0.002     0.002   0.0% |
  Calculate projections:                     0.003     0.003   0.0% |
  Distribute overlap matrix:                13.069     0.000   0.0% |
   Scalapack redistribute:                   0.008     0.008   0.0% |
   blocked summation:                       13.060    13.060   0.1% |
  Potential matrix:                          0.729     0.729   0.0% |
  SparseAtomicCorrection:                    0.005     0.005   0.0% |
  Sum over cells:                            0.037     0.037   0.0% |
 LCAO to grid:                             108.264   108.264   0.5% |
 Set positions (LCAO WFS):                   3.454     0.005   0.0% |
  Basic WFS set positions:                   0.003     0.003   0.0% |
  Basis functions set positions:             0.000     0.000   0.0% |
  P tci:                                     0.000     0.000   0.0% |
  ST tci:                                    0.287     0.287   0.0% |
  Scalapack redistribute:                    0.007     0.007   0.0% |
  blocked summation:                         3.030     3.030   0.0% |
  mktci:                                     0.121     0.121   0.0% |
PWDescriptor:                                0.559     0.559   0.0% |
Redistribute:                                0.024     0.024   0.0% |
SCF-cycle:                               22088.018   652.663   2.9% ||
 Davidson:                               19851.582  4568.751  20.1% |-------|
  Apply H:                                2075.615  2047.449   9.0% |---|
   HMM T:                                   28.166    28.166   0.1% |
  Subspace diag:                          2285.483     0.076   0.0% |
   calc_h_matrix:                         1489.275   429.912   1.9% ||
    Apply H:                              1059.363  1044.404   4.6% |-|
     HMM T:                                 14.958    14.958   0.1% |
   diagonalize:                             87.292    87.292   0.4% |
   rotate_psi:                             708.841   708.841   3.1% ||
  calc. matrices:                         7597.411  4546.254  20.0% |-------|
   Apply H:                               3051.157  3008.959  13.2% |----|
    HMM T:                                  42.197    42.197   0.2% |
  diagonalize:                            1112.038  1112.038   4.9% |-|
  rotate_psi:                             2212.283  2212.283   9.7% |---|
 Density:                                  979.152     0.014   0.0% |
  Atomic density matrices:                   6.533     6.533   0.0% |
  Mix:                                     384.731   384.731   1.7% ||
  Multipole moments:                         0.573     0.573   0.0% |
  Pseudo density:                          587.301   587.285   2.6% ||
   Symmetrize density:                       0.016     0.016   0.0% |
 Hamiltonian:                              512.848     2.733   0.0% |
  Atomic:                                   55.872    31.920   0.1% |
   XC Correction:                           23.952    23.952   0.1% |
  Calculate atomic Hamiltonians:           344.605   344.605   1.5% ||
  Communicate:                              30.244    30.244   0.1% |
  Poisson:                                   1.838     1.838   0.0% |
  XC 3D grid:                               77.556    77.556   0.3% |
 Orthonormalize:                            91.772     0.009   0.0% |
  calc_s_matrix:                            14.606    14.606   0.1% |
  inverse-cholesky:                          4.924     4.924   0.0% |
  projections:                              47.791    47.791   0.2% |
  rotate_psi_s:                             24.442    24.442   0.1% |
Set symmetry:                                0.003     0.003   0.0% |
Other:                                     109.267   109.267   0.5% |
-------------------------------------------------------------------
Total:                                             22761.784 100.0%

Memory usage: 866.46 MiB
Date: Fri Jun 14 18:34:51 2024
