
  ___ ___ ___ _ _ _  
 |   |   |_  | | | | 
 | | | | | . | | | | 
 |__ |  _|___|_____|  22.1.0
 |___|_|             

User:   clausen@node429.cluster
Date:   Fri Jun 14 14:00:02 2024
Arch:   x86_64
Pid:    83116
Python: 3.10.4
gpaw:   /groups/kemi/clausen/miniconda3/envs/gpaw22/lib/python3.10/site-packages/gpaw
_gpaw:  /groups/kemi/clausen/miniconda3/envs/gpaw22/lib/python3.10/site-packages/
        _gpaw.cpython-310-x86_64-linux-gnu.so
ase:    /groups/kemi/clausen/miniconda3/envs/gpaw22/lib/python3.10/site-packages/ase (version 3.22.1)
numpy:  /groups/kemi/clausen/miniconda3/envs/gpaw22/lib/python3.10/site-packages/numpy (version 1.23.1)
scipy:  /groups/kemi/clausen/miniconda3/envs/gpaw22/lib/python3.10/site-packages/scipy (version 1.8.1)
libxc:  5.2.3
units:  Angstrom and eV
cores: 24
OpenMP: True
OMP_NUM_THREADS: 1

Input parameters:
  eigensolver: {name: dav,
                niter: 3}
  kpts: [4 4 1]
  mode: {ecut: 400.0,
         name: pw}
  xc: RPBE

System changes: positions, numbers, cell, pbc, initial_charges, initial_magmoms 

Initialize ...

Pd-setup:
  name: Palladium
  id: 6da19bfba079f22767af9506641940b9
  Z: 46.0
  valence: 16
  core: 30
  charge: 0.0
  file: /groups/kemi/clausen/miniconda3/envs/gpaw22/share/gpaw/Pd.RPBE.gz
  compensation charges: gauss, rc=0.38, lmax=2
  cutoffs: 2.38(filt), 2.28(core),
  valence states:
                energy  radius
    5s(0.00)    -3.225   1.228
    4p(6.00)   -51.131   1.360
    5p(0.00)    -0.373   1.360
    4d(10.00)    -3.964   1.228
    *s          23.987   1.228
    *d          23.247   1.228

  Using partial waves for Pd as LCAO basis

Pt-setup:
  name: Platinum
  id: f04f522592575c47ad794f6b4a415b4b
  Z: 78.0
  valence: 16
  core: 62
  charge: 0.0
  file: /groups/kemi/clausen/miniconda3/envs/gpaw22/share/gpaw/Pt.RPBE.gz
  compensation charges: gauss, rc=0.41, lmax=2
  cutoffs: 2.26(filt), 2.26(core),
  valence states:
                energy  radius
    6s(1.00)    -5.516   1.307
    5p(6.00)   -55.971   1.371
    6p(0.00)    -0.856   1.371
    5d(9.00)    -6.087   1.307
    *s          21.695   1.307
    *d          21.125   1.307

  Using partial waves for Pt as LCAO basis

Ag-setup:
  name: Silver
  id: c05e55bab2c3858b3f9398f6d75cb77c
  Z: 47.0
  valence: 17
  core: 30
  charge: 0.0
  file: /groups/kemi/clausen/miniconda3/envs/gpaw22/share/gpaw/Ag.RPBE.gz
  compensation charges: gauss, rc=0.40, lmax=2
  cutoffs: 2.35(filt), 2.19(core),
  valence states:
                energy  radius
    5s(1.00)    -4.277   1.286
    4p(6.00)   -58.523   1.328
    5p(0.00)    -0.755   1.328
    4d(10.00)    -7.386   1.180
    *s          22.934   1.286
    *d          19.826   1.180

  Using partial waves for Ag as LCAO basis

Ir-setup:
  name: Iridium
  id: 73b603359d1d5397a85ae3c2440f9033
  Z: 77.0
  valence: 15
  core: 62
  charge: 0.0
  file: /groups/kemi/clausen/miniconda3/envs/gpaw22/share/gpaw/Ir.RPBE.gz
  compensation charges: gauss, rc=0.40, lmax=2
  cutoffs: 2.40(filt), 2.36(core),
  valence states:
                energy  radius
    6s(2.00)    -6.219   1.296
    5p(6.00)   -54.684   1.328
    6p(0.00)    -1.215   1.328
    5d(7.00)    -7.118   1.286
    *s          20.992   1.296
    *d          20.093   1.286

  Using partial waves for Ir as LCAO basis

Ru-setup:
  name: Ruthenium
  id: 76477906e28f51dc1b29884d53556fe9
  Z: 44.0
  valence: 16
  core: 28
  charge: 0.0
  file: /groups/kemi/clausen/miniconda3/envs/gpaw22/share/gpaw/Ru.RPBE.gz
  compensation charges: gauss, rc=0.39, lmax=2
  cutoffs: 2.16(filt), 1.30(core),
  valence states:
                energy  radius
    4s(2.00)   -76.255   1.281
    5s(1.00)    -4.126   1.281
    4p(6.00)   -46.371   1.286
    5p(0.00)    -0.913   1.286
    4d(7.00)    -5.146   1.254
    *d          22.066   1.254

  Using partial waves for Ru as LCAO basis

O-setup:
  name: Oxygen
  id: 08071ca1eed670e7821b24b7eb4d558c
  Z: 8.0
  valence: 6
  core: 2
  charge: 0.0
  file: /groups/kemi/clausen/miniconda3/envs/gpaw22/share/gpaw/O.RPBE.gz
  compensation charges: gauss, rc=0.21, lmax=2
  cutoffs: 1.17(filt), 0.83(core),
  valence states:
                energy  radius
    2s(2.00)   -24.041   0.688
    2p(4.00)    -8.984   0.598
    *s           3.170   0.688
    *p          18.228   0.598
    *d           0.000   0.619

  Using partial waves for O as LCAO basis

Reference energy: -12373358.334139

Spin-paired calculation

Convergence criteria:
 Maximum [total energy] change in last 3 cyles: 0.0005 eV / electron
 Maximum integral of absolute [dens]ity change: 0.0001 electrons / valence electron
 Maximum integral of absolute [eigenst]ate change: 4e-08 eV^2 / valence electron
 Maximum number of scf [iter]ations: 333
 (Square brackets indicate name in SCF output, whereas a 'c' in
 the SCF output indicates the quantity has converged.)

Symmetries present (total): 1

  ( 1  0  0)
  ( 0  1  0)
  ( 0  0  1)

16 k-points: 4 x 4 x 1 Monkhorst-Pack grid
8 k-points in the irreducible part of the Brillouin zone
       k-points in crystal coordinates                weights
   0:     0.12500000   -0.37500000    0.00000000          2/16
   1:     0.12500000   -0.12500000    0.00000000          2/16
   2:     0.12500000    0.12500000    0.00000000          2/16
   3:     0.12500000    0.37500000    0.00000000          2/16
   4:     0.37500000   -0.37500000    0.00000000          2/16
   5:     0.37500000   -0.12500000    0.00000000          2/16
   6:     0.37500000    0.12500000    0.00000000          2/16
   7:     0.37500000    0.37500000    0.00000000          2/16

Wave functions: Plane wave expansion
  Cutoff energy: 400.000 eV
  Number of coefficients (min, max): 33288, 33380
  Pulay-stress correction: 0.000000 eV/Ang^3 (de/decut=0.000000)
  Using FFTW library
  ScaLapack parameters: grid=3x1, blocksize=64
  Wavefunction extrapolation:
    Improved wavefunction reuse through dual PAW basis 

Occupation numbers: Fermi-Dirac: width=0.1000 eV
 

Eigensolver
   Davidson(niter=3) 

Densities:
  Coarse grid: 40*40*140 grid
  Fine grid: 80*80*280 grid
  Total Charge: 0.000000 

Density mixing:
  Method: separate
  Backend: pulay
  Linear mixing parameter: 0.05
  Mixing with 5 old densities
  Damping of long wave oscillations: 50 

Hamiltonian:
  XC and Coulomb potentials evaluated on a 80*80*280 grid
  Using the RPBE Exchange-Correlation functional
  External potential:
    NoExternalPotential
 

XC parameters: RPBE with 2 nearest neighbor stencil

Memory estimate:
  Process memory now: 192.61 MiB
  Calculator: 560.79 MiB
    Density: 47.40 MiB
      Arrays: 14.92 MiB
      Localized functions: 26.74 MiB
      Mixer: 5.74 MiB
    Hamiltonian: 10.59 MiB
      Arrays: 9.75 MiB
      XC: 0.00 MiB
      Poisson: 0.00 MiB
      vbar: 0.84 MiB
    Wavefunctions: 502.80 MiB
      Arrays psit_nG: 227.67 MiB
      Eigensolver: 260.72 MiB
      Projections: 1.87 MiB
      Projectors: 3.74 MiB
      PW-descriptor: 8.80 MiB

Total number of cores used: 24
Parallelization over k-points: 8
Domain decomposition: 1 x 1 x 3
                      2 x 2 x 6 (xc only)

Number of atoms: 46
Number of atomic orbitals: 547
Number of bands in calculation: 447
Number of valence electrons: 737
Bands to converge: occupied

... initialized

Initializing position-dependent things.

Density initialized from atomic densities
Creating initial wave functions:
  447 bands from LCAO basis set

                                             
                                             
                                             
                                             
                                             
                                             
                               Ag            
                  Or    Pt                   
             Pt   PRu     Pt    Pd           
                         Pt                  
       Pt    APt    PAg    Ru                
                                             
        Ag     Ag    PPt    Pt     Ag        
                       Pd     Pt             
                Ru                           
           Ag    PAg    PPt    Pd            
                                             
            Ir     Pt    PAg    Pd           
       Pd     Pd     Pt                      
             Pd     Ag     Ag                
        Pd     Pt     Ag                     
                                             
                                             
                                             
                                             
                                             

Positions:
   0 Pd     0.000000    1.637674   10.000000    ( 0.0000,  0.0000,  0.0000)
   1 Pt     2.836535    1.637674   10.000000    ( 0.0000,  0.0000,  0.0000)
   2 Ag     5.673071    1.637674   10.000000    ( 0.0000,  0.0000,  0.0000)
   3 Pd     1.418268    4.094186   10.000000    ( 0.0000,  0.0000,  0.0000)
   4 Ag     4.254803    4.094186   10.000000    ( 0.0000,  0.0000,  0.0000)
   5 Ag     7.091338    4.094186   10.000000    ( 0.0000,  0.0000,  0.0000)
   6 Ag     2.836535    6.550698   10.000000    ( 0.0000,  0.0000,  0.0000)
   7 Pd     5.673071    6.550698   10.000000    ( 0.0000,  0.0000,  0.0000)
   8 Pd     8.509606    6.550698   10.000000    ( 0.0000,  0.0000,  0.0000)
   9 Pd     0.000000    0.000000   12.317643    ( 0.0000,  0.0000,  0.0000)
  10 Pd     2.836535    0.000000   12.317643    ( 0.0000,  0.0000,  0.0000)
  11 Pt     5.673071    0.000000   12.317643    ( 0.0000,  0.0000,  0.0000)
  12 Ir     1.418268    2.456512   12.317643    ( 0.0000,  0.0000,  0.0000)
  13 Pt     4.254803    2.456512   12.317643    ( 0.0000,  0.0000,  0.0000)
  14 Ag     7.091338    2.456512   12.317643    ( 0.0000,  0.0000,  0.0000)
  15 Pt     2.836535    4.913023   12.317643    ( 0.0000,  0.0000,  0.0000)
  16 Pd     5.673071    4.913023   12.317643    ( 0.0000,  0.0000,  0.0000)
  17 Pd     8.509606    4.913023   12.317643    ( 0.0000,  0.0000,  0.0000)
  18 Ag     1.386531    0.763556   14.612127    ( 0.0000,  0.0000,  0.0000)
  19 Ag     4.217140    0.786897   14.656625    ( 0.0000,  0.0000,  0.0000)
  20 Pt     7.062906    0.797650   14.661830    ( 0.0000,  0.0000,  0.0000)
  21 Ru     2.750963    3.304886   14.388561    ( 0.0000,  0.0000,  0.0000)
  22 Pd     5.602551    3.218685   14.639951    ( 0.0000,  0.0000,  0.0000)
  23 Pt     8.522404    3.252925   14.664528    ( 0.0000,  0.0000,  0.0000)
  24 Pt     4.170018    5.653000   14.615813    ( 0.0000,  0.0000,  0.0000)
  25 Pt     7.045875    5.606680   14.668177    ( 0.0000,  0.0000,  0.0000)
  26 Ag     9.874604    5.745082   14.696712    ( 0.0000,  0.0000,  0.0000)
  27 Ag     0.008271    1.607036   16.990555    ( 0.0000,  0.0000,  0.0000)
  28 Ag     2.792579    1.619369   16.881405    ( 0.0000,  0.0000,  0.0000)
  29 Pt     5.667100    1.638371   17.010896    ( 0.0000,  0.0000,  0.0000)
  30 Ag     1.336657    4.090436   17.016493    ( 0.0000,  0.0000,  0.0000)
  31 Pd     4.156889    4.034058   16.812256    ( 0.0000,  0.0000,  0.0000)
  32 Ru     6.950997    4.060452   16.869499    ( 0.0000,  0.0000,  0.0000)
  33 Pd     2.789491    6.566972   17.027197    ( 0.0000,  0.0000,  0.0000)
  34 Pt     5.653668    6.422911   16.906578    ( 0.0000,  0.0000,  0.0000)
  35 Pd     8.427941    6.500649   17.069490    ( 0.0000,  0.0000,  0.0000)
  36 Pt     0.076782   -0.041353   19.274293    ( 0.0000,  0.0000,  0.0000)
  37 Pt     2.811452    0.089084   19.254665    ( 0.0000,  0.0000,  0.0000)
  38 Ag     5.710723    0.010761   19.489412    ( 0.0000,  0.0000,  0.0000)
  39 Pt     1.555073    2.469759   19.393081    ( 0.0000,  0.0000,  0.0000)
  40 Ru     4.240188    2.601647   19.102653    ( 0.0000,  0.0000,  0.0000)
  41 Pt     7.117679    2.492363   19.219346    ( 0.0000,  0.0000,  0.0000)
  42 Ir     3.044217    4.828007   19.146959    ( 0.0000,  0.0000,  0.0000)
  43 Pt     5.722064    4.861267   19.161462    ( 0.0000,  0.0000,  0.0000)
  44 Ag     8.573183    4.898414   19.530449    ( 0.0000,  0.0000,  0.0000)
  45 O      4.254121    0.900497   20.830449    ( 0.0000,  0.0000,  0.0000)

Unit cell:
           periodic     x           y           z      points  spacing
  1. axis:    yes    8.509606    0.000000    0.000000    40     0.1842
  2. axis:    yes    4.254803    7.369535    0.000000    40     0.1842
  3. axis:    no     0.000000    0.000000   29.270571   140     0.2091

  Lengths:   8.509606   8.509606  29.270571
  Angles:   90.000000  90.000000  60.000000

Effective grid spacing dv^(1/3) = 0.2016

     iter     time        total  log10-change:
                         energy  eigst   dens
iter:   1 14:03:20  -246.287671
iter:   2 14:04:17  -357.800071  -1.41  -1.22
iter:   3 14:05:14  -218.313634  -1.93  -1.08
iter:   4 14:06:12  -201.176116  -2.46  -1.36
iter:   5 14:07:10  -197.099001  -2.80  -1.48
iter:   6 14:08:08  -196.304162  -2.92  -1.56
iter:   7 14:09:06  -195.239810  -3.06  -1.58
iter:   8 14:10:04  -191.424105  -2.70  -1.65
iter:   9 14:11:02  -191.092884  -3.04  -1.90
iter:  10 14:12:00  -190.928699  -3.49  -2.04
iter:  11 14:12:58  -190.635008  -3.95  -2.10
iter:  12 14:13:56  -190.499282  -3.94  -2.21
iter:  13 14:14:53  -190.533033c -4.05  -2.30
iter:  14 14:15:51  -190.274123c -3.80  -2.34
iter:  15 14:16:49  -190.236581c -4.42  -2.65
iter:  16 14:17:48  -190.218374c -4.70  -2.79
iter:  17 14:18:46  -190.234980c -4.98  -2.92
iter:  18 14:19:45  -190.215517c -5.68  -2.91
iter:  19 14:20:44  -190.219051c -5.45  -3.01
iter:  20 14:21:43  -190.225178c -5.74  -3.04
iter:  21 14:22:43  -190.219402c -5.65  -3.08
iter:  22 14:23:42  -190.216785c -5.85  -3.25
iter:  23 14:24:41  -190.219089c -6.22  -3.36
iter:  24 14:25:40  -190.219077c -5.87  -3.42
iter:  25 14:26:39  -190.215261c -6.65  -3.20
iter:  26 14:27:38  -190.217070c -6.53  -3.52
iter:  27 14:28:37  -190.216411c -7.09  -3.62
iter:  28 14:29:37  -190.215604c -6.86  -3.66
iter:  29 14:30:36  -190.217256c -6.79  -3.65
iter:  30 14:31:35  -190.216178c -6.89  -3.80
iter:  31 14:32:34  -190.216108c -7.00  -3.89
iter:  32 14:33:33  -190.216327c -7.42c -3.93
iter:  33 14:34:32  -190.215899c -7.58c -4.05c

Converged after 33 iterations.

Dipole moment: (-6.218283, 6.699596, -0.541954) |e|*Ang

Energy contributions relative to reference atoms: (reference = -12373358.334139)

Kinetic:       -241.784494
Potential:     +115.180848
External:        +0.000000
XC:             -55.856765
Entropy (-ST):   -1.894045
Local:           -6.808465
--------------------------
Free energy:   -191.162921
Extrapolated:  -190.215899

Showing only first 2 kpts
 Kpt  Band  Eigenvalues  Occupancy
  0   366      0.64943    1.00967
  0   367      0.67782    0.86849
  0   368      0.70901    0.71948
  0   369      0.73228    0.61614

  1   366      0.51224    1.60157
  1   367      0.54157    1.49975
  1   368      0.57815    1.35056
  1   369      0.60119    1.24573


Fermi level: 0.65136

No gap

Forces in eV/Ang:
  0 Pd    0.71020    0.06426    0.10148
  1 Pt   -0.59582   -0.15299    0.55114
  2 Ag   -0.10530   -0.08181   -0.55625
  3 Pd   -0.05038   -0.34276    0.20827
  4 Ag   -0.01101    0.02849   -0.56651
  5 Ag    0.14861    0.16513   -0.49325
  6 Ag    0.04348   -0.00204   -0.47146
  7 Pd    0.23143    0.35003    0.06389
  8 Pd   -0.13498    0.13879    0.20432
  9 Pd   -0.01520    0.09423   -0.01357
 10 Pd    0.00635   -0.02709   -0.11464
 11 Pt   -0.03598   -0.14826    0.13822
 12 Ir    0.68501    0.15272   -0.01757
 13 Pt   -0.68471   -0.18948    0.26048
 14 Ag    0.10683   -0.02177    0.09784
 15 Pt   -0.30807    0.01751    0.10348
 16 Pd   -0.07223    0.26582    0.17563
 17 Pd    0.15068   -0.00587    0.17948
 18 Ag   -0.02522   -0.00992   -0.01943
 19 Ag    0.00034   -0.01832    0.00636
 20 Pt   -0.03196   -0.03869    0.01727
 21 Ru    0.03786    0.00218   -0.01393
 22 Pd   -0.01760    0.01988    0.01393
 23 Pt   -0.01662    0.01202   -0.01275
 24 Pt   -0.01707    0.10343   -0.08042
 25 Pt   -0.06006   -0.01834    0.00403
 26 Ag   -0.02623   -0.02032    0.00662
 27 Ag   -0.03419   -0.00960   -0.00052
 28 Ag    0.01026    0.02739   -0.02691
 29 Pt   -0.03307    0.08702   -0.08460
 30 Ag   -0.01996   -0.03582   -0.00263
 31 Pd   -0.01168   -0.03445    0.07524
 32 Ru   -0.01882   -0.03531    0.05368
 33 Pd   -0.04268   -0.04711    0.08653
 34 Pt    0.14026    0.05258    0.34788
 35 Pd    0.00327   -0.08706   -0.17271
 36 Pt    0.03430   -0.08250   -0.15954
 37 Pt    0.30224    0.02522    1.17589
 38 Ag    0.59706   -0.25425    0.04627
 39 Pt   -0.29475    0.19988   -0.06480
 40 Ru    0.12147   -0.72517    1.80073
 41 Pt    0.22363    0.14575   -0.15684
 42 Ir    0.22184   -0.21424   -0.09531
 43 Pt   -0.06211   -0.10507   -0.08218
 44 Ag    0.01363   -0.12776   -0.01513
 45 O    -1.05788    0.88836   -2.35269

System changes: positions 

Initializing position-dependent things.

Density initialized from wave functions
                                             
                                             
                                             
                                             
                                             
                                             
                               Ag            
                  Or    Pt                   
             Pt   PRu     Pt    Pd           
                         Pt                  
       Pt    APt    PAg    Ru                
                                             
        Ag     Ag    PPt    Pt     Ag        
                       Pd     Pt             
                Ru                           
           Ag    PAg    PPt    Pd            
                                             
            Ir     Pt    PAg    Pd           
       Pd     Pd     Pt                      
             Pd     Ag     Ag                
        Pd     Pt     Ag                     
                                             
                                             
                                             
                                             
                                             

Positions:
   0 Pd     0.000000    1.637674   10.000000    ( 0.0000,  0.0000,  0.0000)
   1 Pt     2.836535    1.637674   10.000000    ( 0.0000,  0.0000,  0.0000)
   2 Ag     5.673071    1.637674   10.000000    ( 0.0000,  0.0000,  0.0000)
   3 Pd     1.418268    4.094186   10.000000    ( 0.0000,  0.0000,  0.0000)
   4 Ag     4.254803    4.094186   10.000000    ( 0.0000,  0.0000,  0.0000)
   5 Ag     7.091338    4.094186   10.000000    ( 0.0000,  0.0000,  0.0000)
   6 Ag     2.836535    6.550698   10.000000    ( 0.0000,  0.0000,  0.0000)
   7 Pd     5.673071    6.550698   10.000000    ( 0.0000,  0.0000,  0.0000)
   8 Pd     8.509606    6.550698   10.000000    ( 0.0000,  0.0000,  0.0000)
   9 Pd     0.000000    0.000000   12.317643    ( 0.0000,  0.0000,  0.0000)
  10 Pd     2.836535    0.000000   12.317643    ( 0.0000,  0.0000,  0.0000)
  11 Pt     5.673071    0.000000   12.317643    ( 0.0000,  0.0000,  0.0000)
  12 Ir     1.418268    2.456512   12.317643    ( 0.0000,  0.0000,  0.0000)
  13 Pt     4.254803    2.456512   12.317643    ( 0.0000,  0.0000,  0.0000)
  14 Ag     7.091338    2.456512   12.317643    ( 0.0000,  0.0000,  0.0000)
  15 Pt     2.836535    4.913023   12.317643    ( 0.0000,  0.0000,  0.0000)
  16 Pd     5.673071    4.913023   12.317643    ( 0.0000,  0.0000,  0.0000)
  17 Pd     8.509606    4.913023   12.317643    ( 0.0000,  0.0000,  0.0000)
  18 Ag     1.386170    0.763414   14.611849    ( 0.0000,  0.0000,  0.0000)
  19 Ag     4.217145    0.786636   14.656716    ( 0.0000,  0.0000,  0.0000)
  20 Pt     7.062450    0.797097   14.662076    ( 0.0000,  0.0000,  0.0000)
  21 Ru     2.751504    3.304917   14.388362    ( 0.0000,  0.0000,  0.0000)
  22 Pd     5.602299    3.218969   14.640150    ( 0.0000,  0.0000,  0.0000)
  23 Pt     8.522167    3.253097   14.664345    ( 0.0000,  0.0000,  0.0000)
  24 Pt     4.169774    5.654478   14.614664    ( 0.0000,  0.0000,  0.0000)
  25 Pt     7.045017    5.606418   14.668234    ( 0.0000,  0.0000,  0.0000)
  26 Ag     9.874229    5.744792   14.696806    ( 0.0000,  0.0000,  0.0000)
  27 Ag     0.007782    1.606899   16.990547    ( 0.0000,  0.0000,  0.0000)
  28 Ag     2.792725    1.619761   16.881020    ( 0.0000,  0.0000,  0.0000)
  29 Pt     5.666628    1.639614   17.009687    ( 0.0000,  0.0000,  0.0000)
  30 Ag     1.336372    4.089924   17.016455    ( 0.0000,  0.0000,  0.0000)
  31 Pd     4.156722    4.033566   16.813330    ( 0.0000,  0.0000,  0.0000)
  32 Ru     6.950728    4.059948   16.870266    ( 0.0000,  0.0000,  0.0000)
  33 Pd     2.788881    6.566299   17.028434    ( 0.0000,  0.0000,  0.0000)
  34 Pt     5.655672    6.423662   16.911548    ( 0.0000,  0.0000,  0.0000)
  35 Pd     8.427988    6.499405   17.067023    ( 0.0000,  0.0000,  0.0000)
  36 Pt     0.077272   -0.042532   19.272014    ( 0.0000,  0.0000,  0.0000)
  37 Pt     2.815769    0.089444   19.271463    ( 0.0000,  0.0000,  0.0000)
  38 Ag     5.719253    0.007129   19.490073    ( 0.0000,  0.0000,  0.0000)
  39 Pt     1.550863    2.472614   19.392155    ( 0.0000,  0.0000,  0.0000)
  40 Ru     4.241923    2.591287   19.128378    ( 0.0000,  0.0000,  0.0000)
  41 Pt     7.120874    2.494445   19.217105    ( 0.0000,  0.0000,  0.0000)
  42 Ir     3.047386    4.824946   19.145597    ( 0.0000,  0.0000,  0.0000)
  43 Pt     5.721177    4.859766   19.160288    ( 0.0000,  0.0000,  0.0000)
  44 Ag     8.573378    4.896589   19.530233    ( 0.0000,  0.0000,  0.0000)
  45 O      4.239008    0.913188   20.796840    ( 0.0000,  0.0000,  0.0000)

Unit cell:
           periodic     x           y           z      points  spacing
  1. axis:    yes    8.509606    0.000000    0.000000    40     0.1842
  2. axis:    yes    4.254803    7.369535    0.000000    40     0.1842
  3. axis:    no     0.000000    0.000000   29.270571   140     0.2091

  Lengths:   8.509606   8.509606  29.270571
  Angles:   90.000000  90.000000  60.000000

Effective grid spacing dv^(1/3) = 0.2016

     iter     time        total  log10-change:
                         energy  eigst   dens
iter:   1 14:35:51  -190.720818  -4.11
iter:   2 14:36:50  -194.509250  -3.83  -2.54
iter:   3 14:37:49  -192.120708  -3.66  -1.92
iter:   4 14:38:48  -190.546805  -4.61  -2.15
iter:   5 14:39:47  -190.439118  -5.42  -2.77
iter:   6 14:40:46  -190.432348c -6.14  -3.17
iter:   7 14:41:44  -190.417172c -6.18  -3.30
iter:   8 14:42:43  -190.416176c -6.27  -3.51
iter:   9 14:43:42  -190.428055c -5.99  -3.49
iter:  10 14:44:41  -190.411967c -6.26  -3.20
iter:  11 14:45:41  -190.410634c -6.67  -3.44
iter:  12 14:46:40  -190.412656c -7.36  -3.82
iter:  13 14:47:39  -190.411333c -7.74c -3.95
iter:  14 14:48:38  -190.412095c -7.64c -4.06c

Converged after 14 iterations.

Dipole moment: (-6.083732, 6.881985, -0.514948) |e|*Ang

Energy contributions relative to reference atoms: (reference = -12373358.334139)

Kinetic:       -235.540599
Potential:     +109.270259
External:        +0.000000
XC:             -56.236965
Entropy (-ST):   -1.888558
Local:           -6.960510
--------------------------
Free energy:   -191.356374
Extrapolated:  -190.412095

Showing only first 2 kpts
 Kpt  Band  Eigenvalues  Occupancy
  0   366      0.66564    1.00750
  0   367      0.68895    0.89140
  0   368      0.72563    0.71564
  0   369      0.74980    0.60874

  1   366      0.52630    1.60704
  1   367      0.55712    1.50062
  1   368      0.59324    1.35356
  1   369      0.61169    1.27038


Fermi level: 0.66714

No gap

Forces in eV/Ang:
  0 Pd    0.70608    0.06074    0.11601
  1 Pt   -0.59987   -0.15588    0.56570
  2 Ag   -0.09878   -0.08096   -0.55000
  3 Pd   -0.05047   -0.33848    0.21817
  4 Ag   -0.00831    0.03329   -0.56323
  5 Ag    0.14672    0.16567   -0.48312
  6 Ag    0.04433   -0.00177   -0.47050
  7 Pd    0.23075    0.34813    0.07308
  8 Pd   -0.13704    0.13378    0.21085
  9 Pd   -0.00963    0.10207   -0.01393
 10 Pd    0.00203   -0.03342   -0.11213
 11 Pt   -0.03845   -0.14933    0.14199
 12 Ir    0.67642    0.14686   -0.01825
 13 Pt   -0.67662   -0.19022    0.26337
 14 Ag    0.10848   -0.01889    0.09997
 15 Pt   -0.30879    0.02161    0.10321
 16 Pd   -0.06318    0.26597    0.17633
 17 Pd    0.14062   -0.00477    0.18000
 18 Ag   -0.01640   -0.01232    0.00191
 19 Ag   -0.00731   -0.01828    0.01401
 20 Pt   -0.03312   -0.02883    0.02166
 21 Ru    0.03491   -0.00238    0.00405
 22 Pd   -0.02073    0.02644    0.01590
 23 Pt   -0.01688    0.00886   -0.01412
 24 Pt   -0.00666    0.08550   -0.04321
 25 Pt   -0.06276   -0.01171    0.00928
 26 Ag   -0.02748   -0.01660    0.01256
 27 Ag   -0.00887   -0.02471   -0.02474
 28 Ag    0.04500    0.03195    0.05458
 29 Pt   -0.08657    0.10098   -0.02395
 30 Ag    0.00719   -0.03672   -0.00883
 31 Pd   -0.00801   -0.08765    0.10587
 32 Ru   -0.04573   -0.02630    0.04005
 33 Pd   -0.05208   -0.05287    0.06542
 34 Pt    0.15787    0.05187    0.30370
 35 Pd   -0.03286   -0.04682   -0.11299
 36 Pt    0.05685   -0.08311   -0.12773
 37 Pt    0.18193   -0.05080    0.95758
 38 Ag    0.65914   -0.33180    0.01142
 39 Pt   -0.31203    0.19449   -0.12102
 40 Ru    0.11620   -0.62675    1.56793
 41 Pt    0.20999    0.12711   -0.14568
 42 Ir    0.19589   -0.25421   -0.07800
 43 Pt   -0.04386   -0.12338   -0.07615
 44 Ag    0.02260   -0.09098   -0.01708
 45 O    -1.02695    1.00515   -2.29623

System changes: positions 

Initializing position-dependent things.

Density initialized from wave functions
                                             
                                             
                                             
                                             
                                             
                                             
                               Ag            
                  Or    Pt                   
             Pt   PRu    PPt    Pd           
                                             
       Pt    APt    PAg    Ru                
                      Pt                     
        Ag     Ag    Pt     Pt     Ag        
                       Pd     Pt             
                Ru                           
           Ag    PAg    PPt    Pd            
                                             
            Ir     Pt    PAg    Pd           
       Pd    PPd    APt    Ag                
                                             
        Pd     Pt     Ag                     
                                             
                                             
                                             
                                             
                                             

Positions:
   0 Pd     0.000000    1.637674   10.000000    ( 0.0000,  0.0000,  0.0000)
   1 Pt     2.836535    1.637674   10.000000    ( 0.0000,  0.0000,  0.0000)
   2 Ag     5.673071    1.637674   10.000000    ( 0.0000,  0.0000,  0.0000)
   3 Pd     1.418268    4.094186   10.000000    ( 0.0000,  0.0000,  0.0000)
   4 Ag     4.254803    4.094186   10.000000    ( 0.0000,  0.0000,  0.0000)
   5 Ag     7.091338    4.094186   10.000000    ( 0.0000,  0.0000,  0.0000)
   6 Ag     2.836535    6.550698   10.000000    ( 0.0000,  0.0000,  0.0000)
   7 Pd     5.673071    6.550698   10.000000    ( 0.0000,  0.0000,  0.0000)
   8 Pd     8.509606    6.550698   10.000000    ( 0.0000,  0.0000,  0.0000)
   9 Pd     0.000000    0.000000   12.317643    ( 0.0000,  0.0000,  0.0000)
  10 Pd     2.836535    0.000000   12.317643    ( 0.0000,  0.0000,  0.0000)
  11 Pt     5.673071    0.000000   12.317643    ( 0.0000,  0.0000,  0.0000)
  12 Ir     1.418268    2.456512   12.317643    ( 0.0000,  0.0000,  0.0000)
  13 Pt     4.254803    2.456512   12.317643    ( 0.0000,  0.0000,  0.0000)
  14 Ag     7.091338    2.456512   12.317643    ( 0.0000,  0.0000,  0.0000)
  15 Pt     2.836535    4.913023   12.317643    ( 0.0000,  0.0000,  0.0000)
  16 Pd     5.673071    4.913023   12.317643    ( 0.0000,  0.0000,  0.0000)
  17 Pd     8.509606    4.913023   12.317643    ( 0.0000,  0.0000,  0.0000)
  18 Ag     1.384859    0.762533   14.611744    ( 0.0000,  0.0000,  0.0000)
  19 Ag     4.216694    0.785287   14.657661    ( 0.0000,  0.0000,  0.0000)
  20 Pt     7.060021    0.794857   14.663623    ( 0.0000,  0.0000,  0.0000)
  21 Ru     2.754113    3.304794   14.388454    ( 0.0000,  0.0000,  0.0000)
  22 Pd     5.600806    3.220843   14.641300    ( 0.0000,  0.0000,  0.0000)
  23 Pt     8.520925    3.253787   14.663320    ( 0.0000,  0.0000,  0.0000)
  24 Pt     4.169163    5.660991   14.611049    ( 0.0000,  0.0000,  0.0000)
  25 Pt     7.040419    5.605478   14.668858    ( 0.0000,  0.0000,  0.0000)
  26 Ag     9.872216    5.743525   14.697664    ( 0.0000,  0.0000,  0.0000)
  27 Ag     0.006837    1.605250   16.989001    ( 0.0000,  0.0000,  0.0000)
  28 Ag     2.795645    1.622065   16.884108    ( 0.0000,  0.0000,  0.0000)
  29 Pt     5.660858    1.646902   17.007223    ( 0.0000,  0.0000,  0.0000)
  30 Ag     1.336590    4.087226   17.015875    ( 0.0000,  0.0000,  0.0000)
  31 Pd     4.156089    4.027713   16.820787    ( 0.0000,  0.0000,  0.0000)
  32 Ru     6.947664    4.057904   16.873377    ( 0.0000,  0.0000,  0.0000)
  33 Pd     2.785148    6.562465   17.033502    ( 0.0000,  0.0000,  0.0000)
  34 Pt     5.667113    6.427496   16.934458    ( 0.0000,  0.0000,  0.0000)
  35 Pd     8.425980    6.495488   17.058001    ( 0.0000,  0.0000,  0.0000)
  36 Pt     0.081206   -0.048655   19.262226    ( 0.0000,  0.0000,  0.0000)
  37 Pt     2.830573    0.086572   19.344609    ( 0.0000,  0.0000,  0.0000)
  38 Ag     5.767158   -0.016453   19.491316    ( 0.0000,  0.0000,  0.0000)
  39 Pt     1.528045    2.487023   19.383876    ( 0.0000,  0.0000,  0.0000)
  40 Ru     4.250555    2.543924   19.246711    ( 0.0000,  0.0000,  0.0000)
  41 Pt     7.136520    2.504036   19.206231    ( 0.0000,  0.0000,  0.0000)
  42 Ir     3.062134    4.806656   19.139645    ( 0.0000,  0.0000,  0.0000)
  43 Pt     5.717731    4.850876   19.154601    ( 0.0000,  0.0000,  0.0000)
  44 Ag     8.574942    4.889455   19.528996    ( 0.0000,  0.0000,  0.0000)
  45 O      4.162903    0.985986   20.626815    ( 0.0000,  0.0000,  0.0000)

Unit cell:
           periodic     x           y           z      points  spacing
  1. axis:    yes    8.509606    0.000000    0.000000    40     0.1842
  2. axis:    yes    4.254803    7.369535    0.000000    40     0.1842
  3. axis:    no     0.000000    0.000000   29.270571   140     0.2091

  Lengths:   8.509606   8.509606  29.270571
  Angles:   90.000000  90.000000  60.000000

Effective grid spacing dv^(1/3) = 0.2016

     iter     time        total  log10-change:
                         energy  eigst   dens
iter:   1 14:49:57  -197.628826  -2.79
iter:   2 14:50:56  -241.441247  -2.45  -1.89
iter:   3 14:51:56  -208.139462  -2.44  -1.46
iter:   4 14:52:55  -193.622550  -3.42  -1.69
iter:   5 14:53:55  -192.599750  -4.26  -2.14
iter:   6 14:54:54  -191.495366  -4.33  -2.25
iter:   7 14:55:53  -191.369677  -4.70  -2.63
iter:   8 14:56:52  -191.276078c -4.90  -2.68
iter:   9 14:57:50  -191.267244c -5.21  -2.86
iter:  10 14:58:50  -191.288489c -4.95  -2.91
iter:  11 14:59:49  -191.360545c -5.02  -2.71
iter:  12 15:00:49  -191.248185c -4.93  -2.65
iter:  13 15:01:49  -191.216289c -5.49  -3.02
iter:  14 15:02:49  -191.214410c -6.17  -3.17
iter:  15 15:03:48  -191.214120c -6.43  -3.38
iter:  16 15:04:48  -191.211499c -6.25  -3.44
iter:  17 15:05:47  -191.214705c -6.29  -3.47
iter:  18 15:06:47  -191.216072c -6.93  -3.55
iter:  19 15:07:46  -191.210866c -6.74  -3.63
iter:  20 15:08:46  -191.213380c -6.57  -3.49
iter:  21 15:09:46  -191.213095c -7.07  -3.75
iter:  22 15:10:47  -191.212466c -7.34  -3.87
iter:  23 15:11:47  -191.212158c -7.13  -3.93
iter:  24 15:12:48  -191.213688c -7.35  -4.08c
iter:  25 15:13:49  -191.211316c -7.49c -4.07c

Converged after 25 iterations.

Dipole moment: (-5.026579, 8.224367, -0.368469) |e|*Ang

Energy contributions relative to reference atoms: (reference = -12373358.334139)

Kinetic:       -231.555269
Potential:     +105.664702
External:        +0.000000
XC:             -57.394857
Entropy (-ST):   -1.862244
Local:           -6.994771
--------------------------
Free energy:   -192.142438
Extrapolated:  -191.211316

Showing only first 2 kpts
 Kpt  Band  Eigenvalues  Occupancy
  0   366      0.73099    1.03601
  0   367      0.75095    0.93629
  0   368      0.80124    0.69482
  0   369      0.83451    0.55249

  1   366      0.59919    1.60119
  1   367      0.63154    1.48786
  1   368      0.65258    1.40371
  1   369      0.66675    1.34274


Fermi level: 0.73819

No gap

Forces in eV/Ang:
  0 Pd    0.72263    0.06018    0.09944
  1 Pt   -0.61560   -0.17029    0.53908
  2 Ag   -0.10121   -0.08289   -0.55902
  3 Pd   -0.05785   -0.33248    0.20059
  4 Ag   -0.00433    0.03947   -0.57448
  5 Ag    0.14840    0.17360   -0.49486
  6 Ag    0.04274   -0.00520   -0.47660
  7 Pd    0.23548    0.35592    0.05462
  8 Pd   -0.13914    0.13057    0.18814
  9 Pd   -0.00614    0.10245   -0.01375
 10 Pd   -0.00032   -0.03875   -0.11980
 11 Pt   -0.04468   -0.15393    0.13937
 12 Ir    0.68329    0.13953   -0.02555
 13 Pt   -0.66394   -0.19925    0.26840
 14 Ag    0.10354   -0.02009    0.09850
 15 Pt   -0.30320    0.03132    0.10688
 16 Pd   -0.06179    0.27298    0.16436
 17 Pd    0.13188    0.00375    0.16648
 18 Ag   -0.00377   -0.00662    0.02949
 19 Ag   -0.01606   -0.00973   -0.01466
 20 Pt   -0.04648    0.00216    0.02199
 21 Ru    0.00195   -0.00736   -0.00600
 22 Pd   -0.04153    0.02311    0.00333
 23 Pt   -0.01416   -0.00320   -0.01028
 24 Pt    0.00192    0.04073    0.01806
 25 Pt   -0.05594    0.01189    0.01678
 26 Ag   -0.01596   -0.01971   -0.00684
 27 Ag   -0.01460   -0.04788   -0.08655
 28 Ag    0.06806   -0.02354    0.23436
 29 Pt   -0.02441   -0.00440    0.12022
 30 Ag   -0.01442   -0.00992   -0.05037
 31 Pd    0.04910    0.00779    0.02277
 32 Ru   -0.02210   -0.02991   -0.01657
 33 Pd    0.00293   -0.07667   -0.04118
 34 Pt    0.06547   -0.01264    0.10232
 35 Pd   -0.04877   -0.00519    0.03188
 36 Pt    0.15812   -0.09227   -0.07459
 37 Pt   -0.39982   -0.25464    0.11024
 38 Ag    0.64494   -0.39746   -0.14784
 39 Pt   -0.27969    0.08119   -0.02014
 40 Ru    0.02161   -0.40119    0.91697
 41 Pt    0.23627    0.02400   -0.08698
 42 Ir    0.09614   -0.36397    0.10752
 43 Pt   -0.01342   -0.16042    0.05699
 44 Ag    0.02728   -0.00372   -0.02316
 45 O    -0.35197    1.38375   -1.00285

System changes: positions 

Initializing position-dependent things.

Density initialized from wave functions
                                             
                                             
                                             
                                             
                                             
                                             
                                Ag           
                  Or    Pt                   
             Pt   PRu    PPt    Pd           
              Pt     Ag                      
       Pt    Ag     Pd     Ru                
        Ag            Pt                     
               Ag    Pt     Pt     Ag        
                       Pd     Pt             
                Ru                           
           Ag    PAg    PPt    Pd            
                                             
            Ir     Pt    PAg    Pd           
       Pd    PPd    APt    Ag                
                                             
        Pd     Pt     Ag                     
                                             
                                             
                                             
                                             
                                             

Positions:
   0 Pd     0.000000    1.637674   10.000000    ( 0.0000,  0.0000,  0.0000)
   1 Pt     2.836535    1.637674   10.000000    ( 0.0000,  0.0000,  0.0000)
   2 Ag     5.673071    1.637674   10.000000    ( 0.0000,  0.0000,  0.0000)
   3 Pd     1.418268    4.094186   10.000000    ( 0.0000,  0.0000,  0.0000)
   4 Ag     4.254803    4.094186   10.000000    ( 0.0000,  0.0000,  0.0000)
   5 Ag     7.091338    4.094186   10.000000    ( 0.0000,  0.0000,  0.0000)
   6 Ag     2.836535    6.550698   10.000000    ( 0.0000,  0.0000,  0.0000)
   7 Pd     5.673071    6.550698   10.000000    ( 0.0000,  0.0000,  0.0000)
   8 Pd     8.509606    6.550698   10.000000    ( 0.0000,  0.0000,  0.0000)
   9 Pd     0.000000    0.000000   12.317643    ( 0.0000,  0.0000,  0.0000)
  10 Pd     2.836535    0.000000   12.317643    ( 0.0000,  0.0000,  0.0000)
  11 Pt     5.673071    0.000000   12.317643    ( 0.0000,  0.0000,  0.0000)
  12 Ir     1.418268    2.456512   12.317643    ( 0.0000,  0.0000,  0.0000)
  13 Pt     4.254803    2.456512   12.317643    ( 0.0000,  0.0000,  0.0000)
  14 Ag     7.091338    2.456512   12.317643    ( 0.0000,  0.0000,  0.0000)
  15 Pt     2.836535    4.913023   12.317643    ( 0.0000,  0.0000,  0.0000)
  16 Pd     5.673071    4.913023   12.317643    ( 0.0000,  0.0000,  0.0000)
  17 Pd     8.509606    4.913023   12.317643    ( 0.0000,  0.0000,  0.0000)
  18 Ag     1.383609    0.761681   14.612146    ( 0.0000,  0.0000,  0.0000)
  19 Ag     4.216019    0.783954   14.658003    ( 0.0000,  0.0000,  0.0000)
  20 Pt     7.056939    0.792981   14.665367    ( 0.0000,  0.0000,  0.0000)
  21 Ru     2.756318    3.304564   14.388201    ( 0.0000,  0.0000,  0.0000)
  22 Pd     5.598626    3.222858   14.642298    ( 0.0000,  0.0000,  0.0000)
  23 Pt     8.519575    3.254305   14.662252    ( 0.0000,  0.0000,  0.0000)
  24 Pt     4.168604    5.667462   14.608152    ( 0.0000,  0.0000,  0.0000)
  25 Pt     7.035358    5.604928   14.669715    ( 0.0000,  0.0000,  0.0000)
  26 Ag     9.870206    5.741981   14.698140    ( 0.0000,  0.0000,  0.0000)
  27 Ag     0.005457    1.602914   16.985917    ( 0.0000,  0.0000,  0.0000)
  28 Ag     2.799299    1.623334   16.891402    ( 0.0000,  0.0000,  0.0000)
  29 Pt     5.656115    1.652598   17.007469    ( 0.0000,  0.0000,  0.0000)
  30 Ag     1.336146    4.084797   17.014260    ( 0.0000,  0.0000,  0.0000)
  31 Pd     4.156710    4.023670   16.827101    ( 0.0000,  0.0000,  0.0000)
  32 Ru     6.944911    4.055429   16.875657    ( 0.0000,  0.0000,  0.0000)
  33 Pd     2.782269    6.557562   17.036866    ( 0.0000,  0.0000,  0.0000)
  34 Pt     5.677832    6.430328   16.956044    ( 0.0000,  0.0000,  0.0000)
  35 Pd     8.423545    6.491758   17.050795    ( 0.0000,  0.0000,  0.0000)
  36 Pt     0.087968   -0.055851   19.252133    ( 0.0000,  0.0000,  0.0000)
  37 Pt     2.834310    0.078913   19.409138    ( 0.0000,  0.0000,  0.0000)
  38 Ag     5.821029   -0.044405   19.489149    ( 0.0000,  0.0000,  0.0000)
  39 Pt     1.502919    2.500772   19.377216    ( 0.0000,  0.0000,  0.0000)
  40 Ru     4.258167    2.494687   19.367550    ( 0.0000,  0.0000,  0.0000)
  41 Pt     7.155075    2.512623   19.195167    ( 0.0000,  0.0000,  0.0000)
  42 Ir     3.076729    4.783436   19.137186    ( 0.0000,  0.0000,  0.0000)
  43 Pt     5.714413    4.839974   19.151265    ( 0.0000,  0.0000,  0.0000)
  44 Ag     8.576778    4.883171   19.527452    ( 0.0000,  0.0000,  0.0000)
  45 O      4.092090    1.077280   20.463564    ( 0.0000,  0.0000,  0.0000)

Unit cell:
           periodic     x           y           z      points  spacing
  1. axis:    yes    8.509606    0.000000    0.000000    40     0.1842
  2. axis:    yes    4.254803    7.369535    0.000000    40     0.1842
  3. axis:    no     0.000000    0.000000   29.270571   140     0.2091

  Lengths:   8.509606   8.509606  29.270571
  Angles:   90.000000  90.000000  60.000000

Effective grid spacing dv^(1/3) = 0.2016

     iter     time        total  log10-change:
                         energy  eigst   dens
iter:   1 15:15:09  -209.968831  -2.67
iter:   2 15:16:10  -344.469673  -1.79  -1.65
iter:   3 15:17:10  -204.967738  -2.12  -1.19
iter:   4 15:18:10  -194.146537  -3.18  -1.73
iter:   5 15:19:10  -193.205431  -3.94  -2.12
iter:   6 15:20:10  -192.040207  -4.19  -2.17
iter:   7 15:21:10  -191.559668  -4.24  -2.41
iter:   8 15:22:10  -191.400313  -4.57  -2.58
iter:   9 15:23:10  -191.376369c -4.96  -2.79
iter:  10 15:24:10  -191.352506c -4.96  -2.89
iter:  11 15:25:10  -191.448420c -5.02  -2.90
iter:  12 15:26:11  -191.334382c -5.08  -2.72
iter:  13 15:27:12  -191.326695c -5.72  -3.12
iter:  14 15:28:13  -191.323162c -5.93  -3.28
iter:  15 15:29:14  -191.323424c -5.74  -3.34
iter:  16 15:30:15  -191.321696c -6.35  -3.59
iter:  17 15:31:16  -191.325228c -6.68  -3.55
iter:  18 15:32:18  -191.322557c -6.85  -3.63
iter:  19 15:33:19  -191.325778c -7.12  -3.60
iter:  20 15:34:20  -191.323111c -7.05  -3.58
iter:  21 15:35:21  -191.323870c -7.25  -3.61
iter:  22 15:36:23  -191.322331c -7.12  -3.77
iter:  23 15:37:24  -191.324344c -7.28  -3.79
iter:  24 15:38:25  -191.322626c -7.47c -3.93
iter:  25 15:39:26  -191.323388c -7.29  -4.00
iter:  26 15:40:27  -191.323155c -7.80c -4.11c

Converged after 26 iterations.

Dipole moment: (-3.812507, 9.830736, -0.228005) |e|*Ang

Energy contributions relative to reference atoms: (reference = -12373358.334139)

Kinetic:       -216.869905
Potential:      +93.447895
External:        +0.000000
XC:             -59.829565
Entropy (-ST):   -1.827469
Local:           -7.157845
--------------------------
Free energy:   -192.236889
Extrapolated:  -191.323155

Showing only first 2 kpts
 Kpt  Band  Eigenvalues  Occupancy
  0   366      0.80571    1.03501
  0   367      0.82765    0.92548
  0   368      0.87378    0.70382
  0   369      0.90795    0.55683

  1   366      0.67784    1.58785
  1   367      0.70580    1.48890
  1   368      0.72681    1.40495
  1   369      0.74127    1.34280


Fermi level: 0.81272

No gap

Forces in eV/Ang:
  0 Pd    0.71867    0.05796    0.10617
  1 Pt   -0.61296   -0.17098    0.55314
  2 Ag   -0.09754   -0.07897   -0.55253
  3 Pd   -0.05138   -0.33043    0.21632
  4 Ag   -0.00082    0.03976   -0.56683
  5 Ag    0.14131    0.17069   -0.48543
  6 Ag    0.04199   -0.00480   -0.47035
  7 Pd    0.23409    0.35653    0.07452
  8 Pd   -0.13784    0.13172    0.20202
  9 Pd   -0.01174    0.10500    0.00106
 10 Pd    0.00009   -0.04736   -0.10727
 11 Pt   -0.04440   -0.15527    0.14092
 12 Ir    0.68735    0.14802   -0.01197
 13 Pt   -0.64737   -0.20114    0.26813
 14 Ag    0.09566   -0.02150    0.10699
 15 Pt   -0.29767    0.03198    0.12953
 16 Pd   -0.06467    0.26818    0.15597
 17 Pd    0.12575    0.00532    0.16639
 18 Ag    0.01032    0.00132    0.06891
 19 Ag   -0.03246    0.00183    0.00251
 20 Pt   -0.05023    0.02888    0.01834
 21 Ru   -0.02830   -0.00632    0.00574
 22 Pd   -0.05420    0.01554    0.02053
 23 Pt   -0.00912   -0.01149   -0.01390
 24 Pt    0.02438   -0.02681    0.10336
 25 Pt   -0.04561    0.02253    0.05040
 26 Ag   -0.00574   -0.02240   -0.01192
 27 Ag    0.01394   -0.08918   -0.13353
 28 Ag    0.07639   -0.04913    0.35648
 29 Pt    0.00185   -0.06848    0.22234
 30 Ag    0.02048    0.00375   -0.06313
 31 Pd    0.09142    0.06241   -0.05096
 32 Ru   -0.03334   -0.00517   -0.07442
 33 Pd    0.05569   -0.10835   -0.14017
 34 Pt   -0.02278   -0.06341   -0.09847
 35 Pd   -0.06462    0.04478    0.16017
 36 Pt    0.25608   -0.12619    0.00892
 37 Pt   -1.62152   -1.25571   -1.20523
 38 Ag    0.52118   -0.43030   -0.20958
 39 Pt   -0.32618    0.03248   -0.05378
 40 Ru    0.30682    1.84138   -1.42513
 41 Pt    0.21435   -0.07946   -0.00693
 42 Ir   -0.05891   -0.35357    0.27592
 43 Pt   -0.00522   -0.12187    0.19850
 44 Ag    0.02323    0.13102    0.00033
 45 O     0.63999    0.40561    2.11468

System changes: positions 

Initializing position-dependent things.

Density initialized from wave functions
                                             
                                             
                                             
                                             
                                             
                                             
                                Ag           
                  Or    Pt                   
             Pt   PRu    PPt    Pd           
                     Ag                      
       Pt    APt    Pd     Ru                
        Ag            Pt                     
               Ag    Pt     Pt     Ag        
                       Pd     Pt             
                Ru                           
           Ag    PAg    PPt    Pd            
                                             
            Ir     Pt    PAg    Pd           
       Pd    PPd    APt    Ag                
                                             
        Pd     Pt     Ag                     
                                             
                                             
                                             
                                             
                                             

Positions:
   0 Pd     0.000000    1.637674   10.000000    ( 0.0000,  0.0000,  0.0000)
   1 Pt     2.836535    1.637674   10.000000    ( 0.0000,  0.0000,  0.0000)
   2 Ag     5.673071    1.637674   10.000000    ( 0.0000,  0.0000,  0.0000)
   3 Pd     1.418268    4.094186   10.000000    ( 0.0000,  0.0000,  0.0000)
   4 Ag     4.254803    4.094186   10.000000    ( 0.0000,  0.0000,  0.0000)
   5 Ag     7.091338    4.094186   10.000000    ( 0.0000,  0.0000,  0.0000)
   6 Ag     2.836535    6.550698   10.000000    ( 0.0000,  0.0000,  0.0000)
   7 Pd     5.673071    6.550698   10.000000    ( 0.0000,  0.0000,  0.0000)
   8 Pd     8.509606    6.550698   10.000000    ( 0.0000,  0.0000,  0.0000)
   9 Pd     0.000000    0.000000   12.317643    ( 0.0000,  0.0000,  0.0000)
  10 Pd     2.836535    0.000000   12.317643    ( 0.0000,  0.0000,  0.0000)
  11 Pt     5.673071    0.000000   12.317643    ( 0.0000,  0.0000,  0.0000)
  12 Ir     1.418268    2.456512   12.317643    ( 0.0000,  0.0000,  0.0000)
  13 Pt     4.254803    2.456512   12.317643    ( 0.0000,  0.0000,  0.0000)
  14 Ag     7.091338    2.456512   12.317643    ( 0.0000,  0.0000,  0.0000)
  15 Pt     2.836535    4.913023   12.317643    ( 0.0000,  0.0000,  0.0000)
  16 Pd     5.673071    4.913023   12.317643    ( 0.0000,  0.0000,  0.0000)
  17 Pd     8.509606    4.913023   12.317643    ( 0.0000,  0.0000,  0.0000)
  18 Ag     1.384183    0.762076   14.612436    ( 0.0000,  0.0000,  0.0000)
  19 Ag     4.216082    0.784543   14.657685    ( 0.0000,  0.0000,  0.0000)
  20 Pt     7.057782    0.794014   14.664762    ( 0.0000,  0.0000,  0.0000)
  21 Ru     2.755101    3.304620   14.388169    ( 0.0000,  0.0000,  0.0000)
  22 Pd     5.599058    3.222093   14.641956    ( 0.0000,  0.0000,  0.0000)
  23 Pt     8.520071    3.253982   14.662617    ( 0.0000,  0.0000,  0.0000)
  24 Pt     4.168962    5.664587   14.610054    ( 0.0000,  0.0000,  0.0000)
  25 Pt     7.037137    5.605373   14.669707    ( 0.0000,  0.0000,  0.0000)
  26 Ag     9.871040    5.742411   14.697733    ( 0.0000,  0.0000,  0.0000)
  27 Ag     0.005903    1.603246   16.986121    ( 0.0000,  0.0000,  0.0000)
  28 Ag     2.798224    1.622190   16.891197    ( 0.0000,  0.0000,  0.0000)
  29 Pt     5.658699    1.649238   17.009161    ( 0.0000,  0.0000,  0.0000)
  30 Ag     1.336167    4.085936   17.014321    ( 0.0000,  0.0000,  0.0000)
  31 Pd     4.157329    4.026539   16.823611    ( 0.0000,  0.0000,  0.0000)
  32 Ru     6.946094    4.056307   16.874058    ( 0.0000,  0.0000,  0.0000)
  33 Pd     2.784130    6.558730   17.034197    ( 0.0000,  0.0000,  0.0000)
  34 Pt     5.672805    6.428454   16.946027    ( 0.0000,  0.0000,  0.0000)
  35 Pd     8.424255    6.493489   17.055071    ( 0.0000,  0.0000,  0.0000)
  36 Pt     0.087309   -0.053842   19.256290    ( 0.0000,  0.0000,  0.0000)
  37 Pt     2.820003    0.073199   19.372535    ( 0.0000,  0.0000,  0.0000)
  38 Ag     5.802406   -0.035862   19.488060    ( 0.0000,  0.0000,  0.0000)
  39 Pt     1.511112    2.494941   19.380417    ( 0.0000,  0.0000,  0.0000)
  40 Ru     4.256689    2.526978   19.308065    ( 0.0000,  0.0000,  0.0000)
  41 Pt     7.149282    2.508263   19.199774    ( 0.0000,  0.0000,  0.0000)
  42 Ir     3.070166    4.790114   19.140812    ( 0.0000,  0.0000,  0.0000)
  43 Pt     5.715740    4.843470   19.154542    ( 0.0000,  0.0000,  0.0000)
  44 Ag     8.576160    4.886746   19.528054    ( 0.0000,  0.0000,  0.0000)
  45 O      4.127867    1.044559   20.549001    ( 0.0000,  0.0000,  0.0000)

Unit cell:
           periodic     x           y           z      points  spacing
  1. axis:    yes    8.509606    0.000000    0.000000    40     0.1842
  2. axis:    yes    4.254803    7.369535    0.000000    40     0.1842
  3. axis:    no     0.000000    0.000000   29.270571   140     0.2091

  Lengths:   8.509606   8.509606  29.270571
  Angles:   90.000000  90.000000  60.000000

Effective grid spacing dv^(1/3) = 0.2016

     iter     time        total  log10-change:
                         energy  eigst   dens
iter:   1 15:41:48  -193.987535  -3.03
iter:   2 15:42:49  -206.649480  -3.19  -2.18
iter:   3 15:43:50  -196.023109  -3.11  -1.68
iter:   4 15:44:50  -193.570490  -3.52  -1.89
iter:   5 15:45:51  -191.742357  -4.12  -2.14
iter:   6 15:46:52  -191.535254  -4.56  -2.62
iter:   7 15:47:52  -191.517161c -5.27  -2.86
iter:   8 15:48:53  -191.490533c -5.29  -2.98
iter:   9 15:49:54  -191.543928c -5.07  -2.99
iter:  10 15:50:55  -191.475179c -5.56  -2.80
iter:  11 15:51:56  -191.475562c -5.65  -3.13
iter:  12 15:52:57  -191.466676c -5.78  -3.23
iter:  13 15:53:57  -191.478724c -5.90  -3.34
iter:  14 15:54:58  -191.463706c -6.35  -3.21
iter:  15 15:55:59  -191.466891c -6.50  -3.54
iter:  16 15:57:00  -191.464151c -6.45  -3.49
iter:  17 15:58:01  -191.463326c -7.14  -3.50
iter:  18 15:59:02  -191.463537c -7.49c -3.82
iter:  19 16:00:03  -191.464520c -7.11  -3.84
iter:  20 16:01:04  -191.461774c -7.04  -3.85
iter:  21 16:02:06  -191.463234c -7.32  -3.64
iter:  22 16:03:07  -191.463408c -7.59c -4.01c

Converged after 22 iterations.

Dipole moment: (-4.028028, 9.730126, -0.307037) |e|*Ang

Energy contributions relative to reference atoms: (reference = -12373358.334139)

Kinetic:       -226.450319
Potential:     +101.303204
External:        +0.000000
XC:             -58.289136
Entropy (-ST):   -1.842592
Local:           -7.105862
--------------------------
Free energy:   -192.384704
Extrapolated:  -191.463408

Showing only first 2 kpts
 Kpt  Band  Eigenvalues  Occupancy
  0   366      0.76157    1.04043
  0   367      0.78352    0.93084
  0   368      0.83200    0.69805
  0   369      0.87020    0.53577

  1   366      0.63684    1.58110
  1   367      0.66497    1.48036
  1   368      0.68118    1.41566
  1   369      0.70077    1.33146


Fermi level: 0.76967

No gap

Forces in eV/Ang:
  0 Pd    0.72256    0.05722    0.09953
  1 Pt   -0.61440   -0.16980    0.54128
  2 Ag   -0.09831   -0.08436   -0.56337
  3 Pd   -0.05323   -0.33445    0.20498
  4 Ag   -0.00633    0.03930   -0.57773
  5 Ag    0.14818    0.17416   -0.49567
  6 Ag    0.04174   -0.00357   -0.48295
  7 Pd    0.23738    0.35938    0.05977
  8 Pd   -0.14193    0.13021    0.19170
  9 Pd   -0.00470    0.10805   -0.00055
 10 Pd   -0.00266   -0.03812   -0.11224
 11 Pt   -0.04824   -0.15932    0.14465
 12 Ir    0.68907    0.14254   -0.01660
 13 Pt   -0.66632   -0.19958    0.27341
 14 Ag    0.10264   -0.02023    0.10509
 15 Pt   -0.30365    0.02514    0.12954
 16 Pd   -0.06386    0.27164    0.16826
 17 Pd    0.13229    0.00437    0.16908
 18 Ag    0.00404   -0.00175    0.04929
 19 Ag   -0.02874   -0.00212    0.00390
 20 Pt   -0.03964    0.01052    0.01517
 21 Ru   -0.01318   -0.00609   -0.00452
 22 Pd   -0.04904    0.02067    0.01103
 23 Pt   -0.01024   -0.00653   -0.01730
 24 Pt    0.01259    0.00822    0.05011
 25 Pt   -0.05109    0.01634    0.02694
 26 Ag   -0.01037   -0.02042   -0.01290
 27 Ag    0.01359   -0.07375   -0.11385
 28 Ag    0.08417   -0.01939    0.28906
 29 Pt   -0.03476   -0.01010    0.16843
 30 Ag    0.02231   -0.00970   -0.05431
 31 Pd    0.05894   -0.00112    0.00651
 32 Ru   -0.03773   -0.01712   -0.05068
 33 Pd    0.02274   -0.09827   -0.08980
 34 Pt    0.03885   -0.03316   -0.00739
 35 Pd   -0.06097    0.01660    0.08630
 36 Pt    0.16686   -0.10574    0.00521
 37 Pt   -0.67498   -0.54394   -0.31986
 38 Ag    0.47741   -0.37299   -0.10177
 39 Pt   -0.30224    0.05035   -0.06283
 40 Ru    0.08753    0.08948    0.19383
 41 Pt    0.19514   -0.03312   -0.02359
 42 Ir   -0.00813   -0.33377    0.20467
 43 Pt    0.00244   -0.14625    0.15019
 44 Ag    0.02365    0.09868    0.00668
 45 O     0.10575    1.09806   -0.14901

System changes: positions 

Initializing position-dependent things.

Density initialized from wave functions
                                             
                                             
                                             
                                             
                                             
                                             
                                Ag           
                  Or    Pt                   
             Pt   PRu    PPt    Pd           
                     Ag                      
       Pt    APt    Pd     Ru                
        Ag            Pt                     
               Ag    Pt     Pt     Ag        
                       Pd     Pt             
                Ru                           
           Ag    PAg    PPt    Pd            
                                             
            Ir     Pt    PAg    Pd           
       Pd    PPd    APt    Ag                
                                             
        Pd     Pt     Ag                     
                                             
                                             
                                             
                                             
                                             

Positions:
   0 Pd     0.000000    1.637674   10.000000    ( 0.0000,  0.0000,  0.0000)
   1 Pt     2.836535    1.637674   10.000000    ( 0.0000,  0.0000,  0.0000)
   2 Ag     5.673071    1.637674   10.000000    ( 0.0000,  0.0000,  0.0000)
   3 Pd     1.418268    4.094186   10.000000    ( 0.0000,  0.0000,  0.0000)
   4 Ag     4.254803    4.094186   10.000000    ( 0.0000,  0.0000,  0.0000)
   5 Ag     7.091338    4.094186   10.000000    ( 0.0000,  0.0000,  0.0000)
   6 Ag     2.836535    6.550698   10.000000    ( 0.0000,  0.0000,  0.0000)
   7 Pd     5.673071    6.550698   10.000000    ( 0.0000,  0.0000,  0.0000)
   8 Pd     8.509606    6.550698   10.000000    ( 0.0000,  0.0000,  0.0000)
   9 Pd     0.000000    0.000000   12.317643    ( 0.0000,  0.0000,  0.0000)
  10 Pd     2.836535    0.000000   12.317643    ( 0.0000,  0.0000,  0.0000)
  11 Pt     5.673071    0.000000   12.317643    ( 0.0000,  0.0000,  0.0000)
  12 Ir     1.418268    2.456512   12.317643    ( 0.0000,  0.0000,  0.0000)
  13 Pt     4.254803    2.456512   12.317643    ( 0.0000,  0.0000,  0.0000)
  14 Ag     7.091338    2.456512   12.317643    ( 0.0000,  0.0000,  0.0000)
  15 Pt     2.836535    4.913023   12.317643    ( 0.0000,  0.0000,  0.0000)
  16 Pd     5.673071    4.913023   12.317643    ( 0.0000,  0.0000,  0.0000)
  17 Pd     8.509606    4.913023   12.317643    ( 0.0000,  0.0000,  0.0000)
  18 Ag     1.384055    0.761992   14.613088    ( 0.0000,  0.0000,  0.0000)
  19 Ag     4.215633    0.784386   14.657737    ( 0.0000,  0.0000,  0.0000)
  20 Pt     7.056862    0.793936   14.665134    ( 0.0000,  0.0000,  0.0000)
  21 Ru     2.755119    3.304547   14.387956    ( 0.0000,  0.0000,  0.0000)
  22 Pd     5.598116    3.222538   14.642247    ( 0.0000,  0.0000,  0.0000)
  23 Pt     8.519786    3.253954   14.662262    ( 0.0000,  0.0000,  0.0000)
  24 Pt     4.169041    5.665430   14.610330    ( 0.0000,  0.0000,  0.0000)
  25 Pt     7.035890    5.605512   14.670225    ( 0.0000,  0.0000,  0.0000)
  26 Ag     9.870700    5.741910   14.697546    ( 0.0000,  0.0000,  0.0000)
  27 Ag     0.005769    1.601981   16.984264    ( 0.0000,  0.0000,  0.0000)
  28 Ag     2.799537    1.621937   16.895712    ( 0.0000,  0.0000,  0.0000)
  29 Pt     5.658220    1.649434   17.011299    ( 0.0000,  0.0000,  0.0000)
  30 Ag     1.336253    4.085573   17.013389    ( 0.0000,  0.0000,  0.0000)
  31 Pd     4.158315    4.026696   16.823958    ( 0.0000,  0.0000,  0.0000)
  32 Ru     6.945467    4.055764   16.873588    ( 0.0000,  0.0000,  0.0000)
  33 Pd     2.784337    6.556771   17.033256    ( 0.0000,  0.0000,  0.0000)
  34 Pt     5.674187    6.428186   16.948282    ( 0.0000,  0.0000,  0.0000)
  35 Pd     8.423393    6.493081   17.055283    ( 0.0000,  0.0000,  0.0000)
  36 Pt     0.090522   -0.056226   19.255094    ( 0.0000,  0.0000,  0.0000)
  37 Pt     2.808666    0.062743   19.373830    ( 0.0000,  0.0000,  0.0000)
  38 Ag     5.814576   -0.043767   19.486419    ( 0.0000,  0.0000,  0.0000)
  39 Pt     1.504046    2.497143   19.379219    ( 0.0000,  0.0000,  0.0000)
  40 Ru     4.259567    2.527750   19.320515    ( 0.0000,  0.0000,  0.0000)
  41 Pt     7.154245    2.508690   19.198249    ( 0.0000,  0.0000,  0.0000)
  42 Ir     3.071600    4.783094   19.143654    ( 0.0000,  0.0000,  0.0000)
  43 Pt     5.715250    4.840417   19.156535    ( 0.0000,  0.0000,  0.0000)
  44 Ag     8.576619    4.887381   19.528018    ( 0.0000,  0.0000,  0.0000)
  45 O      4.123429    1.066957   20.536021    ( 0.0000,  0.0000,  0.0000)

Unit cell:
           periodic     x           y           z      points  spacing
  1. axis:    yes    8.509606    0.000000    0.000000    40     0.1842
  2. axis:    yes    4.254803    7.369535    0.000000    40     0.1842
  3. axis:    no     0.000000    0.000000   29.270571   140     0.2091

  Lengths:   8.509606   8.509606  29.270571
  Angles:   90.000000  90.000000  60.000000

Effective grid spacing dv^(1/3) = 0.2016

     iter     time        total  log10-change:
                         energy  eigst   dens
iter:   1 16:04:29  -192.897596  -4.05
iter:   2 16:05:30  -217.805331  -2.98  -2.16
iter:   3 16:06:31  -192.409635  -3.18  -1.58
iter:   4 16:07:32  -191.605716  -4.33  -2.35
iter:   5 16:08:33  -191.572203  -5.22  -2.86
iter:   6 16:09:35  -191.555729c -5.67  -3.06
iter:   7 16:10:37  -191.538480c -6.05  -3.16
iter:   8 16:11:37  -191.523288c -5.79  -3.32
iter:   9 16:12:38  -191.528750c -6.53  -3.60
iter:  10 16:13:39  -191.522311c -6.56  -3.55
iter:  11 16:14:40  -191.521164c -6.36  -3.50
iter:  12 16:15:42  -191.522717c -6.92  -3.85
iter:  13 16:16:42  -191.522012c -7.35  -4.10c
iter:  14 16:17:43  -191.521912c -7.69c -4.00c

Converged after 14 iterations.

Dipole moment: (-3.460661, 10.571494, -0.298773) |e|*Ang

Energy contributions relative to reference atoms: (reference = -12373358.334139)

Kinetic:       -223.262272
Potential:      +98.312683
External:        +0.000000
XC:             -58.612709
Entropy (-ST):   -1.840377
Local:           -7.039426
--------------------------
Free energy:   -192.442100
Extrapolated:  -191.521912

Showing only first 2 kpts
 Kpt  Band  Eigenvalues  Occupancy
  0   366      0.76934    1.03712
  0   367      0.79094    0.92927
  0   368      0.83886    0.69914
  0   369      0.87521    0.54406

  1   366      0.64513    1.57718
  1   367      0.67097    1.48461
  1   368      0.68988    1.40905
  1   369      0.70903    1.32634


Fermi level: 0.77677

No gap

Forces in eV/Ang:
  0 Pd    0.70957    0.06106    0.11657
  1 Pt   -0.60348   -0.15364    0.56311
  2 Ag   -0.09768   -0.08183   -0.54812
  3 Pd   -0.04888   -0.33570    0.22203
  4 Ag   -0.00905    0.03305   -0.56563
  5 Ag    0.14559    0.16777   -0.47800
  6 Ag    0.04087   -0.00143   -0.46997
  7 Pd    0.23214    0.35197    0.07392
  8 Pd   -0.13703    0.13166    0.20748
  9 Pd   -0.00683    0.11569    0.00311
 10 Pd   -0.00249   -0.03533   -0.11042
 11 Pt   -0.04597   -0.15550    0.14671
 12 Ir    0.68261    0.14398   -0.01157
 13 Pt   -0.66189   -0.19867    0.26851
 14 Ag    0.10419   -0.02185    0.10427
 15 Pt   -0.30321    0.02258    0.13148
 16 Pd   -0.06426    0.26655    0.16625
 17 Pd    0.13033    0.00087    0.16969
 18 Ag    0.01025    0.00066    0.04347
 19 Ag   -0.02929    0.00105    0.01008
 20 Pt   -0.04504    0.01711    0.00658
 21 Ru   -0.01617   -0.00879   -0.01493
 22 Pd   -0.03894    0.01022    0.00714
 23 Pt   -0.01761   -0.00385   -0.02548
 24 Pt    0.01422    0.00058    0.05413
 25 Pt   -0.03886    0.01219    0.02049
 26 Ag   -0.01563   -0.01354   -0.01787
 27 Ag    0.00601   -0.07408   -0.12299
 28 Ag    0.10200   -0.01557    0.30507
 29 Pt   -0.04843   -0.02220    0.19405
 30 Ag    0.02701   -0.00123   -0.05391
 31 Pd    0.05714    0.00683    0.00379
 32 Ru   -0.03626   -0.02265   -0.06073
 33 Pd    0.02452   -0.09837   -0.09134
 34 Pt    0.01166   -0.05594   -0.05475
 35 Pd   -0.03072    0.03765    0.10062
 36 Pt    0.10376   -0.11955    0.00212
 37 Pt   -0.46789   -0.39128   -0.29951
 38 Ag    0.35016   -0.32362   -0.10550
 39 Pt   -0.22377    0.00194   -0.09585
 40 Ru    0.08236    0.18666   -0.09376
 41 Pt    0.15415   -0.04848   -0.03929
 42 Ir   -0.03510   -0.29339    0.16768
 43 Pt   -0.00017   -0.14409    0.13605
 44 Ag    0.01902    0.13704    0.00203
 45 O     0.01918    0.96479   -0.13749

System changes: positions 

Initializing position-dependent things.

Density initialized from wave functions
                                             
                                             
                                             
                                             
                                             
                                             
                                Ag           
                  Or    Pt                   
             Pt   PRu    PtPt   Pd           
              Pt      Ag                     
       Pt    Ag     Pd     Ru                
        Ag     Ag     Pt                     
                     Pt     Pt     Ag        
                       Pd     Pt             
                Ru                           
           Ag    PAg    PPt    Pd            
                                             
            Ir     Pt    PAg    Pd           
       Pd    PPd    APt    Ag                
                                             
        Pd     Pt     Ag                     
                                             
                                             
                                             
                                             
                                             

Positions:
   0 Pd     0.000000    1.637674   10.000000    ( 0.0000,  0.0000,  0.0000)
   1 Pt     2.836535    1.637674   10.000000    ( 0.0000,  0.0000,  0.0000)
   2 Ag     5.673071    1.637674   10.000000    ( 0.0000,  0.0000,  0.0000)
   3 Pd     1.418268    4.094186   10.000000    ( 0.0000,  0.0000,  0.0000)
   4 Ag     4.254803    4.094186   10.000000    ( 0.0000,  0.0000,  0.0000)
   5 Ag     7.091338    4.094186   10.000000    ( 0.0000,  0.0000,  0.0000)
   6 Ag     2.836535    6.550698   10.000000    ( 0.0000,  0.0000,  0.0000)
   7 Pd     5.673071    6.550698   10.000000    ( 0.0000,  0.0000,  0.0000)
   8 Pd     8.509606    6.550698   10.000000    ( 0.0000,  0.0000,  0.0000)
   9 Pd     0.000000    0.000000   12.317643    ( 0.0000,  0.0000,  0.0000)
  10 Pd     2.836535    0.000000   12.317643    ( 0.0000,  0.0000,  0.0000)
  11 Pt     5.673071    0.000000   12.317643    ( 0.0000,  0.0000,  0.0000)
  12 Ir     1.418268    2.456512   12.317643    ( 0.0000,  0.0000,  0.0000)
  13 Pt     4.254803    2.456512   12.317643    ( 0.0000,  0.0000,  0.0000)
  14 Ag     7.091338    2.456512   12.317643    ( 0.0000,  0.0000,  0.0000)
  15 Pt     2.836535    4.913023   12.317643    ( 0.0000,  0.0000,  0.0000)
  16 Pd     5.673071    4.913023   12.317643    ( 0.0000,  0.0000,  0.0000)
  17 Pd     8.509606    4.913023   12.317643    ( 0.0000,  0.0000,  0.0000)
  18 Ag     1.384000    0.761830   14.616066    ( 0.0000,  0.0000,  0.0000)
  19 Ag     4.213345    0.783971   14.658332    ( 0.0000,  0.0000,  0.0000)
  20 Pt     7.052203    0.794244   14.666259    ( 0.0000,  0.0000,  0.0000)
  21 Ru     2.754687    3.304011   14.386206    ( 0.0000,  0.0000,  0.0000)
  22 Pd     5.594179    3.223910   14.643308    ( 0.0000,  0.0000,  0.0000)
  23 Pt     8.518025    3.253899   14.660040    ( 0.0000,  0.0000,  0.0000)
  24 Pt     4.169633    5.668370   14.612451    ( 0.0000,  0.0000,  0.0000)
  25 Pt     7.030933    5.606082   14.672312    ( 0.0000,  0.0000,  0.0000)
  26 Ag     9.868888    5.739989   14.696164    ( 0.0000,  0.0000,  0.0000)
  27 Ag     0.004844    1.595711   16.974389    ( 0.0000,  0.0000,  0.0000)
  28 Ag     2.807127    1.620709   16.919386    ( 0.0000,  0.0000,  0.0000)
  29 Pt     5.655372    1.648908   17.024223    ( 0.0000,  0.0000,  0.0000)
  30 Ag     1.337108    4.084589   17.008757    ( 0.0000,  0.0000,  0.0000)
  31 Pd     4.163215    4.028398   16.824811    ( 0.0000,  0.0000,  0.0000)
  32 Ru     6.942667    4.052923   16.870121    ( 0.0000,  0.0000,  0.0000)
  33 Pd     2.785893    6.547295   17.027730    ( 0.0000,  0.0000,  0.0000)
  34 Pt     5.678156    6.424910   16.953653    ( 0.0000,  0.0000,  0.0000)
  35 Pd     8.421124    6.492943   17.058489    ( 0.0000,  0.0000,  0.0000)
  36 Pt     0.102029   -0.068381   19.250319    ( 0.0000,  0.0000,  0.0000)
  37 Pt     2.764873    0.021557   19.373713    ( 0.0000,  0.0000,  0.0000)
  38 Ag     5.861633   -0.077632   19.478004    ( 0.0000,  0.0000,  0.0000)
  39 Pt     1.476213    2.503291   19.371831    ( 0.0000,  0.0000,  0.0000)
  40 Ru     4.272073    2.539388   19.353171    ( 0.0000,  0.0000,  0.0000)
  41 Pt     7.174581    2.508610   19.190997    ( 0.0000,  0.0000,  0.0000)
  42 Ir     3.075123    4.752441   19.156466    ( 0.0000,  0.0000,  0.0000)
  43 Pt     5.713151    4.826103   19.166504    ( 0.0000,  0.0000,  0.0000)
  44 Ag     8.578468    4.894196   19.527765    ( 0.0000,  0.0000,  0.0000)
  45 O      4.104367    1.164784   20.487188    ( 0.0000,  0.0000,  0.0000)

Unit cell:
           periodic     x           y           z      points  spacing
  1. axis:    yes    8.509606    0.000000    0.000000    40     0.1842
  2. axis:    yes    4.254803    7.369535    0.000000    40     0.1842
  3. axis:    no     0.000000    0.000000   29.270571   140     0.2091

  Lengths:   8.509606   8.509606  29.270571
  Angles:   90.000000  90.000000  60.000000

Effective grid spacing dv^(1/3) = 0.2016

     iter     time        total  log10-change:
                         energy  eigst   dens
iter:   1 16:19:04  -196.023733  -3.04
iter:   2 16:20:05  -250.046486  -2.51  -1.93
iter:   3 16:21:06  -194.771541  -2.73  -1.41
iter:   4 16:22:06  -192.069983  -3.81  -2.06
iter:   5 16:23:08  -191.975761  -4.64  -2.50
iter:   6 16:24:08  -191.785555c -4.96  -2.53
iter:   7 16:25:09  -191.699816c -5.14  -2.73
iter:   8 16:26:10  -191.640870c -5.00  -2.86
iter:   9 16:27:10  -191.633691c -5.46  -3.12
iter:  10 16:28:11  -191.637013c -5.53  -3.23
iter:  11 16:29:12  -191.628795c -5.84  -2.98
iter:  12 16:30:12  -191.631666c -5.89  -3.33
iter:  13 16:31:13  -191.621511c -6.11  -3.35
iter:  14 16:32:12  -191.619517c -6.73  -3.42
iter:  15 16:33:12  -191.620042c -7.11  -3.60
iter:  16 16:34:13  -191.619179c -6.57  -3.64
iter:  17 16:35:13  -191.622924c -7.09  -3.72
iter:  18 16:36:13  -191.621156c -6.86  -3.73
iter:  19 16:37:14  -191.619433c -7.38  -4.00c
iter:  20 16:38:14  -191.620269c -7.38  -3.80
iter:  21 16:39:15  -191.621071c -7.96c -4.05c

Converged after 21 iterations.

Dipole moment: (-1.092703, 14.052718, -0.266744) |e|*Ang

Energy contributions relative to reference atoms: (reference = -12373358.334139)

Kinetic:       -218.577169
Potential:      +94.346509
External:        +0.000000
XC:             -59.386724
Entropy (-ST):   -1.826072
Local:           -7.090651
--------------------------
Free energy:   -192.534107
Extrapolated:  -191.621071

Showing only first 2 kpts
 Kpt  Band  Eigenvalues  Occupancy
  0   366      0.78666    1.01885
  0   367      0.80776    0.91359
  0   368      0.85149    0.70387
  0   369      0.87957    0.58167

  1   366      0.65902    1.57639
  1   367      0.67965    1.50345
  1   368      0.70922    1.38513
  1   369      0.72401    1.32041


Fermi level: 0.79043

No gap

Forces in eV/Ang:
  0 Pd    0.71650    0.05423    0.08628
  1 Pt   -0.61159   -0.16662    0.53276
  2 Ag   -0.09668   -0.08642   -0.56922
  3 Pd   -0.05385   -0.33152    0.19610
  4 Ag   -0.00568    0.04116   -0.58266
  5 Ag    0.14595    0.17393   -0.50097
  6 Ag    0.04163   -0.00247   -0.48741
  7 Pd    0.23274    0.35609    0.05210
  8 Pd   -0.13811    0.12959    0.18238
  9 Pd   -0.00637    0.11028    0.01100
 10 Pd   -0.00483   -0.03837   -0.10378
 11 Pt   -0.05008   -0.15995    0.14568
 12 Ir    0.68631    0.13912   -0.00744
 13 Pt   -0.65477   -0.20560    0.27105
 14 Ag    0.09326   -0.02368    0.10726
 15 Pt   -0.29542    0.03279    0.14270
 16 Pd   -0.06994    0.27259    0.16410
 17 Pd    0.12225    0.01128    0.16367
 18 Ag    0.03067    0.02224    0.07167
 19 Ag   -0.04119    0.01598    0.06160
 20 Pt   -0.04378    0.01644    0.01920
 21 Ru   -0.01770   -0.01613    0.03247
 22 Pd   -0.03540   -0.02397    0.00819
 23 Pt   -0.01380   -0.00049    0.00962
 24 Pt    0.00726   -0.01634    0.06091
 25 Pt    0.00048    0.00654    0.01492
 26 Ag   -0.02485   -0.00075   -0.00788
 27 Ag    0.02608   -0.07915   -0.10702
 28 Ag    0.03842   -0.02651    0.23333
 29 Pt    0.01906   -0.05272    0.15239
 30 Ag    0.00954   -0.01244   -0.03799
 31 Pd    0.01787    0.00831   -0.01298
 32 Ru    0.03162   -0.03198   -0.04717
 33 Pd    0.05005   -0.08816   -0.10565
 34 Pt   -0.03117   -0.05322   -0.09836
 35 Pd    0.01267    0.00862    0.10053
 36 Pt   -0.01965   -0.12798    0.01426
 37 Pt   -0.02483   -0.07054   -0.17853
 38 Ag    0.04896   -0.15953   -0.02794
 39 Pt   -0.14074   -0.09432   -0.04766
 40 Ru    0.16605    0.99345   -1.06626
 41 Pt    0.14291   -0.05648    0.02959
 42 Ir   -0.16309   -0.11096    0.14720
 43 Pt    0.03424   -0.02649    0.16151
 44 Ag    0.00036    0.11882    0.01658
 45 O    -0.08964   -0.29364    0.88049

System changes: positions 

Initializing position-dependent things.

Density initialized from wave functions
                                             
                                             
                                             
                                             
                                             
                                             
                                Ag           
                  Or    Pt                   
             Pt   PRu    PtPt   Pd           
                      Ag                     
       Pt    APt    Pd     Ru                
        Ag     Ag     Pt                     
                     Pt     Pt     Ag        
                       Pd     Pt             
                Ru                           
           Ag    PAg    PPt    Pd            
                                             
            Ir     Pt    PAg    Pd           
       Pd    PPd    APt    Ag                
                                             
        Pd     Pt     Ag                     
                                             
                                             
                                             
                                             
                                             

Positions:
   0 Pd     0.000000    1.637674   10.000000    ( 0.0000,  0.0000,  0.0000)
   1 Pt     2.836535    1.637674   10.000000    ( 0.0000,  0.0000,  0.0000)
   2 Ag     5.673071    1.637674   10.000000    ( 0.0000,  0.0000,  0.0000)
   3 Pd     1.418268    4.094186   10.000000    ( 0.0000,  0.0000,  0.0000)
   4 Ag     4.254803    4.094186   10.000000    ( 0.0000,  0.0000,  0.0000)
   5 Ag     7.091338    4.094186   10.000000    ( 0.0000,  0.0000,  0.0000)
   6 Ag     2.836535    6.550698   10.000000    ( 0.0000,  0.0000,  0.0000)
   7 Pd     5.673071    6.550698   10.000000    ( 0.0000,  0.0000,  0.0000)
   8 Pd     8.509606    6.550698   10.000000    ( 0.0000,  0.0000,  0.0000)
   9 Pd     0.000000    0.000000   12.317643    ( 0.0000,  0.0000,  0.0000)
  10 Pd     2.836535    0.000000   12.317643    ( 0.0000,  0.0000,  0.0000)
  11 Pt     5.673071    0.000000   12.317643    ( 0.0000,  0.0000,  0.0000)
  12 Ir     1.418268    2.456512   12.317643    ( 0.0000,  0.0000,  0.0000)
  13 Pt     4.254803    2.456512   12.317643    ( 0.0000,  0.0000,  0.0000)
  14 Ag     7.091338    2.456512   12.317643    ( 0.0000,  0.0000,  0.0000)
  15 Pt     2.836535    4.913023   12.317643    ( 0.0000,  0.0000,  0.0000)
  16 Pd     5.673071    4.913023   12.317643    ( 0.0000,  0.0000,  0.0000)
  17 Pd     8.509606    4.913023   12.317643    ( 0.0000,  0.0000,  0.0000)
  18 Ag     1.384443    0.762167   14.617096    ( 0.0000,  0.0000,  0.0000)
  19 Ag     4.212773    0.784267   14.658934    ( 0.0000,  0.0000,  0.0000)
  20 Pt     7.051736    0.794631   14.666408    ( 0.0000,  0.0000,  0.0000)
  21 Ru     2.754176    3.303832   14.386457    ( 0.0000,  0.0000,  0.0000)
  22 Pd     5.593608    3.223577   14.643348    ( 0.0000,  0.0000,  0.0000)
  23 Pt     8.517947    3.253799   14.660158    ( 0.0000,  0.0000,  0.0000)
  24 Pt     4.169789    5.667726   14.613563    ( 0.0000,  0.0000,  0.0000)
  25 Pt     7.031054    5.606322   14.672550    ( 0.0000,  0.0000,  0.0000)
  26 Ag     9.868754    5.739944   14.695882    ( 0.0000,  0.0000,  0.0000)
  27 Ag     0.005235    1.594585   16.972757    ( 0.0000,  0.0000,  0.0000)
  28 Ag     2.807610    1.620076   16.923043    ( 0.0000,  0.0000,  0.0000)
  29 Pt     5.656184    1.647566   17.026849    ( 0.0000,  0.0000,  0.0000)
  30 Ag     1.337222    4.084615   17.008082    ( 0.0000,  0.0000,  0.0000)
  31 Pd     4.163793    4.029210   16.823891    ( 0.0000,  0.0000,  0.0000)
  32 Ru     6.943209    4.052612   16.869056    ( 0.0000,  0.0000,  0.0000)
  33 Pd     2.786988    6.546076   17.025605    ( 0.0000,  0.0000,  0.0000)
  34 Pt     5.676959    6.423802   16.950601    ( 0.0000,  0.0000,  0.0000)
  35 Pd     8.421194    6.493249   17.060661    ( 0.0000,  0.0000,  0.0000)
  36 Pt     0.102362   -0.069846   19.251395    ( 0.0000,  0.0000,  0.0000)
  37 Pt     2.760267    0.018507   19.364521    ( 0.0000,  0.0000,  0.0000)
  38 Ag     5.860203   -0.079065   19.477331    ( 0.0000,  0.0000,  0.0000)
  39 Pt     1.474882    2.501247   19.372025    ( 0.0000,  0.0000,  0.0000)
  40 Ru     4.273425    2.552945   19.334267    ( 0.0000,  0.0000,  0.0000)
  41 Pt     7.175991    2.506962   19.192277    ( 0.0000,  0.0000,  0.0000)
  42 Ir     3.071929    4.751061   19.159998    ( 0.0000,  0.0000,  0.0000)
  43 Pt     5.713837    4.825828   19.169869    ( 0.0000,  0.0000,  0.0000)
  44 Ag     8.578428    4.896642   19.528179    ( 0.0000,  0.0000,  0.0000)
  45 O      4.111159    1.161639   20.510031    ( 0.0000,  0.0000,  0.0000)

Unit cell:
           periodic     x           y           z      points  spacing
  1. axis:    yes    8.509606    0.000000    0.000000    40     0.1842
  2. axis:    yes    4.254803    7.369535    0.000000    40     0.1842
  3. axis:    no     0.000000    0.000000   29.270571   140     0.2091

  Lengths:   8.509606   8.509606  29.270571
  Angles:   90.000000  90.000000  60.000000

Effective grid spacing dv^(1/3) = 0.2016

     iter     time        total  log10-change:
                         energy  eigst   dens
iter:   1 16:40:35  -192.062336  -4.08
iter:   2 16:41:35  -200.351678  -3.49  -2.44
iter:   3 16:42:35  -191.773430  -3.73  -1.79
iter:   4 16:43:36  -191.821458  -4.67  -2.85
iter:   5 16:44:36  -191.684292c -4.98  -2.56
iter:   6 16:45:37  -191.665378c -5.90  -3.15
iter:   7 16:46:38  -191.659530c -6.32  -3.45
iter:   8 16:47:44  -191.663977c -6.46  -3.50
iter:   9 16:48:49  -191.660612c -6.85  -3.45
iter:  10 16:49:55  -191.656969c -6.46  -3.67
iter:  11 16:51:00  -191.658952c -6.68  -3.75
iter:  12 16:52:06  -191.659754c -6.86  -3.79
iter:  13 16:53:11  -191.656360c -7.11  -3.70
iter:  14 16:54:17  -191.657602c -7.51c -4.01c

Converged after 14 iterations.

Dipole moment: (-0.875956, 14.322518, -0.291239) |e|*Ang

Energy contributions relative to reference atoms: (reference = -12373358.334139)

Kinetic:       -220.822059
Potential:      +96.273227
External:        +0.000000
XC:             -59.046185
Entropy (-ST):   -1.829848
Local:           -7.147661
--------------------------
Free energy:   -192.572526
Extrapolated:  -191.657602

Showing only first 2 kpts
 Kpt  Band  Eigenvalues  Occupancy
  0   366      0.77818    1.01640
  0   367      0.79856    0.91471
  0   368      0.84240    0.70438
  0   369      0.87160    0.57753

  1   366      0.65145    1.57171
  1   367      0.67068    1.50344
  1   368      0.70028    1.38500
  1   369      0.71691    1.31199


Fermi level: 0.78146

No gap

Forces in eV/Ang:
  0 Pd    0.71692    0.05341    0.11294
  1 Pt   -0.60879   -0.16216    0.56070
  2 Ag   -0.09742   -0.08495   -0.54701
  3 Pd   -0.04871   -0.33860    0.22095
  4 Ag   -0.00893    0.03661   -0.56119
  5 Ag    0.14733    0.17148   -0.47892
  6 Ag    0.04289   -0.00127   -0.46604
  7 Pd    0.23227    0.35967    0.08222
  8 Pd   -0.13890    0.13168    0.20981
  9 Pd   -0.00775    0.11356    0.01704
 10 Pd   -0.00540   -0.03532   -0.09655
 11 Pt   -0.05035   -0.15837    0.14996
 12 Ir    0.68225    0.13764   -0.01015
 13 Pt   -0.65954   -0.20595    0.27126
 14 Ag    0.09560   -0.02495    0.10969
 15 Pt   -0.29245    0.03140    0.14703
 16 Pd   -0.07253    0.27149    0.16799
 17 Pd    0.12351    0.00683    0.16802
 18 Ag    0.02802    0.02208    0.05176
 19 Ag   -0.03492    0.01505    0.06381
 20 Pt   -0.04437    0.01141    0.00428
 21 Ru   -0.01240   -0.01524    0.01550
 22 Pd   -0.03063   -0.02946    0.00246
 23 Pt   -0.01987    0.00237    0.00255
 24 Pt   -0.00067   -0.00142    0.03092
 25 Pt    0.00304    0.00219    0.00479
 26 Ag   -0.02840    0.00264   -0.00851
 27 Ag    0.01426   -0.06281   -0.08408
 28 Ag    0.04134   -0.02733    0.21270
 29 Pt    0.02210   -0.05063    0.13866
 30 Ag    0.00865   -0.01707   -0.02825
 31 Pd    0.01613    0.02107    0.01214
 32 Ru    0.02979   -0.04487   -0.03356
 33 Pd    0.04959   -0.09543   -0.07021
 34 Pt   -0.03802   -0.07641   -0.05901
 35 Pd    0.02865    0.01137    0.08268
 36 Pt   -0.06128   -0.12981   -0.02471
 37 Pt    0.19072    0.13571   -0.02099
 38 Ag   -0.04222   -0.05280   -0.00257
 39 Pt   -0.05988   -0.13313   -0.02379
 40 Ru    0.04267    0.11225   -0.33760
 41 Pt    0.11119   -0.05460    0.00070
 42 Ir   -0.14247   -0.04300    0.06762
 43 Pt    0.02180   -0.01649    0.09296
 44 Ag   -0.00440    0.09476   -0.01234
 45 O    -0.10808    0.11937    0.06847

System changes: positions 

Initializing position-dependent things.

Density initialized from wave functions
                                             
                                             
                                             
                                             
                                             
                                             
                                Ag           
                  Or    Pt                   
             Pt   PRu    PtPt   Pd           
                      Ag                     
       Pt    APt    Pd     Ru                
        Ag     Ag     Pt                     
                     Pt     Pt     Ag        
                       Pd     Pt             
                Ru                           
           Ag    PAg    PPt    Pd            
                                             
            Ir     Pt    PAg    Pd           
       Pd    PPd    APt    Ag                
                                             
        Pd     Pt     Ag                     
                                             
                                             
[...]
  12 Ir     1.418268    2.456512   12.317643    ( 0.0000,  0.0000,  0.0000)
  13 Pt     4.254803    2.456512   12.317643    ( 0.0000,  0.0000,  0.0000)
  14 Ag     7.091338    2.456512   12.317643    ( 0.0000,  0.0000,  0.0000)
  15 Pt     2.836535    4.913023   12.317643    ( 0.0000,  0.0000,  0.0000)
  16 Pd     5.673071    4.913023   12.317643    ( 0.0000,  0.0000,  0.0000)
  17 Pd     8.509606    4.913023   12.317643    ( 0.0000,  0.0000,  0.0000)
  18 Ag     1.389833    0.766064   14.626886    ( 0.0000,  0.0000,  0.0000)
  19 Ag     4.204615    0.787199   14.675035    ( 0.0000,  0.0000,  0.0000)
  20 Pt     7.041924    0.795368   14.666414    ( 0.0000,  0.0000,  0.0000)
  21 Ru     2.751715    3.302084   14.389126    ( 0.0000,  0.0000,  0.0000)
  22 Pd     5.586662    3.218506   14.644505    ( 0.0000,  0.0000,  0.0000)
  23 Pt     8.513209    3.253874   14.658311    ( 0.0000,  0.0000,  0.0000)
  24 Pt     4.169424    5.668354   14.617067    ( 0.0000,  0.0000,  0.0000)
  25 Pt     7.029681    5.606015   14.672979    ( 0.0000,  0.0000,  0.0000)
  26 Ag     9.861943    5.740340   14.692820    ( 0.0000,  0.0000,  0.0000)
  27 Ag     0.008349    1.576591   16.954975    ( 0.0000,  0.0000,  0.0000)
  28 Ag     2.815483    1.613998   16.963121    ( 0.0000,  0.0000,  0.0000)
  29 Pt     5.661242    1.639317   17.053988    ( 0.0000,  0.0000,  0.0000)
  30 Ag     1.339030    4.077830   17.000944    ( 0.0000,  0.0000,  0.0000)
  31 Pd     4.167632    4.028394   16.827902    ( 0.0000,  0.0000,  0.0000)
  32 Ru     6.946947    4.042029   16.863032    ( 0.0000,  0.0000,  0.0000)
  33 Pd     2.795099    6.527103   17.009227    ( 0.0000,  0.0000,  0.0000)
  34 Pt     5.676263    6.407560   16.944611    ( 0.0000,  0.0000,  0.0000)
  35 Pd     8.425749    6.491307   17.074637    ( 0.0000,  0.0000,  0.0000)
  36 Pt     0.099196   -0.099460   19.247619    ( 0.0000,  0.0000,  0.0000)
  37 Pt     2.773198    0.020729   19.364945    ( 0.0000,  0.0000,  0.0000)
  38 Ag     5.866766   -0.101198   19.478410    ( 0.0000,  0.0000,  0.0000)
  39 Pt     1.447507    2.481288   19.364450    ( 0.0000,  0.0000,  0.0000)
  40 Ru     4.288641    2.574710   19.293954    ( 0.0000,  0.0000,  0.0000)
  41 Pt     7.201608    2.498256   19.191621    ( 0.0000,  0.0000,  0.0000)
  42 Ir     3.051067    4.734093   19.172406    ( 0.0000,  0.0000,  0.0000)
  43 Pt     5.717016    4.820828   19.189737    ( 0.0000,  0.0000,  0.0000)
  44 Ag     8.578026    4.912591   19.530078    ( 0.0000,  0.0000,  0.0000)
  45 O      4.090428    1.225494   20.502044    ( 0.0000,  0.0000,  0.0000)

Unit cell:
           periodic     x           y           z      points  spacing
  1. axis:    yes    8.509606    0.000000    0.000000    40     0.1842
  2. axis:    yes    4.254803    7.369535    0.000000    40     0.1842
  3. axis:    no     0.000000    0.000000   29.270571   140     0.2091

  Lengths:   8.509606   8.509606  29.270571
  Angles:   90.000000  90.000000  60.000000

Effective grid spacing dv^(1/3) = 0.2016

     iter     time        total  log10-change:
                         energy  eigst   dens
iter:   1 18:09:50  -193.074949  -4.26
iter:   2 18:10:52  -221.907527  -2.81  -2.13
iter:   3 18:11:54  -193.287029  -3.27  -1.53
iter:   4 18:12:55  -191.936708  -4.26  -2.23
iter:   5 18:13:57  -191.726147  -4.97  -2.66
iter:   6 18:14:57  -191.711694c -5.49  -3.33
iter:   7 18:15:59  -191.710196c -5.89  -3.56
iter:   8 18:17:00  -191.704642c -5.95  -3.61
iter:   9 18:18:01  -191.705710c -6.53  -3.81
iter:  10 18:19:03  -191.707907c -6.85  -3.98
iter:  11 18:20:04  -191.704479c -6.94  -3.71
iter:  12 18:21:06  -191.706151c -7.27  -4.04c
iter:  13 18:22:07  -191.705407c -7.51c -4.04c

Converged after 13 iterations.

Dipole moment: (0.915423, 15.883084, -0.293974) |e|*Ang

Energy contributions relative to reference atoms: (reference = -12373358.334139)

Kinetic:       -220.739363
Potential:      +96.098159
External:        +0.000000
XC:             -59.048376
Entropy (-ST):   -1.826744
Local:           -7.102455
--------------------------
Free energy:   -192.618779
Extrapolated:  -191.705407

Showing only first 2 kpts
 Kpt  Band  Eigenvalues  Occupancy
  0   366      0.78451    0.97877
  0   367      0.80255    0.88900
  0   368      0.84036    0.70824
  0   369      0.86861    0.58489

  1   366      0.64750    1.58087
  1   367      0.66893    1.50547
  1   368      0.70379    1.36475
  1   369      0.71553    1.31279


Fermi level: 0.78026

No gap

Forces in eV/Ang:
  0 Pd    0.71872    0.05378    0.12852
  1 Pt   -0.60522   -0.15804    0.57713
  2 Ag   -0.09809   -0.08450   -0.53623
  3 Pd   -0.04652   -0.34115    0.23420
  4 Ag   -0.01139    0.03400   -0.55026
  5 Ag    0.14741    0.17014   -0.46815
  6 Ag    0.04251   -0.00156   -0.45467
  7 Pd    0.23379    0.36070    0.09643
  8 Pd   -0.13931    0.13273    0.22178
  9 Pd    0.00476    0.12276    0.04519
 10 Pd   -0.00101   -0.02181   -0.06531
 11 Pt   -0.07409   -0.14648    0.17372
 12 Ir    0.68233    0.13258    0.00586
 13 Pt   -0.67300   -0.21997    0.29268
 14 Ag    0.08991   -0.02755    0.11263
 15 Pt   -0.28753    0.02095    0.17941
 16 Pd   -0.08178    0.27099    0.17946
 17 Pd    0.12002    0.00765    0.16306
 18 Ag    0.00375   -0.00072   -0.00354
 19 Ag   -0.01005    0.00472    0.04569
 20 Pt   -0.01058   -0.00950   -0.01333
 21 Ru   -0.00496    0.00672    0.00131
 22 Pd   -0.00233   -0.01236    0.00738
 23 Pt   -0.01115   -0.00526   -0.00562
 24 Pt   -0.00620   -0.00892   -0.02041
 25 Pt   -0.00053   -0.01697   -0.00484
 26 Ag   -0.01712    0.00268   -0.01043
 27 Ag   -0.00019   -0.04494    0.00056
 28 Ag   -0.00150   -0.02148   -0.00093
 29 Pt    0.01458   -0.02438    0.02209
 30 Ag   -0.00463   -0.03942   -0.00702
 31 Pd   -0.00294   -0.03410    0.00874
 32 Ru    0.00918   -0.03468    0.00394
 33 Pd   -0.00697   -0.01839   -0.01774
 34 Pt    0.02799   -0.04715    0.00328
 35 Pd    0.02879   -0.01871    0.01829
 36 Pt    0.00574   -0.04890   -0.00318
 37 Pt    0.07506    0.06850    0.05699
 38 Ag   -0.07401    0.01875    0.02036
 39 Pt   -0.00887   -0.03950   -0.01402
 40 Ru   -0.00397   -0.00692   -0.08321
 41 Pt   -0.00881   -0.01024   -0.01138
 42 Ir    0.01268    0.04185   -0.07634
 43 Pt    0.00252    0.01950   -0.02029
 44 Ag    0.00057   -0.01736    0.01744
 45 O     0.02592    0.01101    0.05826

System changes: positions 

Initializing position-dependent things.

Density initialized from wave functions
                                             
                                             
                                             
                                             
                                             
                                             
                                Ag           
                  Or    Pt                   
            Pt    PdRu   PtPt   Pd           
              Pt      Ag                     
       Pt    Ag     Pd     Ru                
        Ag     Ag     Pt                     
                     Pt     Pt     Ag        
                       Pd     Pt             
                Ru                           
           Ag    PAg    PPt    Pd            
                                             
            Ir     Pt     Ag    Pd           
       Pd    PPd    APt    Ag                
                                             
        Pd     Pt     Ag                     
                                             
                                             
                                             
                                             
                                             

Positions:
   0 Pd     0.000000    1.637674   10.000000    ( 0.0000,  0.0000,  0.0000)
   1 Pt     2.836535    1.637674   10.000000    ( 0.0000,  0.0000,  0.0000)
   2 Ag     5.673071    1.637674   10.000000    ( 0.0000,  0.0000,  0.0000)
   3 Pd     1.418268    4.094186   10.000000    ( 0.0000,  0.0000,  0.0000)
   4 Ag     4.254803    4.094186   10.000000    ( 0.0000,  0.0000,  0.0000)
   5 Ag     7.091338    4.094186   10.000000    ( 0.0000,  0.0000,  0.0000)
   6 Ag     2.836535    6.550698   10.000000    ( 0.0000,  0.0000,  0.0000)
   7 Pd     5.673071    6.550698   10.000000    ( 0.0000,  0.0000,  0.0000)
   8 Pd     8.509606    6.550698   10.000000    ( 0.0000,  0.0000,  0.0000)
   9 Pd     0.000000    0.000000   12.317643    ( 0.0000,  0.0000,  0.0000)
  10 Pd     2.836535    0.000000   12.317643    ( 0.0000,  0.0000,  0.0000)
  11 Pt     5.673071    0.000000   12.317643    ( 0.0000,  0.0000,  0.0000)
  12 Ir     1.418268    2.456512   12.317643    ( 0.0000,  0.0000,  0.0000)
  13 Pt     4.254803    2.456512   12.317643    ( 0.0000,  0.0000,  0.0000)
  14 Ag     7.091338    2.456512   12.317643    ( 0.0000,  0.0000,  0.0000)
  15 Pt     2.836535    4.913023   12.317643    ( 0.0000,  0.0000,  0.0000)
  16 Pd     5.673071    4.913023   12.317643    ( 0.0000,  0.0000,  0.0000)
  17 Pd     8.509606    4.913023   12.317643    ( 0.0000,  0.0000,  0.0000)
  18 Ag     1.390286    0.766328   14.627379    ( 0.0000,  0.0000,  0.0000)
  19 Ag     4.203933    0.787506   14.676985    ( 0.0000,  0.0000,  0.0000)
  20 Pt     7.041235    0.795229   14.666143    ( 0.0000,  0.0000,  0.0000)
  21 Ru     2.751495    3.302113   14.389402    ( 0.0000,  0.0000,  0.0000)
  22 Pd     5.586258    3.217925   14.644698    ( 0.0000,  0.0000,  0.0000)
  23 Pt     8.512769    3.253761   14.658122    ( 0.0000,  0.0000,  0.0000)
  24 Pt     4.169290    5.668163   14.616868    ( 0.0000,  0.0000,  0.0000)
  25 Pt     7.029726    5.605728   14.672848    ( 0.0000,  0.0000,  0.0000)
  26 Ag     9.861221    5.740511   14.692486    ( 0.0000,  0.0000,  0.0000)
  27 Ag     0.008642    1.574679   16.954117    ( 0.0000,  0.0000,  0.0000)
  28 Ag     2.815603    1.613222   16.964806    ( 0.0000,  0.0000,  0.0000)
  29 Pt     5.662061    1.638503   17.055543    ( 0.0000,  0.0000,  0.0000)
  30 Ag     1.339048    4.076680   17.000466    ( 0.0000,  0.0000,  0.0000)
  31 Pd     4.167720    4.027624   16.828321    ( 0.0000,  0.0000,  0.0000)
  32 Ru     6.947376    4.040879   16.862871    ( 0.0000,  0.0000,  0.0000)
  33 Pd     2.795460    6.525928   17.007969    ( 0.0000,  0.0000,  0.0000)
  34 Pt     5.676757    6.405794   16.944284    ( 0.0000,  0.0000,  0.0000)
  35 Pd     8.426421    6.490673   17.075646    ( 0.0000,  0.0000,  0.0000)
  36 Pt     0.099034   -0.101881   19.247548    ( 0.0000,  0.0000,  0.0000)
  37 Pt     2.776184    0.022871   19.365916    ( 0.0000,  0.0000,  0.0000)
  38 Ag     5.864528   -0.101262   19.479297    ( 0.0000,  0.0000,  0.0000)
  39 Pt     1.446146    2.479244   19.363898    ( 0.0000,  0.0000,  0.0000)
  40 Ru     4.289355    2.575683   19.289540    ( 0.0000,  0.0000,  0.0000)
  41 Pt     7.202429    2.497579   19.191773    ( 0.0000,  0.0000,  0.0000)
  42 Ir     3.049965    4.734374   19.171605    ( 0.0000,  0.0000,  0.0000)
  43 Pt     5.717308    4.821338   19.190452    ( 0.0000,  0.0000,  0.0000)
  44 Ag     8.577869    4.912975   19.530581    ( 0.0000,  0.0000,  0.0000)
  45 O      4.089701    1.227124   20.502986    ( 0.0000,  0.0000,  0.0000)

Unit cell:
           periodic     x           y           z      points  spacing
  1. axis:    yes    8.509606    0.000000    0.000000    40     0.1842
  2. axis:    yes    4.254803    7.369535    0.000000    40     0.1842
  3. axis:    no     0.000000    0.000000   29.270571   140     0.2091

  Lengths:   8.509606   8.509606  29.270571
  Angles:   90.000000  90.000000  60.000000

Effective grid spacing dv^(1/3) = 0.2016

     iter     time        total  log10-change:
                         energy  eigst   dens
iter:   1 18:23:29  -191.932520  -4.84
iter:   2 18:24:30  -197.951185  -3.59  -2.51
iter:   3 18:25:31  -191.895665  -3.94  -1.86
iter:   4 18:26:32  -191.724892  -5.11  -2.72
iter:   5 18:27:33  -191.708605c -5.93  -3.36
iter:   6 18:28:35  -191.709162c -6.44  -3.78
iter:   7 18:29:36  -191.706567c -6.58  -3.87
iter:   8 18:30:39  -191.705894c -6.64  -4.03c
iter:   9 18:31:40  -191.706108c -7.45c -4.32c

Converged after 9 iterations.

Dipole moment: (0.926060, 15.846553, -0.290904) |e|*Ang

Energy contributions relative to reference atoms: (reference = -12373358.334139)

Kinetic:       -222.159944
Potential:      +97.424032
External:        +0.000000
XC:             -58.956422
Entropy (-ST):   -1.827458
Local:           -7.100045
--------------------------
Free energy:   -192.619838
Extrapolated:  -191.706108

Showing only first 2 kpts
 Kpt  Band  Eigenvalues  Occupancy
  0   366      0.78298    0.97634
  0   367      0.80063    0.88851
  0   368      0.83871    0.70654
  0   369      0.86723    0.58229

  1   366      0.64478    1.58320
  1   367      0.66737    1.50378
  1   368      0.70180    1.36464
  1   369      0.71359    1.31244


Fermi level: 0.77824

No gap

Forces in eV/Ang:
  0 Pd    0.72474    0.05516    0.10666
  1 Pt   -0.61451   -0.16977    0.54958
  2 Ag   -0.09952   -0.08450   -0.55557
  3 Pd   -0.05271   -0.33848    0.20987
  4 Ag   -0.00760    0.03789   -0.56798
  5 Ag    0.14830    0.17382   -0.48913
  6 Ag    0.04202   -0.00398   -0.47200
  7 Pd    0.23806    0.36314    0.07449
  8 Pd   -0.14286    0.12979    0.19816
  9 Pd    0.00961    0.12253    0.04215
 10 Pd   -0.00136   -0.02278   -0.06896
 11 Pt   -0.07890   -0.14566    0.17191
 12 Ir    0.68385    0.12726   -0.00605
 13 Pt   -0.67422   -0.22445    0.29158
 14 Ag    0.08956   -0.02613    0.10852
 15 Pt   -0.28753    0.02361    0.17125
 16 Pd   -0.07709    0.27299    0.17484
 17 Pd    0.11572    0.00925    0.15311
 18 Ag   -0.00286   -0.00761   -0.01293
 19 Ag   -0.00304   -0.00231    0.02666
 20 Pt   -0.00226   -0.00959   -0.01656
 21 Ru   -0.00363    0.01006   -0.00402
 22 Pd    0.00400   -0.00021   -0.00003
 23 Pt   -0.00665   -0.00780   -0.01088
 24 Pt   -0.00258   -0.00463   -0.01975
 25 Pt   -0.00245   -0.01101   -0.01138
 26 Ag   -0.01307    0.00209   -0.01079
 27 Ag   -0.00108   -0.03783    0.01110
 28 Ag   -0.00555   -0.02207   -0.02413
 29 Pt    0.00994   -0.01640   -0.00993
 30 Ag   -0.00385   -0.03424   -0.00776
 31 Pd   -0.00374   -0.02143   -0.01265
 32 Ru   -0.00008   -0.02280    0.00890
 33 Pd   -0.01511    0.00022    0.00785
 34 Pt    0.03111   -0.02710    0.01209
 35 Pd    0.00908   -0.02236    0.00210
 36 Pt    0.02964   -0.01871   -0.00363
 37 Pt   -0.02151   -0.00070    0.03849
 38 Ag   -0.03254    0.00747    0.01151
 39 Pt   -0.01752   -0.00826   -0.01365
 40 Ru   -0.00995   -0.00854   -0.00411
 41 Pt   -0.01437    0.00056   -0.01039
 42 Ir    0.03947    0.01662   -0.07700
 43 Pt   -0.00663    0.00174   -0.02629
 44 Ag    0.00051   -0.03349    0.01693
 45 O    -0.04246   -0.04124   -0.01707

Timing:                                      incl.     excl.
-------------------------------------------------------------------
Density initialized from wave functions:    38.047    38.047   0.2% |
 Symmetrize density:                         0.001     0.001   0.0% |
Forces:                                    189.263   189.263   1.2% |
Hamiltonian:                                20.182     0.118   0.0% |
 Atomic:                                     1.362     0.284   0.0% |
  XC Correction:                             1.079     1.079   0.0% |
 Calculate atomic Hamiltonians:             13.296    13.296   0.1% |
 Communicate:                                2.090     2.090   0.0% |
 Initialize Hamiltonian:                     0.000     0.000   0.0% |
 Poisson:                                    0.072     0.072   0.0% |
 XC 3D grid:                                 3.244     3.244   0.0% |
LCAO initialization:                       130.938     2.629   0.0% |
 LCAO eigensolver:                          15.374     0.001   0.0% |
  Blacs Orbital Layouts:                     0.279     0.000   0.0% |
   General diagonalize:                      0.274     0.274   0.0% |
   Redistribute coefs:                       0.002     0.002   0.0% |
   Send coefs to domains:                    0.002     0.002   0.0% |
  Calculate projections:                     0.003     0.003   0.0% |
  Distribute overlap matrix:                14.319     0.000   0.0% |
   Scalapack redistribute:                   0.008     0.008   0.0% |
   blocked summation:                       14.310    14.310   0.1% |
  Potential matrix:                          0.735     0.735   0.0% |
  SparseAtomicCorrection:                    0.004     0.004   0.0% |
  Sum over cells:                            0.034     0.034   0.0% |
 LCAO to grid:                             109.486   109.486   0.7% |
 Set positions (LCAO WFS):                   3.448     0.006   0.0% |
  Basic WFS set positions:                   0.003     0.003   0.0% |
  Basis functions set positions:             0.000     0.000   0.0% |
  P tci:                                     0.000     0.000   0.0% |
  ST tci:                                    0.295     0.295   0.0% |
  Scalapack redistribute:                    0.007     0.007   0.0% |
  blocked summation:                         3.023     3.023   0.0% |
  mktci:                                     0.114     0.114   0.0% |
PWDescriptor:                                0.547     0.547   0.0% |
Redistribute:                                0.014     0.014   0.0% |
SCF-cycle:                               15866.348   355.183   2.2% ||
 Davidson:                               14445.041  3321.982  20.4% |-------|
  Apply H:                                1484.875  1459.370   8.9% |---|
   HMM T:                                   25.505    25.505   0.2% |
  Subspace diag:                          1648.097     0.054   0.0% |
   calc_h_matrix:                         1073.577   322.892   2.0% ||
    Apply H:                               750.686   736.490   4.5% |-|
     HMM T:                                 14.196    14.196   0.1% |
   diagonalize:                             51.906    51.906   0.3% |
   rotate_psi:                             522.560   522.560   3.2% ||
  calc. matrices:                         5519.736  3326.531  20.4% |-------|
   Apply H:                               2193.206  2154.378  13.2% |----|
    HMM T:                                  38.828    38.828   0.2% |
  diagonalize:                             827.685   827.685   5.1% |-|
  rotate_psi:                             1642.664  1642.664  10.1% |---|
 Density:                                  666.049     0.010   0.0% |
  Atomic density matrices:                   4.745     4.745   0.0% |
  Mix:                                     248.120   248.120   1.5% ||
  Multipole moments:                         0.404     0.404   0.0% |
  Pseudo density:                          412.769   412.757   2.5% ||
   Symmetrize density:                       0.012     0.012   0.0% |
 Hamiltonian:                              343.523     1.940   0.0% |
  Atomic:                                   24.520     6.998   0.0% |
   XC Correction:                           17.522    17.522   0.1% |
  Calculate atomic Hamiltonians:           221.629   221.629   1.4% ||
  Communicate:                              36.578    36.578   0.2% |
  Poisson:                                   1.201     1.201   0.0% |
  XC 3D grid:                               57.656    57.656   0.4% |
 Orthonormalize:                            56.553     0.005   0.0% |
  calc_s_matrix:                             9.303     9.303   0.1% |
  inverse-cholesky:                          2.704     2.704   0.0% |
  projections:                              29.147    29.147   0.2% |
  rotate_psi_s:                             15.393    15.393   0.1% |
Set symmetry:                                0.003     0.003   0.0% |
Other:                                      67.316    67.316   0.4% |
-------------------------------------------------------------------
Total:                                             16312.658 100.0%

Memory usage: 858.41 MiB
Date: Fri Jun 14 18:31:55 2024
