
  ___ ___ ___ _ _ _  
 |   |   |_  | | | | 
 | | | | | . | | | | 
 |__ |  _|___|_____|  22.1.0
 |___|_|             

User:   clausen@node423.cluster
Date:   Thu Jun 13 20:19:02 2024
Arch:   x86_64
Pid:    157708
Python: 3.10.4
gpaw:   /groups/kemi/clausen/miniconda3/envs/gpaw22/lib/python3.10/site-packages/gpaw
_gpaw:  /groups/kemi/clausen/miniconda3/envs/gpaw22/lib/python3.10/site-packages/
        _gpaw.cpython-310-x86_64-linux-gnu.so
ase:    /groups/kemi/clausen/miniconda3/envs/gpaw22/lib/python3.10/site-packages/ase (version 3.22.1)
numpy:  /groups/kemi/clausen/miniconda3/envs/gpaw22/lib/python3.10/site-packages/numpy (version 1.23.1)
scipy:  /groups/kemi/clausen/miniconda3/envs/gpaw22/lib/python3.10/site-packages/scipy (version 1.8.1)
libxc:  5.2.3
units:  Angstrom and eV
cores: 24
OpenMP: True
OMP_NUM_THREADS: 1

Input parameters:
  eigensolver: {name: dav,
                niter: 3}
  kpts: [4 4 1]
  mixer: {backend: pulay,
          beta: 0.05,
          method: difference,
          nmaxold: 5,
          weight: 50.0}
  mode: {ecut: 400.0,
         name: pw}
  xc: RPBE

System changes: positions, numbers, cell, pbc, initial_charges, initial_magmoms 

Initialize ...

Pd-setup:
  name: Palladium
  id: 6da19bfba079f22767af9506641940b9
  Z: 46.0
  valence: 16
  core: 30
  charge: 0.0
  file: /groups/kemi/clausen/miniconda3/envs/gpaw22/share/gpaw/Pd.RPBE.gz
  compensation charges: gauss, rc=0.38, lmax=2
  cutoffs: 2.38(filt), 2.28(core),
  valence states:
                energy  radius
    5s(0.00)    -3.225   1.228
    4p(6.00)   -51.131   1.360
    5p(0.00)    -0.373   1.360
    4d(10.00)    -3.964   1.228
    *s          23.987   1.228
    *d          23.247   1.228

  Using partial waves for Pd as LCAO basis

Pt-setup:
  name: Platinum
  id: f04f522592575c47ad794f6b4a415b4b
  Z: 78.0
  valence: 16
  core: 62
  charge: 0.0
  file: /groups/kemi/clausen/miniconda3/envs/gpaw22/share/gpaw/Pt.RPBE.gz
  compensation charges: gauss, rc=0.41, lmax=2
  cutoffs: 2.26(filt), 2.26(core),
  valence states:
                energy  radius
    6s(1.00)    -5.516   1.307
    5p(6.00)   -55.971   1.371
    6p(0.00)    -0.856   1.371
    5d(9.00)    -6.087   1.307
    *s          21.695   1.307
    *d          21.125   1.307

  Using partial waves for Pt as LCAO basis

Ru-setup:
  name: Ruthenium
  id: 76477906e28f51dc1b29884d53556fe9
  Z: 44.0
  valence: 16
  core: 28
  charge: 0.0
  file: /groups/kemi/clausen/miniconda3/envs/gpaw22/share/gpaw/Ru.RPBE.gz
  compensation charges: gauss, rc=0.39, lmax=2
  cutoffs: 2.16(filt), 1.30(core),
  valence states:
                energy  radius
    4s(2.00)   -76.255   1.281
    5s(1.00)    -4.126   1.281
    4p(6.00)   -46.371   1.286
    5p(0.00)    -0.913   1.286
    4d(7.00)    -5.146   1.254
    *d          22.066   1.254

  Using partial waves for Ru as LCAO basis

Ag-setup:
  name: Silver
  id: c05e55bab2c3858b3f9398f6d75cb77c
  Z: 47.0
  valence: 17
  core: 30
  charge: 0.0
  file: /groups/kemi/clausen/miniconda3/envs/gpaw22/share/gpaw/Ag.RPBE.gz
  compensation charges: gauss, rc=0.40, lmax=2
  cutoffs: 2.35(filt), 2.19(core),
  valence states:
                energy  radius
    5s(1.00)    -4.277   1.286
    4p(6.00)   -58.523   1.328
    5p(0.00)    -0.755   1.328
    4d(10.00)    -7.386   1.180
    *s          22.934   1.286
    *d          19.826   1.180

  Using partial waves for Ag as LCAO basis

Ir-setup:
  name: Iridium
  id: 73b603359d1d5397a85ae3c2440f9033
  Z: 77.0
  valence: 15
  core: 62
  charge: 0.0
  file: /groups/kemi/clausen/miniconda3/envs/gpaw22/share/gpaw/Ir.RPBE.gz
  compensation charges: gauss, rc=0.40, lmax=2
  cutoffs: 2.40(filt), 2.36(core),
  valence states:
                energy  radius
    6s(2.00)    -6.219   1.296
    5p(6.00)   -54.684   1.328
    6p(0.00)    -1.215   1.328
    5d(7.00)    -7.118   1.286
    *s          20.992   1.296
    *d          20.093   1.286

  Using partial waves for Ir as LCAO basis

O-setup:
  name: Oxygen
  id: 08071ca1eed670e7821b24b7eb4d558c
  Z: 8.0
  valence: 6
  core: 2
  charge: 0.0
  file: /groups/kemi/clausen/miniconda3/envs/gpaw22/share/gpaw/O.RPBE.gz
  compensation charges: gauss, rc=0.21, lmax=2
  cutoffs: 1.17(filt), 0.83(core),
  valence states:
                energy  radius
    2s(2.00)   -24.041   0.688
    2p(4.00)    -8.984   0.598
    *s           3.170   0.688
    *p          18.228   0.598
    *d           0.000   0.619

  Using partial waves for O as LCAO basis

Reference energy: -14174778.458134

Spin-paired calculation

Convergence criteria:
 Maximum [total energy] change in last 3 cyles: 0.0005 eV / electron
 Maximum integral of absolute [dens]ity change: 0.0001 electrons / valence electron
 Maximum integral of absolute [eigenst]ate change: 4e-08 eV^2 / valence electron
 Maximum number of scf [iter]ations: 333
 (Square brackets indicate name in SCF output, whereas a 'c' in
 the SCF output indicates the quantity has converged.)

Symmetries present (total): 1

  ( 1  0  0)
  ( 0  1  0)
  ( 0  0  1)

16 k-points: 4 x 4 x 1 Monkhorst-Pack grid
8 k-points in the irreducible part of the Brillouin zone
       k-points in crystal coordinates                weights
   0:     0.12500000   -0.37500000    0.00000000          2/16
   1:     0.12500000   -0.12500000    0.00000000          2/16
   2:     0.12500000    0.12500000    0.00000000          2/16
   3:     0.12500000    0.37500000    0.00000000          2/16
   4:     0.37500000   -0.37500000    0.00000000          2/16
   5:     0.37500000   -0.12500000    0.00000000          2/16
   6:     0.37500000    0.12500000    0.00000000          2/16
   7:     0.37500000    0.37500000    0.00000000          2/16

Wave functions: Plane wave expansion
  Cutoff energy: 400.000 eV
  Number of coefficients (min, max): 33332, 33436
  Pulay-stress correction: 0.000000 eV/Ang^3 (de/decut=0.000000)
  Using FFTW library
  ScaLapack parameters: grid=3x1, blocksize=64
  Wavefunction extrapolation:
    Improved wavefunction reuse through dual PAW basis 

Occupation numbers: Fermi-Dirac: width=0.1000 eV
 

Eigensolver
   Davidson(niter=3) 

Densities:
  Coarse grid: 40*40*140 grid
  Fine grid: 80*80*280 grid
  Total Charge: 0.000000 

Density mixing:
  Method: separate
  Backend: pulay
  Linear mixing parameter: 0.05
  Mixing with 5 old densities
  Damping of long wave oscillations: 50 

Hamiltonian:
  XC and Coulomb potentials evaluated on a 80*80*280 grid
  Using the RPBE Exchange-Correlation functional
  External potential:
    NoExternalPotential
 

XC parameters: RPBE with 2 nearest neighbor stencil

Memory estimate:
  Process memory now: 192.27 MiB
  Calculator: 558.14 MiB
    Density: 47.45 MiB
      Arrays: 14.92 MiB
      Localized functions: 26.79 MiB
      Mixer: 5.74 MiB
    Hamiltonian: 10.59 MiB
      Arrays: 9.75 MiB
      XC: 0.00 MiB
      Poisson: 0.00 MiB
      vbar: 0.84 MiB
    Wavefunctions: 500.10 MiB
      Arrays psit_nG: 226.53 MiB
      Eigensolver: 259.17 MiB
      Projections: 1.86 MiB
      Projectors: 3.74 MiB
      PW-descriptor: 8.80 MiB

Total number of cores used: 24
Parallelization over k-points: 8
Domain decomposition: 1 x 1 x 3
                      2 x 2 x 6 (xc only)

Number of atoms: 46
Number of atomic orbitals: 546
Number of bands in calculation: 444
Number of valence electrons: 732
Bands to converge: occupied

... initialized

Initializing position-dependent things.

Density initialized from atomic densities
Creating initial wave functions:
  444 bands from LCAO basis set

                                             
                                             
                                             
                                             
                                             
                                             
                        Ag                   
                 Pt            Pt            
            Pt    OPd    APd    Pt           
                                             
       Pt    IPt    PPt    Pd                
                                             
        Pt     Pd    APd    Pt     Ag        
                Pt     Pd     Pt             
                                             
           Pt    APt    ARu    Pt            
                                             
            Pd    PPt    PAg    Ru           
       Pd     Pt     Pd                      
             Pd     Pd     Pt                
        Pd     Pt     Pt                     
                                             
                                             
                                             
                                             
                                             

Positions:
   0 Pd     0.000000    1.639149   10.000000    ( 0.0000,  0.0000,  0.0000)
   1 Pt     2.839089    1.639149   10.000000    ( 0.0000,  0.0000,  0.0000)
   2 Pt     5.678177    1.639149   10.000000    ( 0.0000,  0.0000,  0.0000)
   3 Pd     1.419544    4.097872   10.000000    ( 0.0000,  0.0000,  0.0000)
   4 Pd     4.258633    4.097872   10.000000    ( 0.0000,  0.0000,  0.0000)
   5 Pt     7.097722    4.097872   10.000000    ( 0.0000,  0.0000,  0.0000)
   6 Pd     2.839089    6.556595   10.000000    ( 0.0000,  0.0000,  0.0000)
   7 Pt     5.678177    6.556595   10.000000    ( 0.0000,  0.0000,  0.0000)
   8 Ru     8.517266    6.556595   10.000000    ( 0.0000,  0.0000,  0.0000)
   9 Pd     0.000000    0.000000   12.317643    ( 0.0000,  0.0000,  0.0000)
  10 Pt     2.839089    0.000000   12.317643    ( 0.0000,  0.0000,  0.0000)
  11 Pd     5.678177    0.000000   12.317643    ( 0.0000,  0.0000,  0.0000)
  12 Pd     1.419544    2.458723   12.317643    ( 0.0000,  0.0000,  0.0000)
  13 Pt     4.258633    2.458723   12.317643    ( 0.0000,  0.0000,  0.0000)
  14 Ag     7.097722    2.458723   12.317643    ( 0.0000,  0.0000,  0.0000)
  15 Ag     2.839089    4.917446   12.317643    ( 0.0000,  0.0000,  0.0000)
  16 Ag     5.678177    4.917446   12.317643    ( 0.0000,  0.0000,  0.0000)
  17 Pt     8.517266    4.917446   12.317643    ( 0.0000,  0.0000,  0.0000)
  18 Pt     1.382601    0.802015   14.574458    ( 0.0000,  0.0000,  0.0000)
  19 Pt     4.320375    0.816336   14.613039    ( 0.0000,  0.0000,  0.0000)
  20 Ru     7.144265    0.918131   14.702206    ( 0.0000,  0.0000,  0.0000)
  21 Pt     2.831254    3.224549   14.674209    ( 0.0000,  0.0000,  0.0000)
  22 Pd     5.669505    3.253449   14.666412    ( 0.0000,  0.0000,  0.0000)
  23 Pt     8.531860    3.282380   14.648110    ( 0.0000,  0.0000,  0.0000)
  24 Ag     4.274318    5.722991   14.646070    ( 0.0000,  0.0000,  0.0000)
  25 Pt     7.164045    5.771726   14.621475    ( 0.0000,  0.0000,  0.0000)
  26 Ag     9.986908    5.738787   14.643456    ( 0.0000,  0.0000,  0.0000)
  27 Pt    -0.010030    1.649760   16.860047    ( 0.0000,  0.0000,  0.0000)
  28 Pd     2.846447    1.596866   16.907942    ( 0.0000,  0.0000,  0.0000)
  29 Pd     5.675289    1.629573   16.927321    ( 0.0000,  0.0000,  0.0000)
  30 Ir     1.434330    4.054121   16.976739    ( 0.0000,  0.0000,  0.0000)
  31 Pt     4.206017    4.046333   16.977057    ( 0.0000,  0.0000,  0.0000)
  32 Pd     7.080668    4.096815   16.929692    ( 0.0000,  0.0000,  0.0000)
  33 Pd     2.838049    6.583929   16.905471    ( 0.0000,  0.0000,  0.0000)
  34 Ag     5.672922    6.523405   16.970943    ( 0.0000,  0.0000,  0.0000)
  35 Pt     8.525101    6.536969   16.950374    ( 0.0000,  0.0000,  0.0000)
  36 Pt    -0.017716    0.053004   19.239954    ( 0.0000,  0.0000,  0.0000)
  37 Pt     2.857597    0.044181   19.266473    ( 0.0000,  0.0000,  0.0000)
  38 Pt     5.659519   -0.012970   19.233800    ( 0.0000,  0.0000,  0.0000)
  39 Pt     1.394642    2.415452   19.172426    ( 0.0000,  0.0000,  0.0000)
  40 Pd     4.249890    2.430035   19.273035    ( 0.0000,  0.0000,  0.0000)
  41 Pd     7.120027    2.427105   19.248801    ( 0.0000,  0.0000,  0.0000)
  42 Pt     2.796750    4.960022   19.159701    ( 0.0000,  0.0000,  0.0000)
  43 Ag     5.679377    4.925181   19.423236    ( 0.0000,  0.0000,  0.0000)
  44 Pt     8.558870    4.929592   19.192007    ( 0.0000,  0.0000,  0.0000)
  45 O      4.255668    0.820415   20.723236    ( 0.0000,  0.0000,  0.0000)

Unit cell:
           periodic     x           y           z      points  spacing
  1. axis:    yes    8.517266    0.000000    0.000000    40     0.1844
  2. axis:    yes    4.258633    7.376169    0.000000    40     0.1844
  3. axis:    no     0.000000    0.000000   29.270571   140     0.2091

  Lengths:   8.517266   8.517266  29.270571
  Angles:   90.000000  90.000000  60.000000

Effective grid spacing dv^(1/3) = 0.2017

     iter     time        total  log10-change:
                         energy  eigst   dens
iter:   1 20:22:23  -256.583110
iter:   2 20:23:23  -223.253774  -1.65  -1.20
iter:   3 20:24:23  -294.019287  -1.99  -1.36
iter:   4 20:25:23  -214.704176  -2.28  -1.18
iter:   5 20:26:24  -207.336688  -2.53  -1.44
iter:   6 20:27:25  -204.562031  -3.13  -1.57
iter:   7 20:28:26  -202.119747  -2.82  -1.64
iter:   8 20:29:26  -205.380471  -2.64  -1.79
iter:   9 20:30:27  -201.717496  -3.20  -1.82
iter:  10 20:31:27  -201.316971  -3.79  -2.01
iter:  11 20:32:28  -200.968545  -3.84  -2.08
iter:  12 20:33:29  -200.937745  -4.14  -2.19
iter:  13 20:34:31  -200.807510c -3.82  -2.23
iter:  14 20:35:31  -200.749301c -4.29  -2.34
iter:  15 20:36:32  -200.793081c -4.20  -2.41
iter:  16 20:37:32  -200.635241c -4.62  -2.39
iter:  17 20:38:32  -200.612591c -4.66  -2.53
iter:  18 20:39:32  -200.547848c -4.70  -2.57
iter:  19 20:40:33  -200.539107c -5.00  -2.71
iter:  20 20:41:33  -200.572922c -4.59  -2.73
iter:  21 20:42:34  -200.519989c -5.30  -2.68
iter:  22 20:43:34  -200.502570c -4.78  -2.94
iter:  23 20:44:34  -200.496286c -5.73  -3.05
iter:  24 20:45:34  -200.498135c -6.08  -3.28
iter:  25 20:46:35  -200.497222c -6.21  -3.35
iter:  26 20:47:36  -200.495881c -6.64  -3.34
iter:  27 20:48:36  -200.497343c -6.04  -3.50
iter:  28 20:49:37  -200.495683c -6.50  -3.59
iter:  29 20:50:37  -200.496727c -6.60  -3.62
iter:  30 20:51:38  -200.499132c -6.65  -3.70
iter:  31 20:52:38  -200.496931c -7.27  -3.50
iter:  32 20:53:39  -200.495910c -7.09  -3.82
iter:  33 20:54:39  -200.496867c -7.06  -3.89
iter:  34 20:55:40  -200.496383c -7.18  -3.82
iter:  35 20:56:41  -200.496608c -7.27  -4.01c
iter:  36 20:57:42  -200.496306c -7.39  -4.05c
iter:  37 20:58:43  -200.496524c -7.54c -4.31c

Converged after 37 iterations.

Dipole moment: (27.911797, 10.106614, -0.197650) |e|*Ang

Energy contributions relative to reference atoms: (reference = -14174778.458134)

Kinetic:       -326.464483
Potential:     +180.931353
External:        +0.000000
XC:             -42.675949
Entropy (-ST):   -2.334857
Local:          -11.120017
--------------------------
Free energy:   -201.663952
Extrapolated:  -200.496524

Showing only first 2 kpts
 Kpt  Band  Eigenvalues  Occupancy
  0   364      0.60312    1.03499
  0   365      0.64102    0.84671
  0   366      0.66717    0.72225
  0   367      0.70030    0.57739

  1   364      0.50404    1.48571
  1   365      0.54292    1.32392
  1   366      0.55290    1.27858
  1   367      0.57553    1.17126


Fermi level: 0.61012

No gap

Forces in eV/Ang:
  0 Pd    0.00874   -0.00543   -0.26781
  1 Pt    0.30818   -0.52369    0.37090
  2 Pt   -0.34092   -0.14519    0.00905
  3 Pd   -0.41620    0.18322   -0.08632
  4 Pd    0.22123   -0.22473   -0.24134
  5 Pt    0.23119    0.31501   -0.20105
  6 Pd   -0.21570    0.22908   -0.09809
  7 Pt    0.55142    0.16745    0.07242
  8 Ru   -0.48913    0.05711    1.33182
  9 Pd   -0.22904    0.17242    0.18371
 10 Pt    0.29464    0.00990   -0.21661
 11 Pd    0.03951    0.04528   -0.06579
 12 Pd    0.08070    0.10892   -0.00562
 13 Pt   -0.18869   -0.17804    0.17311
 14 Ag    0.05072   -0.12715    0.08079
 15 Ag   -0.01101   -0.06843   -0.10475
 16 Ag   -0.06236   -0.05645    0.08616
 17 Pt    0.03619    0.22376   -0.57453
 18 Pt    0.00734    0.01677    0.03712
 19 Pt    0.02799    0.02213    0.00744
 20 Ru    0.00042   -0.03332   -0.10701
 21 Pt    0.03887    0.00290   -0.01913
 22 Pd    0.04168    0.00257    0.00176
 23 Pt   -0.02914   -0.04715    0.01457
 24 Ag    0.04137   -0.01175   -0.05121
 25 Pt   -0.02494   -0.02542    0.00560
 26 Ag    0.01385    0.01623   -0.04373
 27 Pt    0.04190    0.11925   -0.05106
 28 Pd   -0.05934   -0.05030   -0.16001
 29 Pd    0.08436   -0.02377   -0.19731
 30 Ir   -0.01239    0.00170   -0.01037
 31 Pt   -0.03492   -0.15599    0.21397
 32 Pd   -0.00845   -0.04166    0.01276
 33 Pd   -0.15613    0.07762    0.29782
 34 Ag    0.07539    0.00073    0.14342
 35 Pt    0.00719   -0.15196   -0.33704
 36 Pt    0.00514   -0.13054   -0.11947
 37 Pt   -0.06053   -0.03827    0.84126
 38 Pt    0.11117    0.12235    0.86993
 39 Pt   -0.26985    0.29714   -0.13687
 40 Pd    0.00609    0.42683    0.31160
 41 Pd    0.13279    0.14600   -0.06071
 42 Pt    0.00660    0.04820   -0.10119
 43 Ag   -0.02150    0.01679    0.04496
 44 Pt    0.02253   -0.39298   -0.13208
 45 O     0.14309   -0.39876   -1.78646

System changes: positions 

Initializing position-dependent things.

Density initialized from wave functions
                                             
                                             
                                             
                                             
                                             
                                             
                        Ag                   
                 Pt            Pt            
            Pt    OPd    APd    Pt           
                                             
       Pt    IPt    PPt    Pd                
                                             
        Pt     Pd    APd    Pt     Ag        
                Pt     Pd     Pt             
                                             
           Pt    APt    ARu    Pt            
                                             
            Pd    PPt    PAg    Ru           
       Pd     Pt     Pd                      
             Pd     Pd     Pt                
        Pd     Pt     Pt                     
                                             
                                             
                                             
                                             
                                             

Positions:
   0 Pd     0.000000    1.639149   10.000000    ( 0.0000,  0.0000,  0.0000)
   1 Pt     2.839089    1.639149   10.000000    ( 0.0000,  0.0000,  0.0000)
   2 Pt     5.678177    1.639149   10.000000    ( 0.0000,  0.0000,  0.0000)
   3 Pd     1.419544    4.097872   10.000000    ( 0.0000,  0.0000,  0.0000)
   4 Pd     4.258633    4.097872   10.000000    ( 0.0000,  0.0000,  0.0000)
   5 Pt     7.097722    4.097872   10.000000    ( 0.0000,  0.0000,  0.0000)
   6 Pd     2.839089    6.556595   10.000000    ( 0.0000,  0.0000,  0.0000)
   7 Pt     5.678177    6.556595   10.000000    ( 0.0000,  0.0000,  0.0000)
   8 Ru     8.517266    6.556595   10.000000    ( 0.0000,  0.0000,  0.0000)
   9 Pd     0.000000    0.000000   12.317643    ( 0.0000,  0.0000,  0.0000)
  10 Pt     2.839089    0.000000   12.317643    ( 0.0000,  0.0000,  0.0000)
  11 Pd     5.678177    0.000000   12.317643    ( 0.0000,  0.0000,  0.0000)
  12 Pd     1.419544    2.458723   12.317643    ( 0.0000,  0.0000,  0.0000)
  13 Pt     4.258633    2.458723   12.317643    ( 0.0000,  0.0000,  0.0000)
  14 Ag     7.097722    2.458723   12.317643    ( 0.0000,  0.0000,  0.0000)
  15 Ag     2.839089    4.917446   12.317643    ( 0.0000,  0.0000,  0.0000)
  16 Ag     5.678177    4.917446   12.317643    ( 0.0000,  0.0000,  0.0000)
  17 Pt     8.517266    4.917446   12.317643    ( 0.0000,  0.0000,  0.0000)
  18 Pt     1.382706    0.802255   14.574988    ( 0.0000,  0.0000,  0.0000)
  19 Pt     4.320775    0.816652   14.613145    ( 0.0000,  0.0000,  0.0000)
  20 Ru     7.144271    0.917655   14.700677    ( 0.0000,  0.0000,  0.0000)
  21 Pt     2.831809    3.224590   14.673936    ( 0.0000,  0.0000,  0.0000)
  22 Pd     5.670100    3.253485   14.666437    ( 0.0000,  0.0000,  0.0000)
  23 Pt     8.531444    3.281707   14.648319    ( 0.0000,  0.0000,  0.0000)
  24 Ag     4.274909    5.722823   14.645339    ( 0.0000,  0.0000,  0.0000)
  25 Pt     7.163688    5.771363   14.621555    ( 0.0000,  0.0000,  0.0000)
  26 Ag     9.987106    5.739018   14.642831    ( 0.0000,  0.0000,  0.0000)
  27 Pt    -0.009431    1.651464   16.859317    ( 0.0000,  0.0000,  0.0000)
  28 Pd     2.845600    1.596147   16.905656    ( 0.0000,  0.0000,  0.0000)
  29 Pd     5.676494    1.629233   16.924502    ( 0.0000,  0.0000,  0.0000)
  30 Ir     1.434153    4.054145   16.976591    ( 0.0000,  0.0000,  0.0000)
  31 Pt     4.205518    4.044105   16.980114    ( 0.0000,  0.0000,  0.0000)
  32 Pd     7.080547    4.096220   16.929875    ( 0.0000,  0.0000,  0.0000)
  33 Pd     2.835818    6.585038   16.909725    ( 0.0000,  0.0000,  0.0000)
  34 Ag     5.673999    6.523416   16.972991    ( 0.0000,  0.0000,  0.0000)
  35 Pt     8.525204    6.534798   16.945559    ( 0.0000,  0.0000,  0.0000)
  36 Pt    -0.017642    0.051139   19.238248    ( 0.0000,  0.0000,  0.0000)
  37 Pt     2.856732    0.043635   19.278491    ( 0.0000,  0.0000,  0.0000)
  38 Pt     5.661107   -0.011222   19.246228    ( 0.0000,  0.0000,  0.0000)
  39 Pt     1.390787    2.419697   19.170471    ( 0.0000,  0.0000,  0.0000)
  40 Pd     4.249977    2.436132   19.277486    ( 0.0000,  0.0000,  0.0000)
  41 Pd     7.121924    2.429191   19.247934    ( 0.0000,  0.0000,  0.0000)
  42 Pt     2.796844    4.960710   19.158256    ( 0.0000,  0.0000,  0.0000)
  43 Ag     5.679070    4.925421   19.423878    ( 0.0000,  0.0000,  0.0000)
  44 Pt     8.559192    4.923978   19.190120    ( 0.0000,  0.0000,  0.0000)
  45 O      4.257713    0.814719   20.697715    ( 0.0000,  0.0000,  0.0000)

Unit cell:
           periodic     x           y           z      points  spacing
  1. axis:    yes    8.517266    0.000000    0.000000    40     0.1844
  2. axis:    yes    4.258633    7.376169    0.000000    40     0.1844
  3. axis:    no     0.000000    0.000000   29.270571   140     0.2091

  Lengths:   8.517266   8.517266  29.270571
  Angles:   90.000000  90.000000  60.000000

Effective grid spacing dv^(1/3) = 0.2017

     iter     time        total  log10-change:
                         energy  eigst   dens
iter:   1 21:00:04  -200.744702  -4.21
iter:   2 21:01:04  -203.641875  -3.96  -2.66
iter:   3 21:02:04  -202.067723  -3.87  -1.99
iter:   4 21:03:04  -200.701721  -4.72  -2.14
iter:   5 21:04:04  -200.597691  -5.65  -2.70
iter:   6 21:05:05  -200.592951c -5.96  -3.31
iter:   7 21:06:05  -200.593403c -6.01  -3.19
iter:   8 21:07:04  -200.583232c -6.30  -3.34
iter:   9 21:08:04  -200.582797c -6.86  -3.71
iter:  10 21:09:04  -200.585626c -6.47  -3.70
iter:  11 21:10:04  -200.581481c -6.61  -3.47
iter:  12 21:11:04  -200.580770c -7.24  -3.89
iter:  13 21:12:04  -200.581248c -7.56c -3.98
iter:  14 21:13:05  -200.581205c -7.98c -4.16c

Converged after 14 iterations.

Dipole moment: (28.109159, 10.081991, -0.182484) |e|*Ang

Energy contributions relative to reference atoms: (reference = -14174778.458134)

Kinetic:       -330.361176
Potential:     +184.698039
External:        +0.000000
XC:             -42.687483
Entropy (-ST):   -2.327918
Local:          -11.066625
--------------------------
Free energy:   -201.745164
Extrapolated:  -200.581205

Showing only first 2 kpts
 Kpt  Band  Eigenvalues  Occupancy
  0   364      0.60986    1.03769
  0   365      0.64777    0.84932
  0   366      0.67422    0.72335
  0   367      0.70772    0.57679

  1   364      0.51049    1.48888
  1   365      0.55009    1.32443
  1   366      0.55920    1.28309
  1   367      0.58259    1.17234


Fermi level: 0.61741

No gap

Forces in eV/Ang:
  0 Pd    0.01066   -0.00463   -0.26724
  1 Pt    0.30702   -0.52560    0.36999
  2 Pt   -0.34213   -0.14714    0.00785
  3 Pd   -0.41655    0.18326   -0.08872
  4 Pd    0.22109   -0.22454   -0.24460
  5 Pt    0.23102    0.31806   -0.20267
  6 Pd   -0.21731    0.22787   -0.10101
  7 Pt    0.55410    0.16584    0.07089
  8 Ru   -0.48957    0.05719    1.32619
  9 Pd   -0.22537    0.17329    0.17801
 10 Pt    0.29532    0.01020   -0.22069
 11 Pd    0.03493    0.04441   -0.07275
 12 Pd    0.07928    0.10551   -0.01085
 13 Pt   -0.18868   -0.18207    0.16621
 14 Ag    0.05179   -0.12516    0.07307
 15 Ag   -0.01202   -0.06659   -0.10354
 16 Ag   -0.05963   -0.05513    0.08139
 17 Pt    0.03407    0.22585   -0.57746
 18 Pt    0.00542    0.00486    0.03481
 19 Pt    0.02487    0.02005    0.00281
 20 Ru    0.00457   -0.04189   -0.08905
 21 Pt    0.03733    0.01436   -0.01280
 22 Pd    0.03207    0.01200    0.00263
 23 Pt   -0.01992   -0.03284    0.00032
 24 Ag    0.03252   -0.01102   -0.01872
 25 Pt   -0.03397   -0.02747   -0.00613
 26 Ag    0.02912    0.00933   -0.04114
 27 Pt    0.03185    0.06470   -0.04688
 28 Pd   -0.03002   -0.08241   -0.08153
 29 Pd    0.05497   -0.05642   -0.12342
 30 Ir    0.01180    0.02238   -0.04103
 31 Pt   -0.02514   -0.14176    0.17355
 32 Pd   -0.03230   -0.02571    0.00530
 33 Pd   -0.14220    0.08107    0.26002
 34 Ag    0.07469    0.00857    0.13767
 35 Pt    0.01378   -0.09065   -0.20971
 36 Pt    0.01413   -0.09299   -0.10155
 37 Pt   -0.17156   -0.06349    0.64354
 38 Pt    0.17186    0.05374    0.68101
 39 Pt   -0.20848    0.22209   -0.11467
 40 Pd   -0.01403    0.44873    0.20479
 41 Pd    0.09844    0.10622   -0.05743
 42 Pt   -0.00896    0.06399   -0.06811
 43 Ag   -0.00952    0.02365    0.04684
 44 Pt    0.02052   -0.30559   -0.13395
 45 O     0.15856   -0.38166   -1.51972

System changes: positions 

Initializing position-dependent things.

Density initialized from wave functions
                                             
                                             
                                             
                                             
                                             
                                             
                        Ag                   
                 Pt            Pt            
            Pt    OPd    APd    Pt           
                                             
       Pt    IPt    PPt    Pd                
                                             
        Pt     Pd    APd    Pt     Ag        
                Pt     Pd     Pt             
                                             
           Pt    APt    ARu    Pt            
                                             
            Pd    PPt    PAg    Ru           
       Pd    PPt    PPd    Pt                
                                             
        Pd     Pt     Pt                     
                                             
                                             
                                             
                                             
                                             

Positions:
   0 Pd     0.000000    1.639149   10.000000    ( 0.0000,  0.0000,  0.0000)
   1 Pt     2.839089    1.639149   10.000000    ( 0.0000,  0.0000,  0.0000)
   2 Pt     5.678177    1.639149   10.000000    ( 0.0000,  0.0000,  0.0000)
   3 Pd     1.419544    4.097872   10.000000    ( 0.0000,  0.0000,  0.0000)
   4 Pd     4.258633    4.097872   10.000000    ( 0.0000,  0.0000,  0.0000)
   5 Pt     7.097722    4.097872   10.000000    ( 0.0000,  0.0000,  0.0000)
   6 Pd     2.839089    6.556595   10.000000    ( 0.0000,  0.0000,  0.0000)
   7 Pt     5.678177    6.556595   10.000000    ( 0.0000,  0.0000,  0.0000)
   8 Ru     8.517266    6.556595   10.000000    ( 0.0000,  0.0000,  0.0000)
   9 Pd     0.000000    0.000000   12.317643    ( 0.0000,  0.0000,  0.0000)
  10 Pt     2.839089    0.000000   12.317643    ( 0.0000,  0.0000,  0.0000)
  11 Pd     5.678177    0.000000   12.317643    ( 0.0000,  0.0000,  0.0000)
  12 Pd     1.419544    2.458723   12.317643    ( 0.0000,  0.0000,  0.0000)
  13 Pt     4.258633    2.458723   12.317643    ( 0.0000,  0.0000,  0.0000)
  14 Ag     7.097722    2.458723   12.317643    ( 0.0000,  0.0000,  0.0000)
  15 Ag     2.839089    4.917446   12.317643    ( 0.0000,  0.0000,  0.0000)
  16 Ag     5.678177    4.917446   12.317643    ( 0.0000,  0.0000,  0.0000)
  17 Pt     8.517266    4.917446   12.317643    ( 0.0000,  0.0000,  0.0000)
  18 Pt     1.383197    0.802754   14.578087    ( 0.0000,  0.0000,  0.0000)
  19 Pt     4.322997    0.818441   14.613421    ( 0.0000,  0.0000,  0.0000)
  20 Ru     7.144652    0.913991   14.692680    ( 0.0000,  0.0000,  0.0000)
  21 Pt     2.835127    3.225797   14.672765    ( 0.0000,  0.0000,  0.0000)
  22 Pd     5.672998    3.254495   14.666665    ( 0.0000,  0.0000,  0.0000)
  23 Pt     8.529625    3.278714   14.648428    ( 0.0000,  0.0000,  0.0000)
  24 Ag     4.277843    5.721842   14.643493    ( 0.0000,  0.0000,  0.0000)
  25 Pt     7.160728    5.768940   14.621079    ( 0.0000,  0.0000,  0.0000)
  26 Ag     9.989600    5.739885   14.639169    ( 0.0000,  0.0000,  0.0000)
  27 Pt    -0.006551    1.657511   16.855137    ( 0.0000,  0.0000,  0.0000)
  28 Pd     2.842771    1.589024   16.897980    ( 0.0000,  0.0000,  0.0000)
  29 Pd     5.681535    1.624418   16.913138    ( 0.0000,  0.0000,  0.0000)
  30 Ir     1.435061    4.056011   16.973129    ( 0.0000,  0.0000,  0.0000)
  31 Pt     4.203234    4.031457   16.995730    ( 0.0000,  0.0000,  0.0000)
  32 Pd     7.077820    4.093849   16.930387    ( 0.0000,  0.0000,  0.0000)
  33 Pd     2.823132    6.592206   16.932993    ( 0.0000,  0.0000,  0.0000)
  34 Ag     5.680624    6.524131   16.985229    ( 0.0000,  0.0000,  0.0000)
  35 Pt     8.526387    6.526412   16.926241    ( 0.0000,  0.0000,  0.0000)
  36 Pt    -0.016441    0.042681   19.229143    ( 0.0000,  0.0000,  0.0000)
  37 Pt     2.842157    0.038150   19.336671    ( 0.0000,  0.0000,  0.0000)
  38 Pt     5.675996   -0.006066   19.307680    ( 0.0000,  0.0000,  0.0000)
  39 Pt     1.371954    2.439814   19.160178    ( 0.0000,  0.0000,  0.0000)
  40 Pd     4.248848    2.475788   19.296252    ( 0.0000,  0.0000,  0.0000)
  41 Pd     7.130847    2.438835   19.242824    ( 0.0000,  0.0000,  0.0000)
  42 Pt     2.796138    4.966293   19.152029    ( 0.0000,  0.0000,  0.0000)
  43 Ag     5.678157    4.927479   19.428020    ( 0.0000,  0.0000,  0.0000)
  44 Pt     8.561023    4.896388   19.178255    ( 0.0000,  0.0000,  0.0000)
  45 O      4.271681    0.780786   20.561464    ( 0.0000,  0.0000,  0.0000)

Unit cell:
           periodic     x           y           z      points  spacing
  1. axis:    yes    8.517266    0.000000    0.000000    40     0.1844
  2. axis:    yes    4.258633    7.376169    0.000000    40     0.1844
  3. axis:    no     0.000000    0.000000   29.270571   140     0.2091

  Lengths:   8.517266   8.517266  29.270571
  Angles:   90.000000  90.000000  60.000000

Effective grid spacing dv^(1/3) = 0.2017

     iter     time        total  log10-change:
                         energy  eigst   dens
iter:   1 21:14:25  -203.304521  -2.83
iter:   2 21:15:25  -223.421843  -2.79  -2.09
iter:   3 21:16:25  -215.469896  -2.80  -1.62
iter:   4 21:17:25  -202.180043  -3.59  -1.74
iter:   5 21:18:25  -201.857388  -4.61  -2.18
iter:   6 21:19:25  -201.087084  -4.39  -2.24
iter:   7 21:20:25  -201.165718  -4.89  -2.58
iter:   8 21:21:25  -200.935613c -4.89  -2.48
iter:   9 21:22:26  -200.879791c -5.21  -2.72
iter:  10 21:23:26  -200.909565c -5.22  -2.89
iter:  11 21:24:26  -200.876951c -4.97  -2.80
iter:  12 21:25:27  -200.842743c -5.40  -2.86
iter:  13 21:26:27  -200.839361c -6.05  -3.43
iter:  14 21:27:28  -200.840061c -6.30  -3.50
iter:  15 21:28:29  -200.840861c -6.42  -3.60
iter:  16 21:29:30  -200.839557c -6.60  -3.51
iter:  17 21:30:30  -200.839324c -7.07  -3.76
iter:  18 21:31:31  -200.839483c -6.96  -3.80
iter:  19 21:32:32  -200.839928c -7.01  -3.90
iter:  20 21:33:33  -200.839148c -6.97  -3.50
iter:  21 21:34:33  -200.840640c -6.92  -3.94
iter:  22 21:35:34  -200.838549c -6.89  -3.55
iter:  23 21:36:35  -200.838142c -7.66c -4.33c

Converged after 23 iterations.

Dipole moment: (29.298238, 10.218502, -0.107259) |e|*Ang

Energy contributions relative to reference atoms: (reference = -14174778.458134)

Kinetic:       -323.513629
Potential:     +178.718211
External:        +0.000000
XC:             -43.804574
Entropy (-ST):   -2.295283
Local:          -11.090508
--------------------------
Free energy:   -201.985784
Extrapolated:  -200.838142

Showing only first 2 kpts
 Kpt  Band  Eigenvalues  Occupancy
  0   364      0.64754    1.04325
  0   365      0.68218    0.87084
  0   366      0.71129    0.73132
  0   367      0.74740    0.57317

  1   364      0.54536    1.50367
  1   365      0.58568    1.33867
  1   366      0.59840    1.28122
  1   367      0.62268    1.16603


Fermi level: 0.65620

No gap

Forces in eV/Ang:
  0 Pd    0.01106   -0.00892   -0.25758
  1 Pt    0.30505   -0.51790    0.38272
  2 Pt   -0.34176   -0.14251    0.01930
  3 Pd   -0.41102    0.17996   -0.08006
  4 Pd    0.21939   -0.22376   -0.23621
  5 Pt    0.22703    0.31112   -0.19093
  6 Pd   -0.21309    0.22705   -0.09258
  7 Pt    0.54454    0.16903    0.08157
  8 Ru   -0.48460    0.05830    1.33969
  9 Pd   -0.22288    0.17603    0.17692
 10 Pt    0.28708    0.01074   -0.20935
 11 Pd    0.04317    0.04921   -0.07466
 12 Pd    0.07805    0.10226   -0.01312
 13 Pt   -0.18312   -0.16976    0.16699
 14 Ag    0.04981   -0.12363    0.05670
 15 Ag   -0.00627   -0.07076   -0.11651
 16 Ag   -0.06011   -0.05940    0.06957
 17 Pt    0.02986    0.21908   -0.58524
 18 Pt    0.00026   -0.01770   -0.01406
 19 Pt    0.01534   -0.00594   -0.04105
 20 Ru    0.02235   -0.03156   -0.06215
 21 Pt    0.03290    0.00962   -0.00615
 22 Pd    0.01238    0.01808   -0.02052
 23 Pt    0.00086    0.01007   -0.04175
 24 Ag    0.00227   -0.00285    0.08595
 25 Pt   -0.02173   -0.02553   -0.02993
 26 Ag    0.04964    0.00355   -0.03165
 27 Pt   -0.00027   -0.00150   -0.05883
 28 Pd    0.03050   -0.07979    0.04379
 29 Pd   -0.01825   -0.04545    0.01730
 30 Ir    0.01073    0.00517   -0.11600
 31 Pt    0.00747   -0.04474    0.04075
 32 Pd   -0.03998   -0.01430   -0.02221
 33 Pd   -0.03319    0.04011    0.07731
 34 Ag    0.02338   -0.02353    0.07628
 35 Pt    0.02109   -0.02664   -0.01700
 36 Pt    0.03879    0.00981   -0.00977
 37 Pt   -0.60899   -0.19391   -0.00189
 38 Pt    0.47016   -0.21455    0.05002
 39 Pt   -0.07144    0.08688   -0.07542
 40 Pd   -0.06138    0.36901   -0.11008
 41 Pd    0.00733    0.03741   -0.04529
 42 Pt   -0.02966    0.08662    0.01113
 43 Ag    0.02595    0.04337    0.04673
 44 Pt    0.00627   -0.10550   -0.08297
 45 O     0.23335   -0.07642   -0.22732

System changes: positions 

Initializing position-dependent things.

Density initialized from wave functions
                                             
                                             
                                             
                                             
                                             
                                             
                        Ag                   
                 Pt            Pt            
            Pt    OPd    APd    Pt           
                                             
       Pt    IPt    PPt    Pd                
                                             
        Pt     Pd    APd    Pt     Ag        
                Pt     Pd     Pt             
                                             
           Pt    APt    ARu    Pt            
                                             
            Pd    PPt    PAg    Ru           
       Pd    PPt    PPd    Pt                
                                             
        Pd     Pt     Pt                     
                                             
                                             
                                             
                                             
                                             

Positions:
   0 Pd     0.000000    1.639149   10.000000    ( 0.0000,  0.0000,  0.0000)
   1 Pt     2.839089    1.639149   10.000000    ( 0.0000,  0.0000,  0.0000)
   2 Pt     5.678177    1.639149   10.000000    ( 0.0000,  0.0000,  0.0000)
   3 Pd     1.419544    4.097872   10.000000    ( 0.0000,  0.0000,  0.0000)
   4 Pd     4.258633    4.097872   10.000000    ( 0.0000,  0.0000,  0.0000)
   5 Pt     7.097722    4.097872   10.000000    ( 0.0000,  0.0000,  0.0000)
   6 Pd     2.839089    6.556595   10.000000    ( 0.0000,  0.0000,  0.0000)
   7 Pt     5.678177    6.556595   10.000000    ( 0.0000,  0.0000,  0.0000)
   8 Ru     8.517266    6.556595   10.000000    ( 0.0000,  0.0000,  0.0000)
   9 Pd     0.000000    0.000000   12.317643    ( 0.0000,  0.0000,  0.0000)
  10 Pt     2.839089    0.000000   12.317643    ( 0.0000,  0.0000,  0.0000)
  11 Pd     5.678177    0.000000   12.317643    ( 0.0000,  0.0000,  0.0000)
  12 Pd     1.419544    2.458723   12.317643    ( 0.0000,  0.0000,  0.0000)
  13 Pt     4.258633    2.458723   12.317643    ( 0.0000,  0.0000,  0.0000)
  14 Ag     7.097722    2.458723   12.317643    ( 0.0000,  0.0000,  0.0000)
  15 Ag     2.839089    4.917446   12.317643    ( 0.0000,  0.0000,  0.0000)
  16 Ag     5.678177    4.917446   12.317643    ( 0.0000,  0.0000,  0.0000)
  17 Pt     8.517266    4.917446   12.317643    ( 0.0000,  0.0000,  0.0000)
  18 Pt     1.383347    0.802612   14.578716    ( 0.0000,  0.0000,  0.0000)
  19 Pt     4.323921    0.818847   14.612761    ( 0.0000,  0.0000,  0.0000)
  20 Ru     7.145157    0.912401   14.689206    ( 0.0000,  0.0000,  0.0000)
  21 Pt     2.836679    3.226276   14.672298    ( 0.0000,  0.0000,  0.0000)
  22 Pd     5.674082    3.255080   14.666350    ( 0.0000,  0.0000,  0.0000)
  23 Pt     8.529092    3.277999   14.647742    ( 0.0000,  0.0000,  0.0000)
  24 Ag     4.278748    5.721508   14.644435    ( 0.0000,  0.0000,  0.0000)
  25 Pt     7.159521    5.767790   14.620435    ( 0.0000,  0.0000,  0.0000)
  26 Ag     9.991167    5.740220   14.637539    ( 0.0000,  0.0000,  0.0000)
  27 Pt    -0.005703    1.659390   16.852856    ( 0.0000,  0.0000,  0.0000)
  28 Pd     2.842426    1.585650   16.896332    ( 0.0000,  0.0000,  0.0000)
  29 Pd     5.682733    1.622332   16.909973    ( 0.0000,  0.0000,  0.0000)
  30 Ir     1.435431    4.056563   16.970122    ( 0.0000,  0.0000,  0.0000)
  31 Pt     4.202688    4.026996   17.001052    ( 0.0000,  0.0000,  0.0000)
  32 Pd     7.076395    4.092858   16.930150    ( 0.0000,  0.0000,  0.0000)
  33 Pd     2.818874    6.594964   16.941148    ( 0.0000,  0.0000,  0.0000)
  34 Ag     5.682936    6.523874   16.990123    ( 0.0000,  0.0000,  0.0000)
  35 Pt     8.527088    6.523327   16.920001    ( 0.0000,  0.0000,  0.0000)
  36 Pt    -0.015418    0.040330   19.226317    ( 0.0000,  0.0000,  0.0000)
  37 Pt     2.827219    0.033119   19.353837    ( 0.0000,  0.0000,  0.0000)
  38 Pt     5.688648   -0.008306   19.326696    ( 0.0000,  0.0000,  0.0000)
  39 Pt     1.365083    2.447382   19.155794    ( 0.0000,  0.0000,  0.0000)
  40 Pd     4.247470    2.493743   19.299927    ( 0.0000,  0.0000,  0.0000)
  41 Pd     7.133634    2.442398   19.240530    ( 0.0000,  0.0000,  0.0000)
  42 Pt     2.795448    4.969414   19.150351    ( 0.0000,  0.0000,  0.0000)
  43 Ag     5.678334    4.928835   19.430047    ( 0.0000,  0.0000,  0.0000)
  44 Pt     8.561664    4.886314   19.173371    ( 0.0000,  0.0000,  0.0000)
  45 O      4.279878    0.769695   20.517696    ( 0.0000,  0.0000,  0.0000)

Unit cell:
           periodic     x           y           z      points  spacing
  1. axis:    yes    8.517266    0.000000    0.000000    40     0.1844
  2. axis:    yes    4.258633    7.376169    0.000000    40     0.1844
  3. axis:    no     0.000000    0.000000   29.270571   140     0.2091

  Lengths:   8.517266   8.517266  29.270571
  Angles:   90.000000  90.000000  60.000000

Effective grid spacing dv^(1/3) = 0.2017

     iter     time        total  log10-change:
                         energy  eigst   dens
iter:   1 21:37:55  -203.601634  -3.58
iter:   2 21:38:56  -272.401263  -2.52  -2.00
iter:   3 21:39:56  -204.716914  -2.86  -1.35
iter:   4 21:40:57  -201.250519  -3.78  -1.99
iter:   5 21:41:57  -201.008127  -4.85  -2.52
iter:   6 21:42:58  -200.974582c -4.98  -2.78
iter:   7 21:43:59  -201.007640c -5.16  -2.81
iter:   8 21:44:59  -200.882107c -4.90  -2.72
iter:   9 21:45:59  -200.877327c -5.97  -3.21
iter:  10 21:47:00  -200.885058c -6.13  -3.35
iter:  11 21:48:00  -200.877606c -6.50  -3.17
iter:  12 21:49:01  -200.875495c -6.08  -3.38
iter:  13 21:50:01  -200.872399c -6.09  -3.53
iter:  14 21:51:02  -200.872604c -6.60  -3.61
iter:  15 21:52:02  -200.872175c -6.94  -3.81
iter:  16 21:53:02  -200.871280c -6.92  -3.59
iter:  17 21:54:02  -200.871589c -7.46c -3.89
iter:  18 21:55:02  -200.871486c -7.79c -4.20c

Converged after 18 iterations.

Dipole moment: (29.951789, 10.544898, -0.089231) |e|*Ang

Energy contributions relative to reference atoms: (reference = -14174778.458134)

Kinetic:       -319.727522
Potential:     +175.306809
External:        +0.000000
XC:             -44.223197
Entropy (-ST):   -2.286022
Local:          -11.084565
--------------------------
Free energy:   -202.014497
Extrapolated:  -200.871486

Showing only first 2 kpts
 Kpt  Band  Eigenvalues  Occupancy
  0   364      0.65527    1.04222
  0   365      0.68760    0.88114
  0   366      0.71808    0.73467
  0   367      0.75494    0.57310

  1   364      0.55290    1.50360
  1   365      0.59242    1.34214
  1   366      0.60729    1.27490
  1   367      0.63085    1.16290


Fermi level: 0.66372

No gap

Forces in eV/Ang:
  0 Pd    0.01122   -0.00845   -0.26621
  1 Pt    0.31084   -0.52849    0.37482
  2 Pt   -0.34839   -0.15092    0.00950
  3 Pd   -0.41453    0.18645   -0.08869
  4 Pd    0.21872   -0.22320   -0.24450
  5 Pt    0.23100    0.31969   -0.20016
  6 Pd   -0.22197    0.22636   -0.09993
  7 Pt    0.55656    0.16918    0.07207
  8 Ru   -0.48595    0.05930    1.33298
  9 Pd   -0.21763    0.17826    0.17238
 10 Pt    0.29124    0.01459   -0.21342
 11 Pd    0.03614    0.04895   -0.08832
 12 Pd    0.07961    0.09844   -0.01423
 13 Pt   -0.18641   -0.17747    0.15888
 14 Ag    0.05207   -0.12333    0.04582
 15 Ag   -0.00790   -0.07192   -0.12282
 16 Ag   -0.05827   -0.05675    0.05966
 17 Pt    0.03098    0.22332   -0.59253
 18 Pt   -0.00037   -0.02406   -0.02448
 19 Pt    0.00491   -0.01059   -0.05027
 20 Ru    0.03209   -0.02456   -0.03630
 21 Pt    0.02405    0.00655    0.00077
 22 Pd    0.00222    0.01549   -0.01739
 23 Pt    0.01671    0.01986   -0.05673
 24 Ag   -0.00436    0.00108    0.11885
 25 Pt   -0.02073   -0.01781   -0.04076
 26 Ag    0.05393   -0.00340   -0.03158
 27 Pt   -0.01148   -0.05774   -0.07838
 28 Pd    0.06335   -0.09404    0.09208
 29 Pd   -0.05590   -0.06092    0.07457
 30 Ir    0.03813    0.01777   -0.17009
 31 Pt    0.01625   -0.00650   -0.04203
 32 Pd   -0.06161    0.00248   -0.04662
 33 Pd    0.00014    0.03357   -0.02514
 34 Ag    0.01518   -0.02501    0.02920
 35 Pt    0.02352    0.03315    0.09733
 36 Pt    0.04823    0.06945    0.03677
 37 Pt   -0.71558   -0.19716   -0.20281
 38 Pt    0.59100   -0.33432   -0.24421
 39 Pt    0.04489   -0.03263   -0.03093
 40 Pd   -0.09226    0.24637   -0.14642
 41 Pd   -0.06568   -0.01906   -0.03246
 42 Pt   -0.03221    0.07302    0.05897
 43 Ag    0.03900    0.03414    0.05944
 44 Pt   -0.01527    0.05601   -0.07599
 45 O     0.16884    0.11139    0.23417

System changes: positions 

Initializing position-dependent things.

Density initialized from wave functions
                                             
                                             
                                             
                                             
                                             
                                             
                        Ag                   
                 Pt            Pt            
            Pt    OPd    APd    Pt           
                                             
       Pt    IPt    PPt    Pd                
                                             
        Pt     Pd    APd    Pt     Ag        
                Pt     Pd     Pt             
                                             
           Pt    APt    ARu    Pt            
                                             
            Pd    PPt    PAg    Ru           
       Pd    PPt    PPd    Pt                
                                             
        Pd     Pt     Pt                     
                                             
                                             
                                             
                                             
                                             

Positions:
   0 Pd     0.000000    1.639149   10.000000    ( 0.0000,  0.0000,  0.0000)
   1 Pt     2.839089    1.639149   10.000000    ( 0.0000,  0.0000,  0.0000)
   2 Pt     5.678177    1.639149   10.000000    ( 0.0000,  0.0000,  0.0000)
   3 Pd     1.419544    4.097872   10.000000    ( 0.0000,  0.0000,  0.0000)
   4 Pd     4.258633    4.097872   10.000000    ( 0.0000,  0.0000,  0.0000)
   5 Pt     7.097722    4.097872   10.000000    ( 0.0000,  0.0000,  0.0000)
   6 Pd     2.839089    6.556595   10.000000    ( 0.0000,  0.0000,  0.0000)
   7 Pt     5.678177    6.556595   10.000000    ( 0.0000,  0.0000,  0.0000)
   8 Ru     8.517266    6.556595   10.000000    ( 0.0000,  0.0000,  0.0000)
   9 Pd     0.000000    0.000000   12.317643    ( 0.0000,  0.0000,  0.0000)
  10 Pt     2.839089    0.000000   12.317643    ( 0.0000,  0.0000,  0.0000)
  11 Pd     5.678177    0.000000   12.317643    ( 0.0000,  0.0000,  0.0000)
  12 Pd     1.419544    2.458723   12.317643    ( 0.0000,  0.0000,  0.0000)
  13 Pt     4.258633    2.458723   12.317643    ( 0.0000,  0.0000,  0.0000)
  14 Ag     7.097722    2.458723   12.317643    ( 0.0000,  0.0000,  0.0000)
  15 Ag     2.839089    4.917446   12.317643    ( 0.0000,  0.0000,  0.0000)
  16 Ag     5.678177    4.917446   12.317643    ( 0.0000,  0.0000,  0.0000)
  17 Pt     8.517266    4.917446   12.317643    ( 0.0000,  0.0000,  0.0000)
  18 Pt     1.383396    0.802168   14.578469    ( 0.0000,  0.0000,  0.0000)
  19 Pt     4.324347    0.818786   14.611620    ( 0.0000,  0.0000,  0.0000)
  20 Ru     7.145892    0.911448   14.687269    ( 0.0000,  0.0000,  0.0000)
  21 Pt     2.837661    3.226511   14.672120    ( 0.0000,  0.0000,  0.0000)
  22 Pd     5.674531    3.255531   14.665897    ( 0.0000,  0.0000,  0.0000)
  23 Pt     8.529166    3.278079   14.646528    ( 0.0000,  0.0000,  0.0000)
  24 Ag     4.278997    5.721412   14.646812    ( 0.0000,  0.0000,  0.0000)
  25 Pt     7.158781    5.767072   14.619523    ( 0.0000,  0.0000,  0.0000)
  26 Ag     9.992625    5.740308   14.636410    ( 0.0000,  0.0000,  0.0000)
  27 Pt    -0.005590    1.659252   16.850665    ( 0.0000,  0.0000,  0.0000)
  28 Pd     2.843332    1.582959   16.897141    ( 0.0000,  0.0000,  0.0000)
  29 Pd     5.682250    1.620692   16.909965    ( 0.0000,  0.0000,  0.0000)
  30 Ir     1.436096    4.056947   16.966171    ( 0.0000,  0.0000,  0.0000)
  31 Pt     4.202771    4.025322   17.002296    ( 0.0000,  0.0000,  0.0000)
  32 Pd     7.074925    4.092479   16.929274    ( 0.0000,  0.0000,  0.0000)
  33 Pd     2.817411    6.596471   16.943641    ( 0.0000,  0.0000,  0.0000)
  34 Ag     5.683968    6.523273   16.992370    ( 0.0000,  0.0000,  0.0000)
  35 Pt     8.527727    6.522573   16.919081    ( 0.0000,  0.0000,  0.0000)
  36 Pt    -0.014228    0.040619   19.225948    ( 0.0000,  0.0000,  0.0000)
  37 Pt     2.809412    0.027822   19.356592    ( 0.0000,  0.0000,  0.0000)
  38 Pt     5.703474   -0.014875   19.329477    ( 0.0000,  0.0000,  0.0000)
  39 Pt     1.363218    2.449771   19.153604    ( 0.0000,  0.0000,  0.0000)
  40 Pd     4.245425    2.504376   19.298744    ( 0.0000,  0.0000,  0.0000)
  41 Pd     7.133582    2.443470   19.239136    ( 0.0000,  0.0000,  0.0000)
  42 Pt     2.794679    4.971779   19.150697    ( 0.0000,  0.0000,  0.0000)
  43 Ag     5.679060    4.929922   19.431784    ( 0.0000,  0.0000,  0.0000)
  44 Pt     8.561640    4.883429   19.170374    ( 0.0000,  0.0000,  0.0000)
  45 O      4.285850    0.767813   20.506297    ( 0.0000,  0.0000,  0.0000)

Unit cell:
           periodic     x           y           z      points  spacing
  1. axis:    yes    8.517266    0.000000    0.000000    40     0.1844
  2. axis:    yes    4.258633    7.376169    0.000000    40     0.1844
  3. axis:    no     0.000000    0.000000   29.270571   140     0.2091

  Lengths:   8.517266   8.517266  29.270571
  Angles:   90.000000  90.000000  60.000000

Effective grid spacing dv^(1/3) = 0.2017

     iter     time        total  log10-change:
                         energy  eigst   dens
iter:   1 21:56:22  -202.908226  -3.99
iter:   2 21:57:22  -260.431122  -2.65  -2.07
iter:   3 21:58:22  -204.691946  -3.02  -1.39
iter:   4 21:59:22  -201.626204  -3.99  -1.98
iter:   5 22:00:21  -201.018958  -4.81  -2.31
iter:   6 22:01:21  -200.911518  -5.08  -2.71
iter:   7 22:02:20  -200.904466c -5.64  -3.24
iter:   8 22:03:20  -200.897536c -5.79  -3.39
iter:   9 22:04:19  -200.902431c -6.22  -3.54
iter:  10 22:05:19  -200.897723c -6.55  -3.35
iter:  11 22:06:18  -200.896368c -6.63  -3.71
iter:  12 22:07:18  -200.896841c -6.67  -3.86
iter:  13 22:08:17  -200.896299c -6.93  -3.91
iter:  14 22:09:17  -200.895662c -7.47c -3.74
iter:  15 22:10:16  -200.895908c -7.67c -3.95
iter:  16 22:11:16  -200.895855c -7.60c -3.98
iter:  17 22:12:16  -200.895488c -7.78c -4.26c

Converged after 17 iterations.

Dipole moment: (30.430125, 11.030155, -0.090391) |e|*Ang

Energy contributions relative to reference atoms: (reference = -14174778.458134)

Kinetic:       -320.849967
Potential:     +176.379529
External:        +0.000000
XC:             -44.158951
Entropy (-ST):   -2.286302
Local:          -11.122947
--------------------------
Free energy:   -202.038639
Extrapolated:  -200.895488

Showing only first 2 kpts
 Kpt  Band  Eigenvalues  Occupancy
  0   364      0.65427    1.04167
  0   365      0.68554    0.88585
  0   366      0.71638    0.73743
  0   367      0.75377    0.57336

  1   364      0.55267    1.50031
  1   365      0.59223    1.33807
  1   366      0.60733    1.26958
  1   367      0.62949    1.16409


Fermi level: 0.66261

No gap

Forces in eV/Ang:
  0 Pd    0.01108   -0.00777   -0.26456
  1 Pt    0.30839   -0.52544    0.37441
  2 Pt   -0.34539   -0.14920    0.00806
  3 Pd   -0.41298    0.18541   -0.08797
  4 Pd    0.21868   -0.22159   -0.24350
  5 Pt    0.22927    0.31864   -0.20001
  6 Pd   -0.22096    0.22513   -0.09967
  7 Pt    0.55422    0.16709    0.07230
  8 Ru   -0.48619    0.05764    1.32691
  9 Pd   -0.21698    0.17347    0.17425
 10 Pt    0.29104    0.01334   -0.21579
 11 Pd    0.03622    0.04754   -0.09258
 12 Pd    0.08149    0.09817   -0.01480
 13 Pt   -0.18520   -0.17508    0.15762
 14 Ag    0.04990   -0.12152    0.04192
 15 Ag   -0.00316   -0.07206   -0.12147
 16 Ag   -0.06165   -0.05542    0.06190
 17 Pt    0.03108    0.22437   -0.59791
 18 Pt    0.00771   -0.02166   -0.02135
 19 Pt    0.00208   -0.01385   -0.03795
 20 Ru    0.02556   -0.01615   -0.03026
 21 Pt    0.02207   -0.00686    0.00410
 22 Pd    0.00370    0.00635   -0.01613
 23 Pt    0.01536    0.01961   -0.04951
 24 Ag   -0.00090    0.00096    0.10904
 25 Pt   -0.01283   -0.01215   -0.03161
 26 Ag    0.04204    0.00290   -0.02966
 27 Pt   -0.01081   -0.04154   -0.07573
 28 Pd    0.07110   -0.07651    0.08411
 29 Pd   -0.06761   -0.04846    0.07399
 30 Ir    0.03114    0.00422   -0.14308
 31 Pt    0.00536    0.00631   -0.05304
 32 Pd   -0.04546   -0.00721   -0.04977
 33 Pd    0.01813    0.02037   -0.05747
 34 Ag    0.00376   -0.03114   -0.00687
 35 Pt    0.02562    0.03931    0.10299
 36 Pt    0.04181    0.08387    0.04646
 37 Pt   -0.43685   -0.06795   -0.11372
 38 Pt    0.35808   -0.23961   -0.19163
 39 Pt    0.06477   -0.02264   -0.03460
 40 Pd   -0.09766    0.06994   -0.11905
 41 Pd   -0.07570   -0.02111   -0.03672
 42 Pt   -0.02097    0.02170    0.05144
 43 Ag    0.02939    0.00705    0.06333
 44 Pt   -0.01084    0.09311   -0.06876
 45 O     0.11016    0.06387    0.06969

System changes: positions 

Initializing position-dependent things.

Density initialized from wave functions
                                             
                                             
                                             
                                             
                                             
                                             
                        Ag                   
                 Pt            Pt            
            Pt    OPd    APd    Pt           
                                             
       Pt    IPt    PPt    Pd                
                                             
        Pt     Pd    APd    Pt     Ag        
                Pt     Pd     Pt             
                                             
           Pt    APt    ARu    Pt            
                                             
            Pd    PPt    PAg    Ru           
       Pd    PPt    PPd    Pt                
                                             
        Pd     Pt     Pt                     
                                             
                                             
                                             
                                             
                                             

Positions:
   0 Pd     0.000000    1.639149   10.000000    ( 0.0000,  0.0000,  0.0000)
   1 Pt     2.839089    1.639149   10.000000    ( 0.0000,  0.0000,  0.0000)
   2 Pt     5.678177    1.639149   10.000000    ( 0.0000,  0.0000,  0.0000)
   3 Pd     1.419544    4.097872   10.000000    ( 0.0000,  0.0000,  0.0000)
   4 Pd     4.258633    4.097872   10.000000    ( 0.0000,  0.0000,  0.0000)
   5 Pt     7.097722    4.097872   10.000000    ( 0.0000,  0.0000,  0.0000)
   6 Pd     2.839089    6.556595   10.000000    ( 0.0000,  0.0000,  0.0000)
   7 Pt     5.678177    6.556595   10.000000    ( 0.0000,  0.0000,  0.0000)
   8 Ru     8.517266    6.556595   10.000000    ( 0.0000,  0.0000,  0.0000)
   9 Pd     0.000000    0.000000   12.317643    ( 0.0000,  0.0000,  0.0000)
  10 Pt     2.839089    0.000000   12.317643    ( 0.0000,  0.0000,  0.0000)
  11 Pd     5.678177    0.000000   12.317643    ( 0.0000,  0.0000,  0.0000)
  12 Pd     1.419544    2.458723   12.317643    ( 0.0000,  0.0000,  0.0000)
  13 Pt     4.258633    2.458723   12.317643    ( 0.0000,  0.0000,  0.0000)
  14 Ag     7.097722    2.458723   12.317643    ( 0.0000,  0.0000,  0.0000)
  15 Ag     2.839089    4.917446   12.317643    ( 0.0000,  0.0000,  0.0000)
  16 Ag     5.678177    4.917446   12.317643    ( 0.0000,  0.0000,  0.0000)
  17 Pt     8.517266    4.917446   12.317643    ( 0.0000,  0.0000,  0.0000)
  18 Pt     1.383773    0.801145   14.577783    ( 0.0000,  0.0000,  0.0000)
  19 Pt     4.325036    0.818394   14.609384    ( 0.0000,  0.0000,  0.0000)
  20 Ru     7.147374    0.909791   14.683674    ( 0.0000,  0.0000,  0.0000)
  21 Pt     2.839607    3.226499   14.671953    ( 0.0000,  0.0000,  0.0000)
  22 Pd     5.675377    3.256183   14.664905    ( 0.0000,  0.0000,  0.0000)
  23 Pt     8.529491    3.278509   14.643889    ( 0.0000,  0.0000,  0.0000)
  24 Ag     4.279475    5.721263   14.652262    ( 0.0000,  0.0000,  0.0000)
  25 Pt     7.157527    5.765804   14.617712    ( 0.0000,  0.0000,  0.0000)
  26 Ag     9.995452    5.740644   14.634105    ( 0.0000,  0.0000,  0.0000)
  27 Pt    -0.005553    1.658771   16.845888    ( 0.0000,  0.0000,  0.0000)
  28 Pd     2.846099    1.577685   16.899589    ( 0.0000,  0.0000,  0.0000)
  29 Pd     5.680156    1.617503   16.911055    ( 0.0000,  0.0000,  0.0000)
  30 Ir     1.437509    4.057335   16.957956    ( 0.0000,  0.0000,  0.0000)
  31 Pt     4.202756    4.022901   17.003341    ( 0.0000,  0.0000,  0.0000)
  32 Pd     7.072137    4.091508   16.926978    ( 0.0000,  0.0000,  0.0000)
  33 Pd     2.815645    6.599007   16.946234    ( 0.0000,  0.0000,  0.0000)
  34 Ag     5.685492    6.521637   16.995247    ( 0.0000,  0.0000,  0.0000)
  35 Pt     8.529236    6.522004   16.919181    ( 0.0000,  0.0000,  0.0000)
  36 Pt    -0.011731    0.042695   19.226257    ( 0.0000,  0.0000,  0.0000)
  37 Pt     2.778882    0.020684   19.361385    ( 0.0000,  0.0000,  0.0000)
  38 Pt     5.728770   -0.027506   19.332360    ( 0.0000,  0.0000,  0.0000)
  39 Pt     1.361480    2.453697   19.149302    ( 0.0000,  0.0000,  0.0000)
  40 Pd     4.240387    2.519441   19.295495    ( 0.0000,  0.0000,  0.0000)
  41 Pd     7.132136    2.444924   19.236137    ( 0.0000,  0.0000,  0.0000)
  42 Pt     2.793318    4.974963   19.151891    ( 0.0000,  0.0000,  0.0000)
  43 Ag     5.680519    4.931269   19.435746    ( 0.0000,  0.0000,  0.0000)
  44 Pt     8.561535    4.880778   19.164468    ( 0.0000,  0.0000,  0.0000)
  45 O      4.296323    0.764622   20.484776    ( 0.0000,  0.0000,  0.0000)

Unit cell:
           periodic     x           y           z      points  spacing
  1. axis:    yes    8.517266    0.000000    0.000000    40     0.1844
  2. axis:    yes    4.258633    7.376169    0.000000    40     0.1844
  3. axis:    no     0.000000    0.000000   29.270571   140     0.2091

  Lengths:   8.517266   8.517266  29.270571
  Angles:   90.000000  90.000000  60.000000

Effective grid spacing dv^(1/3) = 0.2017

     iter     time        total  log10-change:
                         energy  eigst   dens
iter:   1 22:13:36  -203.781941  -3.63
iter:   2 22:14:36  -277.360133  -2.51  -2.01
iter:   3 22:15:35  -205.964450  -2.89  -1.33
iter:   4 22:16:35  -201.909203  -3.87  -1.92
iter:   5 22:17:34  -201.063869  -4.63  -2.25
iter:   6 22:18:34  -200.949925  -4.94  -2.69
iter:   7 22:19:33  -200.936220c -5.49  -3.04
iter:   8 22:20:33  -200.924753c -5.62  -3.23
iter:   9 22:21:33  -200.933835c -6.03  -3.39
iter:  10 22:22:33  -200.924178c -6.29  -3.18
iter:  11 22:23:33  -200.922832c -6.36  -3.55
iter:  12 22:24:32  -200.922658c -6.19  -3.65
iter:  13 22:25:32  -200.922282c -6.77  -3.72
iter:  14 22:26:32  -200.921765c -6.98  -3.99
iter:  15 22:27:32  -200.922005c -7.24  -3.72
iter:  16 22:28:32  -200.921766c -7.43c -4.00
iter:  17 22:29:32  -200.921443c -7.46c -4.14c

Converged after 17 iterations.

Dipole moment: (31.152794, 11.751164, -0.097193) |e|*Ang

Energy contributions relative to reference atoms: (reference = -14174778.458134)

Kinetic:       -321.072569
Potential:     +176.560910
External:        +0.000000
XC:             -44.148909
Entropy (-ST):   -2.285730
Local:          -11.118009
--------------------------
Free energy:   -202.064308
Extrapolated:  -200.921443

Showing only first 2 kpts
 Kpt  Band  Eigenvalues  Occupancy
  0   364      0.65132    1.04116
  0   365      0.68099    0.89322
  0   366      0.71260    0.74081
  0   367      0.75003    0.57615

  1   364      0.55110    1.49471
  1   365      0.59025    1.33331
  1   366      0.60639    1.25974
  1   367      0.62572    1.16758


Fermi level: 0.65956

No gap

Forces in eV/Ang:
  0 Pd    0.01112   -0.00858   -0.26120
  1 Pt    0.30869   -0.52614    0.37796
  2 Pt   -0.34556   -0.14957    0.01079
  3 Pd   -0.41398    0.18606   -0.08617
  4 Pd    0.21930   -0.22265   -0.24179
  5 Pt    0.22968    0.31780   -0.19790
  6 Pd   -0.22090    0.22687   -0.09859
  7 Pt    0.55232    0.16891    0.07430
  8 Ru   -0.48578    0.05788    1.33099
  9 Pd   -0.21867    0.16721    0.17745
 10 Pt    0.29144    0.01498   -0.21958
 11 Pd    0.04010    0.04909   -0.09925
 12 Pd    0.08431    0.09670   -0.01826
 13 Pt   -0.18252   -0.17407    0.15342
 14 Ag    0.04720   -0.12246    0.03306
 15 Ag    0.00616   -0.07134   -0.11987
 16 Ag   -0.07073   -0.05362    0.06373
 17 Pt    0.03351    0.22395   -0.60339
 18 Pt    0.01369   -0.01896   -0.01342
 19 Pt    0.00264   -0.01892   -0.01578
 20 Ru    0.01527   -0.00820   -0.01767
 21 Pt    0.01594   -0.02225    0.01100
 22 Pd    0.00188   -0.01248   -0.00822
 23 Pt    0.01653    0.02145   -0.03795
 24 Ag    0.00195    0.00219    0.09065
 25 Pt    0.00699   -0.00180   -0.00720
 26 Ag    0.01948    0.01219   -0.01775
 27 Pt   -0.00800   -0.03382   -0.05410
 28 Pd    0.05219   -0.05312    0.05932
 29 Pd   -0.05708   -0.02427    0.06402
 30 Ir    0.02030   -0.00357   -0.10374
 31 Pt    0.00334    0.04823   -0.06736
 32 Pd   -0.02873   -0.00599   -0.03814
 33 Pd    0.06265   -0.00507   -0.10342
 34 Ag   -0.01827   -0.04214   -0.03685
 35 Pt    0.01945    0.02840    0.09758
 36 Pt    0.04151    0.07515    0.06404
 37 Pt   -0.15025    0.06240    0.00083
 38 Pt    0.11731   -0.11843   -0.11450
 39 Pt    0.06044   -0.02828   -0.01827
 40 Pd   -0.07299   -0.11652   -0.04676
 41 Pd   -0.08615   -0.02072   -0.02120
 42 Pt    0.02556   -0.03655    0.04766
 43 Ag    0.00846   -0.02237    0.07099
 44 Pt   -0.03039    0.12032   -0.04498
 45 O     0.04249    0.03146   -0.01547

System changes: positions 

Initializing position-dependent things.

Density initialized from wave functions
                                             
                                             
                                             
                                             
                                             
                                             
                        Ag                   
                 Pt            Pt            
            Pt    OPd    APd    Pt           
                                             
       Pt    IPt    PPt    Pd                
                                             
        Pt     Pd    APd    Pt     Ag        
                Pt     Pd     Pt             
                                             
           Pt    APt    ARu    Pt            
                                             
            Pd    PPt    PAg    Ru           
       Pd    PPt    PPd    Pt                
                                             
        Pd     Pt     Pt                     
                                             
                                             
                                             
                                             
                                             

Positions:
   0 Pd     0.000000    1.639149   10.000000    ( 0.0000,  0.0000,  0.0000)
   1 Pt     2.839089    1.639149   10.000000    ( 0.0000,  0.0000,  0.0000)
   2 Pt     5.678177    1.639149   10.000000    ( 0.0000,  0.0000,  0.0000)
   3 Pd     1.419544    4.097872   10.000000    ( 0.0000,  0.0000,  0.0000)
   4 Pd     4.258633    4.097872   10.000000    ( 0.0000,  0.0000,  0.0000)
   5 Pt     7.097722    4.097872   10.000000    ( 0.0000,  0.0000,  0.0000)
   6 Pd     2.839089    6.556595   10.000000    ( 0.0000,  0.0000,  0.0000)
   7 Pt     5.678177    6.556595   10.000000    ( 0.0000,  0.0000,  0.0000)
   8 Ru     8.517266    6.556595   10.000000    ( 0.0000,  0.0000,  0.0000)
   9 Pd     0.000000    0.000000   12.317643    ( 0.0000,  0.0000,  0.0000)
  10 Pt     2.839089    0.000000   12.317643    ( 0.0000,  0.0000,  0.0000)
  11 Pd     5.678177    0.000000   12.317643    ( 0.0000,  0.0000,  0.0000)
  12 Pd     1.419544    2.458723   12.317643    ( 0.0000,  0.0000,  0.0000)
  13 Pt     4.258633    2.458723   12.317643    ( 0.0000,  0.0000,  0.0000)
  14 Ag     7.097722    2.458723   12.317643    ( 0.0000,  0.0000,  0.0000)
  15 Ag     2.839089    4.917446   12.317643    ( 0.0000,  0.0000,  0.0000)
  16 Ag     5.678177    4.917446   12.317643    ( 0.0000,  0.0000,  0.0000)
  17 Pt     8.517266    4.917446   12.317643    ( 0.0000,  0.0000,  0.0000)
  18 Pt     1.384202    0.800311   14.577145    ( 0.0000,  0.0000,  0.0000)
  19 Pt     4.325367    0.817796   14.608079    ( 0.0000,  0.0000,  0.0000)
  20 Ru     7.148314    0.908971   14.681856    ( 0.0000,  0.0000,  0.0000)
  21 Pt     2.840728    3.226009   14.672115    ( 0.0000,  0.0000,  0.0000)
  22 Pd     5.675740    3.256183   14.664287    ( 0.0000,  0.0000,  0.0000)
  23 Pt     8.529985    3.279189   14.641976    ( 0.0000,  0.0000,  0.0000)
  24 Ag     4.279669    5.721261   14.656496    ( 0.0000,  0.0000,  0.0000)
  25 Pt     7.157204    5.765254   14.616813    ( 0.0000,  0.0000,  0.0000)
  26 Ag     9.997018    5.741039   14.632819    ( 0.0000,  0.0000,  0.0000)
  27 Pt    -0.005743    1.657850   16.842816    ( 0.0000,  0.0000,  0.0000)
  28 Pd     2.848345    1.574491   16.901909    ( 0.0000,  0.0000,  0.0000)
  29 Pd     5.678059    1.615782   16.912953    ( 0.0000,  0.0000,  0.0000)
  30 Ir     1.438450    4.057356   16.952393    ( 0.0000,  0.0000,  0.0000)
  31 Pt     4.202871    4.023078   17.002223    ( 0.0000,  0.0000,  0.0000)
  32 Pd     7.070435    4.090985   16.925235    ( 0.0000,  0.0000,  0.0000)
  33 Pd     2.816412    6.599849   16.944906    ( 0.0000,  0.0000,  0.0000)
  34 Ag     5.685634    6.520020   16.995584    ( 0.0000,  0.0000,  0.0000)
  35 Pt     8.530253    6.522347   16.921360    ( 0.0000,  0.0000,  0.0000)
  36 Pt    -0.009816    0.045189   19.227838    ( 0.0000,  0.0000,  0.0000)
  37 Pt     2.762682    0.018847   19.362534    ( 0.0000,  0.0000,  0.0000)
  38 Pt     5.741938   -0.035443   19.330417    ( 0.0000,  0.0000,  0.0000)
  39 Pt     1.362107    2.454622   19.147198    ( 0.0000,  0.0000,  0.0000)
  40 Pd     4.236798    2.523071   19.292796    ( 0.0000,  0.0000,  0.0000)
  41 Pd     7.129679    2.445048   19.234500    ( 0.0000,  0.0000,  0.0000)
  42 Pt     2.793302    4.975532   19.153445    ( 0.0000,  0.0000,  0.0000)
  43 Ag     5.681324    4.931389   19.438827    ( 0.0000,  0.0000,  0.0000)
  44 Pt     8.560832    4.882341   19.161233    ( 0.0000,  0.0000,  0.0000)
  45 O      4.301640    0.764423   20.477556    ( 0.0000,  0.0000,  0.0000)

Unit cell:
           periodic     x           y           z      points  spacing
  1. axis:    yes    8.517266    0.000000    0.000000    40     0.1844
  2. axis:    yes    4.258633    7.376169    0.000000    40     0.1844
  3. axis:    no     0.000000    0.000000   29.270571   140     0.2091

  Lengths:   8.517266   8.517266  29.270571
  Angles:   90.000000  90.000000  60.000000

Effective grid spacing dv^(1/3) = 0.2017

     iter     time        total  log10-change:
                         energy  eigst   dens
iter:   1 22:30:51  -201.057368  -4.26
iter:   2 22:31:51  -205.581758  -3.92  -2.66
iter:   3 22:32:51  -200.944418  -4.11  -1.87
iter:   4 22:33:50  -200.973052  -5.53  -3.26
iter:   5 22:34:50  -200.929519c -5.83  -2.87
iter:   6 22:35:49  -200.930299c -6.40  -3.39
iter:   7 22:36:49  -200.930726c -6.83  -3.60
iter:   8 22:37:49  -200.929804c -6.62  -3.57
iter:   9 22:38:49  -200.930136c -7.01  -3.86
iter:  10 22:39:48  -200.929677c -7.14  -3.93
iter:  11 22:40:48  -200.929812c -7.06  -4.06c
iter:  12 22:41:47  -200.929622c -7.63c -4.11c

Converged after 12 iterations.

Dipole moment: (31.375429, 12.032798, -0.098297) |e|*Ang

Energy contributions relative to reference atoms: (reference = -14174778.458134)

Kinetic:       -322.096907
Potential:     +177.517863
External:        +0.000000
XC:             -44.082823
Entropy (-ST):   -2.286324
Local:          -11.124592
--------------------------
Free energy:   -202.072784
Extrapolated:  -200.929622

Showing only first 2 kpts
 Kpt  Band  Eigenvalues  Occupancy
  0   364      0.65083    1.04083
  0   365      0.68003    0.89523
  0   366      0.71169    0.74246
  0   367      0.74941    0.57639

  1   364      0.55092    1.49330
  1   365      0.59020    1.33104
  1   366      0.60737    1.25258
  1   367      0.62467    1.17000


Fermi level: 0.65900

No gap

Forces in eV/Ang:
  0 Pd    0.01122   -0.00926   -0.25903
  1 Pt    0.30680   -0.52267    0.38096
  2 Pt   -0.34369   -0.14651    0.01156
  3 Pd   -0.41177    0.18442   -0.08313
  4 Pd    0.21946   -0.22152   -0.23776
  5 Pt    0.22700    0.31516   -0.19562
  6 Pd   -0.21806    0.22610   -0.09599
  7 Pt    0.54707    0.16811    0.07861
  8 Ru   -0.48487    0.05708    1.33274
  9 Pd   -0.21802    0.15906    0.18203
 10 Pt    0.29074    0.01388   -0.21903
 11 Pd    0.04123    0.04741   -0.10131
 12 Pd    0.08952    0.09662   -0.01633
 13 Pt   -0.18416   -0.16987    0.15474
 14 Ag    0.04495   -0.12059    0.03121
 15 Ag    0.01364   -0.07271   -0.11499
 16 Ag   -0.07743   -0.05140    0.07079
 17 Pt    0.03439    0.22561   -0.60446
 18 Pt    0.02226   -0.01043   -0.01431
 19 Pt    0.00002   -0.01731    0.00246
 20 Ru    0.00535    0.00219   -0.01825
 21 Pt    0.01272   -0.03468    0.00365
 22 Pd    0.00407   -0.02324   -0.00757
 23 Pt    0.01103    0.01556   -0.02726
 24 Ag    0.00884   -0.00215    0.04763
 25 Pt    0.01807    0.00308    0.00087
 26 Ag    0.00128    0.01685   -0.01672
 27 Pt   -0.00705   -0.00579   -0.03716
 28 Pd    0.04185   -0.03045    0.02890
 29 Pd   -0.04649   -0.00617    0.03658
 30 Ir    0.00869   -0.01443   -0.05508
 31 Pt   -0.00795    0.03047   -0.05130
 32 Pd   -0.00467   -0.01571   -0.02971
 33 Pd    0.05836   -0.01334   -0.09126
 34 Ag   -0.01342   -0.03631   -0.04471
 35 Pt    0.01571    0.02253    0.06801
 36 Pt    0.01848    0.06415    0.03699
 37 Pt    0.03245    0.12512    0.05383
 38 Pt   -0.05176   -0.02491   -0.04777
 39 Pt    0.03500    0.00925   -0.04156
 40 Pd   -0.05273   -0.18128   -0.03436
 41 Pd   -0.06295   -0.01604   -0.04010
 42 Pt    0.02867   -0.07626    0.00455
 43 Ag   -0.00542   -0.03881    0.05776
 44 Pt   -0.01457    0.09954   -0.05330
 45 O     0.05318   -0.00367   -0.09350

System changes: positions 

Initializing position-dependent things.

Density initialized from wave functions
                                             
                                             
                                             
                                             
                                             
                                             
                        Ag                   
                 Pt            Pt            
            Pt    OPd    APd    Pt           
                                             
       Pt    IPt    PPt    Pd                
                                             
        Pt     Pd    APd    Pt     Ag        
                Pt     Pd     Pt             
                                             
           Pt    APt    ARu    Pt            
                                             
            Pd    PPt    PAg    Ru           
       Pd    PPt    PPd    Pt                
                                             
        Pd     Pt     Pt                     
                                             
                                             
                                             
                                             
                                             

Positions:
   0 Pd     0.000000    1.639149   10.000000    ( 0.0000,  0.0000,  0.0000)
   1 Pt     2.839089    1.639149   10.000000    ( 0.0000,  0.0000,  0.0000)
   2 Pt     5.678177    1.639149   10.000000    ( 0.0000,  0.0000,  0.0000)
   3 Pd     1.419544    4.097872   10.000000    ( 0.0000,  0.0000,  0.0000)
   4 Pd     4.258633    4.097872   10.000000    ( 0.0000,  0.0000,  0.0000)
   5 Pt     7.097722    4.097872   10.000000    ( 0.0000,  0.0000,  0.0000)
   6 Pd     2.839089    6.556595   10.000000    ( 0.0000,  0.0000,  0.0000)
   7 Pt     5.678177    6.556595   10.000000    ( 0.0000,  0.0000,  0.0000)
   8 Ru     8.517266    6.556595   10.000000    ( 0.0000,  0.0000,  0.0000)
   9 Pd     0.000000    0.000000   12.317643    ( 0.0000,  0.0000,  0.0000)
  10 Pt     2.839089    0.000000   12.317643    ( 0.0000,  0.0000,  0.0000)
  11 Pd     5.678177    0.000000   12.317643    ( 0.0000,  0.0000,  0.0000)
  12 Pd     1.419544    2.458723   12.317643    ( 0.0000,  0.0000,  0.0000)
  13 Pt     4.258633    2.458723   12.317643    ( 0.0000,  0.0000,  0.0000)
  14 Ag     7.097722    2.458723   12.317643    ( 0.0000,  0.0000,  0.0000)
  15 Ag     2.839089    4.917446   12.317643    ( 0.0000,  0.0000,  0.0000)
  16 Ag     5.678177    4.917446   12.317643    ( 0.0000,  0.0000,  0.0000)
  17 Pt     8.517266    4.917446   12.317643    ( 0.0000,  0.0000,  0.0000)
  18 Pt     1.384734    0.799843   14.576600    ( 0.0000,  0.0000,  0.0000)
  19 Pt     4.325421    0.817250   14.607694    ( 0.0000,  0.0000,  0.0000)
  20 Ru     7.148708    0.908831   14.681117    ( 0.0000,  0.0000,  0.0000)
  21 Pt     2.841245    3.225195   14.672252    ( 0.0000,  0.0000,  0.0000)
  22 Pd     5.675864    3.255741   14.663942    ( 0.0000,  0.0000,  0.0000)
  23 Pt     8.530386    3.279758   14.640857    ( 0.0000,  0.0000,  0.0000)
  24 Ag     4.279825    5.721241   14.658759    ( 0.0000,  0.0000,  0.0000)
  25 Pt     7.157495    5.765187   14.616540    ( 0.0000,  0.0000,  0.0000)
  26 Ag     9.997491    5.741449   14.632180    ( 0.0000,  0.0000,  0.0000)
  27 Pt    -0.006002    1.657309   16.841246    ( 0.0000,  0.0000,  0.0000)
  28 Pd     2.849897    1.573067   16.903362    ( 0.0000,  0.0000,  0.0000)
  29 Pd     5.676424    1.615221   16.914490    ( 0.0000,  0.0000,  0.0000)
  30 Ir     1.438894    4.057060   16.949675    ( 0.0000,  0.0000,  0.0000)
  31 Pt     4.202816    4.023954   17.000578    ( 0.0000,  0.0000,  0.0000)
  32 Pd     7.069864    4.090585   16.924121    ( 0.0000,  0.0000,  0.0000)
  33 Pd     2.817994    6.599720   16.942306    ( 0.0000,  0.0000,  0.0000)
  34 Ag     5.685298    6.518831   16.994615    ( 0.0000,  0.0000,  0.0000)
  35 Pt     8.530838    6.523067   16.923744    ( 0.0000,  0.0000,  0.0000)
  36 Pt    -0.008901    0.047353   19.229208    ( 0.0000,  0.0000,  0.0000)
  37 Pt     2.758248    0.020590   19.362458    ( 0.0000,  0.0000,  0.0000)
  38 Pt     5.745001   -0.038617   19.327453    ( 0.0000,  0.0000,  0.0000)
  39 Pt     1.363368    2.454633   19.145985    ( 0.0000,  0.0000,  0.0000)
  40 Pd     4.234710    2.520124   19.290821    ( 0.0000,  0.0000,  0.0000)
  41 Pd     7.127550    2.444570   19.233344    ( 0.0000,  0.0000,  0.0000)
  42 Pt     2.793816    4.974216   19.154155    ( 0.0000,  0.0000,  0.0000)
  43 Ag     5.681511    4.930685   19.440765    ( 0.0000,  0.0000,  0.0000)
  44 Pt     8.560311    4.885271   19.159476    ( 0.0000,  0.0000,  0.0000)
  45 O      4.304061    0.765106   20.476800    ( 0.0000,  0.0000,  0.0000)

Unit cell:
           periodic     x           y           z      points  spacing
  1. axis:    yes    8.517266    0.000000    0.000000    40     0.1844
  2. axis:    yes    4.258633    7.376169    0.000000    40     0.1844
  3. axis:    no     0.000000    0.000000   29.270571   140     0.2091

  Lengths:   8.517266   8.517266  29.270571
  Angles:   90.000000  90.000000  60.000000

Effective grid spacing dv^(1/3) = 0.2017

     iter     time        total  log10-change:
                         energy  eigst   dens
iter:   1 22:43:10  -201.708645  -4.49
iter:   2 22:44:11  -229.250601  -3.05  -2.27
iter:   3 22:45:12  -202.044193  -3.37  -1.53
iter:   4 22:46:13  -201.092711  -4.49  -2.22
iter:   5 22:47:14  -200.989493  -5.40  -2.64
iter:   6 22:48:16  -200.938080c -5.57  -2.85
iter:   7 22:49:17  -200.936099c -6.12  -3.70
iter:   8 22:50:18  -200.933828c -6.36  -3.76
iter:   9 22:51:19  -200.934324c -6.75  -3.93
iter:  10 22:52:20  -200.933959c -7.08  -3.94
iter:  11 22:53:21  -200.933549c -6.91  -4.05c
iter:  12 22:54:22  -200.933545c -7.53c -4.11c

Converged after 12 iterations.

Dipole moment: (31.314428, 11.978420, -0.102215) |e|*Ang

Energy contributions relative to reference atoms: (reference = -14174778.458134)

Kinetic:       -321.663527
Potential:     +177.073453
External:        +0.000000
XC:             -44.077137
Entropy (-ST):   -2.285944
Local:          -11.123362
--------------------------
Free energy:   -202.076516
Extrapolated:  -200.933545

Showing only first 2 kpts
 Kpt  Band  Eigenvalues  Occupancy
  0   364      0.64984    1.04152
  0   365      0.67915    0.89538
  0   366      0.71097    0.74188
  0   367      0.74786    0.57928

  1   364      0.55038    1.49212
  1   365      0.58927    1.33141
  1   366      0.60690    1.25076
  1   367      0.62348    1.17165


Fermi level: 0.65815

No gap

Forces in eV/Ang:
  0 Pd    0.01061   -0.00888   -0.26001
  1 Pt    0.30558   -0.52217    0.37966
  2 Pt   -0.34254   -0.14707    0.01291
  3 Pd   -0.41035    0.18493   -0.08247
  4 Pd    0.21895   -0.22006   -0.23362
  5 Pt    0.22588    0.31621   -0.19369
  6 Pd   -0.21773    0.22484   -0.09461
  7 Pt    0.54632    0.16568    0.08010
  8 Ru   -0.48443    0.05620    1.33118
  9 Pd   -0.22021    0.15616    0.18283
 10 Pt    0.29044    0.01089   -0.21793
 11 Pd    0.04452    0.04841   -0.10137
 12 Pd    0.08862    0.09800   -0.01810
 13 Pt   -0.18134   -0.16749    0.15479
 14 Ag    0.04444   -0.11928    0.03091
 15 Ag    0.01708   -0.07196   -0.11383
 16 Ag   -0.07871   -0.05189    0.07319
 17 Pt    0.03245    0.22381   -0.60311
 18 Pt    0.01667   -0.00519   -0.00177
 19 Pt    0.00347   -0.01250    0.01420
 20 Ru    0.00336    0.00469   -0.01035
 21 Pt    0.00807   -0.02831    0.01449
 22 Pd    0.00615   -0.02200   -0.00014
 23 Pt    0.00946    0.01052   -0.01430
 24 Ag    0.00937   -0.00653    0.02595
 25 Pt    0.01926   -0.00102    0.00700
 26 Ag   -0.00083    0.01217   -0.00768
 27 Pt   -0.00141   -0.00228   -0.01567
 28 Pd    0.01239   -0.01514    0.01419
 29 Pd   -0.01789   -0.00174    0.01630
 30 Ir    0.00798   -0.00714   -0.03287
 31 Pt   -0.01074    0.02019   -0.02804
 32 Pd    0.00170   -0.01327   -0.01180
 33 Pd    0.04477   -0.01506   -0.04057
 34 Ag   -0.01353   -0.02958   -0.01668
 35 Pt    0.02076   -0.00152    0.04084
 36 Pt    0.02314    0.03366    0.02309
 37 Pt    0.00168    0.10247    0.06876
 38 Pt   -0.03176   -0.00862   -0.00575
 39 Pt   -0.00184    0.01607   -0.04159
 40 Pd   -0.02823   -0.11731   -0.01965
 41 Pd   -0.03686   -0.00917   -0.03304
 42 Pt    0.02481   -0.05090   -0.00650
 43 Ag   -0.01342   -0.02305    0.04963
 44 Pt   -0.00899    0.05214   -0.04940
 45 O     0.06096    0.00876   -0.13097

System changes: positions 

Initializing position-dependent things.

Density initialized from wave functions
                                             
                                             
                                             
                                             
                                             
                                             
                 Pt     Ag                   
                               Pt            
            Pt    OPd    APd    Pt           
              Pt                             
       Pt    Ir     PPt    Pd                
                      Pd                     
        Pt     Pd    Ag     Pt     Ag        
                Pt     Pd     Pt             
                                             
           Pt    APt    ARu    Pt            
                                             
            Pd    PPt    PAg    Ru           
       Pd    PPt    PPd    Pt                
                                             
        Pd     Pt     Pt                     
                                             
                                             
                                             
                                             
                                             

Positions:
   0 Pd     0.000000    1.639149   10.000000    ( 0.0000,  0.0000,  0.0000)
   1 Pt     2.839089    1.639149   10.000000    ( 0.0000,  0.0000,  0.0000)
   2 Pt     5.678177    1.639149   10.000000    ( 0.0000,  0.0000,  0.0000)
   3 Pd     1.419544    4.097872   10.000000    ( 0.0000,  0.0000,  0.0000)
   4 Pd     4.258633    4.097872   10.000000    ( 0.0000,  0.0000,  0.0000)
   5 Pt     7.097722    4.097872   10.000000    ( 0.0000,  0.0000,  0.0000)
   6 Pd     2.839089    6.556595   10.000000    ( 0.0000,  0.0000,  0.0000)
   7 Pt     5.678177    6.556595   10.000000    ( 0.0000,  0.0000,  0.0000)
[...]
  17 Pt     8.517266    4.917446   12.317643    ( 0.0000,  0.0000,  0.0000)
  18 Pt     1.386505    0.798627   14.575570    ( 0.0000,  0.0000,  0.0000)
  19 Pt     4.325971    0.815701   14.607268    ( 0.0000,  0.0000,  0.0000)
  20 Ru     7.149848    0.908259   14.678217    ( 0.0000,  0.0000,  0.0000)
  21 Pt     2.843065    3.222544   14.672767    ( 0.0000,  0.0000,  0.0000)
  22 Pd     5.676682    3.254046   14.663087    ( 0.0000,  0.0000,  0.0000)
  23 Pt     8.531499    3.281092   14.637735    ( 0.0000,  0.0000,  0.0000)
  24 Ag     4.280822    5.720808   14.664461    ( 0.0000,  0.0000,  0.0000)
  25 Pt     7.158557    5.764706   14.616067    ( 0.0000,  0.0000,  0.0000)
  26 Ag     9.998923    5.742867   14.630044    ( 0.0000,  0.0000,  0.0000)
  27 Pt    -0.006382    1.656409   16.836582    ( 0.0000,  0.0000,  0.0000)
  28 Pd     2.853438    1.568253   16.906404    ( 0.0000,  0.0000,  0.0000)
  29 Pd     5.672806    1.613227   16.917413    ( 0.0000,  0.0000,  0.0000)
  30 Ir     1.440286    4.056462   16.941799    ( 0.0000,  0.0000,  0.0000)
  31 Pt     4.202212    4.025275   16.997589    ( 0.0000,  0.0000,  0.0000)
  32 Pd     7.068252    4.088985   16.921172    ( 0.0000,  0.0000,  0.0000)
  33 Pd     2.821914    6.599680   16.937685    ( 0.0000,  0.0000,  0.0000)
  34 Ag     5.684894    6.515224   16.993604    ( 0.0000,  0.0000,  0.0000)
  35 Pt     8.533002    6.523781   16.928523    ( 0.0000,  0.0000,  0.0000)
  36 Pt    -0.006033    0.052456   19.232007    ( 0.0000,  0.0000,  0.0000)
  37 Pt     2.743455    0.025975   19.369271    ( 0.0000,  0.0000,  0.0000)
  38 Pt     5.755442   -0.047268   19.325261    ( 0.0000,  0.0000,  0.0000)
  39 Pt     1.363781    2.457594   19.140789    ( 0.0000,  0.0000,  0.0000)
  40 Pd     4.228892    2.515481   19.286500    ( 0.0000,  0.0000,  0.0000)
  41 Pd     7.122394    2.444212   19.228945    ( 0.0000,  0.0000,  0.0000)
  42 Pt     2.795702    4.970417   19.154804    ( 0.0000,  0.0000,  0.0000)
  43 Ag     5.681468    4.928691   19.447396    ( 0.0000,  0.0000,  0.0000)
  44 Pt     8.558888    4.890714   19.152583    ( 0.0000,  0.0000,  0.0000)
  45 O      4.313326    0.763648   20.459695    ( 0.0000,  0.0000,  0.0000)

Unit cell:
           periodic     x           y           z      points  spacing
  1. axis:    yes    8.517266    0.000000    0.000000    40     0.1844
  2. axis:    yes    4.258633    7.376169    0.000000    40     0.1844
  3. axis:    no     0.000000    0.000000   29.270571   140     0.2091

  Lengths:   8.517266   8.517266  29.270571
  Angles:   90.000000  90.000000  60.000000

Effective grid spacing dv^(1/3) = 0.2017

     iter     time        total  log10-change:
                         energy  eigst   dens
iter:   1 23:12:31  -201.834994  -4.25
iter:   2 23:13:32  -229.775870  -2.98  -2.22
iter:   3 23:14:33  -202.519836  -3.34  -1.53
iter:   4 23:15:34  -201.135127  -4.23  -2.18
iter:   5 23:16:35  -200.998531  -5.31  -2.61
iter:   6 23:17:37  -200.952765c -5.56  -2.89
iter:   7 23:18:39  -200.950648c -6.04  -3.46
iter:   8 23:19:41  -200.942842c -5.99  -3.45
iter:   9 23:20:43  -200.943973c -6.65  -3.75
iter:  10 23:21:45  -200.942667c -6.99  -3.69
iter:  11 23:22:47  -200.943231c -7.11  -3.96
iter:  12 23:23:49  -200.942236c -6.86  -3.77
iter:  13 23:24:51  -200.941936c -7.55c -4.01c

Converged after 13 iterations.

Dipole moment: (31.283753, 11.790726, -0.094213) |e|*Ang

Energy contributions relative to reference atoms: (reference = -14174778.458134)

Kinetic:       -320.438578
Potential:     +175.972705
External:        +0.000000
XC:             -44.229339
Entropy (-ST):   -2.283808
Local:          -11.104822
--------------------------
Free energy:   -202.083840
Extrapolated:  -200.941936

Showing only first 2 kpts
 Kpt  Band  Eigenvalues  Occupancy
  0   364      0.65257    1.04094
  0   365      0.68113    0.89853
  0   366      0.71289    0.74514
  0   367      0.75055    0.57898

  1   364      0.55286    1.49263
  1   365      0.59140    1.33357
  1   366      0.61162    1.24088
  1   367      0.62585    1.17284


Fermi level: 0.66077

No gap

Forces in eV/Ang:
  0 Pd    0.00989   -0.00801   -0.26012
  1 Pt    0.30651   -0.52265    0.38067
  2 Pt   -0.34351   -0.14697    0.01371
  3 Pd   -0.41132    0.18378   -0.08351
  4 Pd    0.21961   -0.22019   -0.23611
  5 Pt    0.22574    0.31577   -0.19247
  6 Pd   -0.21938    0.22567   -0.09464
  7 Pt    0.54749    0.16617    0.08054
  8 Ru   -0.48589    0.05602    1.33055
  9 Pd   -0.22033    0.15222    0.18997
 10 Pt    0.29564    0.01181   -0.22630
 11 Pd    0.04535    0.05391   -0.10926
 12 Pd    0.09010    0.09332   -0.02430
 13 Pt   -0.17978   -0.17541    0.15070
 14 Ag    0.04547   -0.11901    0.02117
 15 Ag    0.02432   -0.07106   -0.10699
 16 Ag   -0.08202   -0.04877    0.07908
 17 Pt    0.03188    0.22495   -0.61218
 18 Pt    0.01008   -0.00775   -0.00873
 19 Pt    0.00519   -0.01098    0.00931
 20 Ru    0.00665   -0.00500   -0.02115
 21 Pt    0.00280   -0.01404    0.00431
 22 Pd    0.00284   -0.01846   -0.00891
 23 Pt    0.01497    0.00743   -0.02213
 24 Ag    0.01191   -0.01137   -0.02741
 25 Pt    0.01382   -0.00152   -0.00044
 26 Ag    0.00192    0.00344   -0.00651
 27 Pt    0.00968   -0.01316   -0.02369
 28 Pd   -0.00982   -0.01767   -0.01075
 29 Pd   -0.00029   -0.00697   -0.00863
 30 Ir    0.01278    0.00315   -0.03141
 31 Pt   -0.01331    0.01113   -0.03901
 32 Pd   -0.00249   -0.00465   -0.02649
 33 Pd    0.05221   -0.02231   -0.04256
 34 Ag   -0.01295   -0.01332   -0.00669
 35 Pt    0.02212   -0.01159   -0.00121
 36 Pt    0.02848    0.01061   -0.01039
 37 Pt   -0.03017    0.08899    0.04910
 38 Pt    0.00560   -0.01258   -0.02393
 39 Pt   -0.01899    0.00497   -0.03559
 40 Pd   -0.01339   -0.08040   -0.02816
 41 Pd   -0.03643   -0.02802   -0.04153
 42 Pt    0.02854   -0.03626   -0.04269
 43 Ag   -0.02967   -0.00549    0.02755
 44 Pt   -0.00266    0.03970   -0.05292
 45 O     0.03245   -0.04749   -0.06539

System changes: positions 

Initializing position-dependent things.

Density initialized from wave functions
                                             
                                             
                                             
                                             
                                             
                                             
                 Pt     Ag                   
                               Pt            
            Pt    OPd    APd    Pt           
              Pt                             
       Pt    Ir     PPt    Pd                
                      Pd                     
        Pt     Pd    Ag     Pt     Ag        
                Pt     Pd     Pt             
                                             
           Pt    APt    ARu    Pt            
                                             
            Pd    PPt    PAg    Ru           
       Pd    PPt    PPd    Pt                
                                             
        Pd     Pt     Pt                     
                                             
                                             
                                             
                                             
                                             

Positions:
   0 Pd     0.000000    1.639149   10.000000    ( 0.0000,  0.0000,  0.0000)
   1 Pt     2.839089    1.639149   10.000000    ( 0.0000,  0.0000,  0.0000)
   2 Pt     5.678177    1.639149   10.000000    ( 0.0000,  0.0000,  0.0000)
   3 Pd     1.419544    4.097872   10.000000    ( 0.0000,  0.0000,  0.0000)
   4 Pd     4.258633    4.097872   10.000000    ( 0.0000,  0.0000,  0.0000)
   5 Pt     7.097722    4.097872   10.000000    ( 0.0000,  0.0000,  0.0000)
   6 Pd     2.839089    6.556595   10.000000    ( 0.0000,  0.0000,  0.0000)
   7 Pt     5.678177    6.556595   10.000000    ( 0.0000,  0.0000,  0.0000)
   8 Ru     8.517266    6.556595   10.000000    ( 0.0000,  0.0000,  0.0000)
   9 Pd     0.000000    0.000000   12.317643    ( 0.0000,  0.0000,  0.0000)
  10 Pt     2.839089    0.000000   12.317643    ( 0.0000,  0.0000,  0.0000)
  11 Pd     5.678177    0.000000   12.317643    ( 0.0000,  0.0000,  0.0000)
  12 Pd     1.419544    2.458723   12.317643    ( 0.0000,  0.0000,  0.0000)
  13 Pt     4.258633    2.458723   12.317643    ( 0.0000,  0.0000,  0.0000)
  14 Ag     7.097722    2.458723   12.317643    ( 0.0000,  0.0000,  0.0000)
  15 Ag     2.839089    4.917446   12.317643    ( 0.0000,  0.0000,  0.0000)
  16 Ag     5.678177    4.917446   12.317643    ( 0.0000,  0.0000,  0.0000)
  17 Pt     8.517266    4.917446   12.317643    ( 0.0000,  0.0000,  0.0000)
  18 Pt     1.387331    0.798175   14.575151    ( 0.0000,  0.0000,  0.0000)
  19 Pt     4.326251    0.814986   14.607463    ( 0.0000,  0.0000,  0.0000)
  20 Ru     7.150239    0.908077   14.676977    ( 0.0000,  0.0000,  0.0000)
  21 Pt     2.843715    3.221288   14.672840    ( 0.0000,  0.0000,  0.0000)
  22 Pd     5.677039    3.253024   14.662689    ( 0.0000,  0.0000,  0.0000)
  23 Pt     8.532056    3.281574   14.636476    ( 0.0000,  0.0000,  0.0000)
  24 Ag     4.281419    5.720469   14.665631    ( 0.0000,  0.0000,  0.0000)
  25 Pt     7.159276    5.764601   14.616066    ( 0.0000,  0.0000,  0.0000)
  26 Ag     9.999265    5.743498   14.629222    ( 0.0000,  0.0000,  0.0000)
  27 Pt    -0.006399    1.656079   16.834765    ( 0.0000,  0.0000,  0.0000)
  28 Pd     2.854403    1.566361   16.907006    ( 0.0000,  0.0000,  0.0000)
  29 Pd     5.671723    1.612536   16.918102    ( 0.0000,  0.0000,  0.0000)
  30 Ir     1.440819    4.056255   16.939116    ( 0.0000,  0.0000,  0.0000)
  31 Pt     4.201796    4.025866   16.996237    ( 0.0000,  0.0000,  0.0000)
  32 Pd     7.067840    4.088287   16.919872    ( 0.0000,  0.0000,  0.0000)
  33 Pd     2.824084    6.599293   16.935588    ( 0.0000,  0.0000,  0.0000)
  34 Ag     5.684669    6.513832   16.993201    ( 0.0000,  0.0000,  0.0000)
  35 Pt     8.533942    6.523895   16.929933    ( 0.0000,  0.0000,  0.0000)
  36 Pt    -0.005007    0.054234   19.232644    ( 0.0000,  0.0000,  0.0000)
  37 Pt     2.739704    0.029484   19.373105    ( 0.0000,  0.0000,  0.0000)
  38 Pt     5.757877   -0.049878   19.324628    ( 0.0000,  0.0000,  0.0000)
  39 Pt     1.363292    2.459219   19.138498    ( 0.0000,  0.0000,  0.0000)
  40 Pd     4.226900    2.512370   19.284732    ( 0.0000,  0.0000,  0.0000)
  41 Pd     7.120261    2.443860   19.226770    ( 0.0000,  0.0000,  0.0000)
  42 Pt     2.796947    4.968130   19.154143    ( 0.0000,  0.0000,  0.0000)
  43 Ag     5.680954    4.927644   19.450103    ( 0.0000,  0.0000,  0.0000)
  44 Pt     8.558290    4.893060   19.149580    ( 0.0000,  0.0000,  0.0000)
  45 O      4.316520    0.761782   20.452262    ( 0.0000,  0.0000,  0.0000)

Unit cell:
           periodic     x           y           z      points  spacing
  1. axis:    yes    8.517266    0.000000    0.000000    40     0.1844
  2. axis:    yes    4.258633    7.376169    0.000000    40     0.1844
  3. axis:    no     0.000000    0.000000   29.270571   140     0.2091

  Lengths:   8.517266   8.517266  29.270571
  Angles:   90.000000  90.000000  60.000000

Effective grid spacing dv^(1/3) = 0.2017

     iter     time        total  log10-change:
                         energy  eigst   dens
iter:   1 23:26:14  -203.717598  -4.13
iter:   2 23:27:15  -276.772740  -2.50  -2.00
iter:   3 23:28:17  -205.694076  -2.89  -1.33
iter:   4 23:29:18  -201.806156  -3.88  -1.94
iter:   5 23:30:20  -201.140455  -4.78  -2.28
iter:   6 23:31:21  -200.970418  -5.03  -2.61
iter:   7 23:32:22  -200.965390c -5.49  -3.25
iter:   8 23:33:24  -200.946676c -5.44  -3.19
iter:   9 23:34:25  -200.954808c -6.00  -3.49
iter:  10 23:35:27  -200.947433c -6.43  -3.24
iter:  11 23:36:28  -200.946843c -6.71  -3.67
iter:  12 23:37:31  -200.945593c -6.67  -3.70
iter:  13 23:38:33  -200.945331c -7.27  -3.89
iter:  14 23:39:34  -200.944696c -6.97  -4.10c
iter:  15 23:40:36  -200.944844c -7.55c -3.99
iter:  16 23:41:38  -200.944505c -7.91c -4.44c

Converged after 16 iterations.

Dipole moment: (31.227965, 11.614114, -0.092560) |e|*Ang

Energy contributions relative to reference atoms: (reference = -14174778.458134)

Kinetic:       -319.369201
Potential:     +175.008040
External:        +0.000000
XC:             -44.335425
Entropy (-ST):   -2.282062
Local:          -11.106888
--------------------------
Free energy:   -202.085537
Extrapolated:  -200.944505

Showing only first 2 kpts
 Kpt  Band  Eigenvalues  Occupancy
  0   364      0.65282    1.04117
  0   365      0.68112    0.90006
  0   366      0.71319    0.74513
  0   367      0.75027    0.58135

  1   364      0.55334    1.49194
  1   365      0.59126    1.33550
  1   366      0.61251    1.23812
  1   367      0.62607    1.17319


Fermi level: 0.66106

No gap

Forces in eV/Ang:
  0 Pd    0.01134   -0.00796   -0.26542
  1 Pt    0.30737   -0.52480    0.37476
  2 Pt   -0.34534   -0.14886    0.00651
  3 Pd   -0.41232    0.18570   -0.08837
  4 Pd    0.21843   -0.21997   -0.24139
  5 Pt    0.22788    0.31819   -0.20017
  6 Pd   -0.22065    0.22534   -0.09990
  7 Pt    0.54923    0.16687    0.07359
  8 Ru   -0.48620    0.05584    1.32263
  9 Pd   -0.21943    0.15032    0.18570
 10 Pt    0.29783    0.01117   -0.23489
 11 Pd    0.04267    0.05360   -0.12098
 12 Pd    0.09337    0.09326   -0.03072
 13 Pt   -0.18145   -0.17653    0.14482
 14 Ag    0.04462   -0.11886    0.01097
 15 Ag    0.02598   -0.07323   -0.10954
 16 Ag   -0.08307   -0.04762    0.07754
 17 Pt    0.03428    0.22791   -0.62243
 18 Pt    0.00852   -0.00251   -0.00286
 19 Pt    0.00368   -0.00823    0.01503
 20 Ru    0.00401    0.00220   -0.00780
 21 Pt   -0.00028   -0.01297   -0.00506
 22 Pd    0.00211   -0.01790   -0.00264
 23 Pt    0.01098    0.00030   -0.00601
 24 Ag    0.01482   -0.01392   -0.04905
 25 Pt    0.01641    0.00155    0.00777
 26 Ag   -0.00224    0.00114   -0.00159
 27 Pt    0.00870   -0.00288   -0.00360
 28 Pd   -0.02364   -0.00393   -0.02610
 29 Pd    0.01784    0.00223   -0.02391
 30 Ir    0.00420    0.00284    0.00025
 31 Pt   -0.00593   -0.00548   -0.01639
 32 Pd    0.01094   -0.00555   -0.00866
 33 Pd    0.03159   -0.02032   -0.00735
 34 Ag    0.00514   -0.00427    0.01677
 35 Pt    0.01045   -0.01072   -0.02488
 36 Pt    0.00291   -0.00323   -0.01836
 37 Pt    0.00657    0.04848    0.04294
 38 Pt   -0.00617   -0.01254   -0.03066
 39 Pt   -0.04520    0.03236   -0.01951
 40 Pd    0.01411   -0.04159   -0.03257
 41 Pd   -0.00955   -0.01081   -0.02985
 42 Pt    0.01915   -0.03685   -0.04784
 43 Ag   -0.02396   -0.00643    0.01779
 44 Pt   -0.00399    0.01183   -0.02336
 45 O     0.01410   -0.03556    0.02638

Timing:                                      incl.     excl.
-------------------------------------------------------------------
Density initialized from wave functions:    26.588    26.587   0.2% |
 Symmetrize density:                         0.001     0.001   0.0% |
Forces:                                    139.230   139.230   1.1% |
Hamiltonian:                                14.782     0.094   0.0% |
 Atomic:                                     1.148     0.357   0.0% |
  XC Correction:                             0.791     0.791   0.0% |
 Calculate atomic Hamiltonians:              9.365     9.365   0.1% |
 Communicate:                                1.644     1.644   0.0% |
 Initialize Hamiltonian:                     0.000     0.000   0.0% |
 Poisson:                                    0.057     0.057   0.0% |
 XC 3D grid:                                 2.475     2.475   0.0% |
LCAO initialization:                       130.946     2.660   0.0% |
 LCAO eigensolver:                          13.888     0.001   0.0% |
  Blacs Orbital Layouts:                     0.278     0.000   0.0% |
   General diagonalize:                      0.273     0.273   0.0% |
   Redistribute coefs:                       0.003     0.003   0.0% |
   Send coefs to domains:                    0.002     0.002   0.0% |
  Calculate projections:                     0.003     0.003   0.0% |
  Distribute overlap matrix:                12.807     0.000   0.0% |
   Scalapack redistribute:                   0.009     0.009   0.0% |
   blocked summation:                       12.798    12.798   0.1% |
  Potential matrix:                          0.759     0.759   0.0% |
  SparseAtomicCorrection:                    0.006     0.006   0.0% |
  Sum over cells:                            0.034     0.034   0.0% |
 LCAO to grid:                             110.830   110.830   0.9% |
 Set positions (LCAO WFS):                   3.568     0.007   0.0% |
  Basic WFS set positions:                   0.003     0.003   0.0% |
  Basis functions set positions:             0.000     0.000   0.0% |
  P tci:                                     0.000     0.000   0.0% |
  ST tci:                                    0.289     0.289   0.0% |
  Scalapack redistribute:                    0.007     0.007   0.0% |
  blocked summation:                         3.146     3.146   0.0% |
  mktci:                                     0.116     0.116   0.0% |
PWDescriptor:                                0.549     0.549   0.0% |
Redistribute:                                0.011     0.011   0.0% |
SCF-cycle:                               11808.033   191.575   1.6% ||
 Davidson:                               10827.121  2545.451  20.9% |-------|
  Apply H:                                1113.003  1093.490   9.0% |---|
   HMM T:                                   19.513    19.513   0.2% |
  Subspace diag:                          1231.378     0.044   0.0% |
   calc_h_matrix:                          797.442   233.432   1.9% ||
    Apply H:                               564.009   552.839   4.5% |-|
     HMM T:                                 11.170    11.170   0.1% |
   diagonalize:                             50.066    50.066   0.4% |
   rotate_psi:                             383.826   383.826   3.2% ||
  calc. matrices:                         4134.144  2510.997  20.6% |-------|
   Apply H:                               1623.147  1593.642  13.1% |----|
    HMM T:                                  29.505    29.505   0.2% |
  diagonalize:                             606.726   606.726   5.0% |-|
  rotate_psi:                             1196.419  1196.419   9.8% |---|
 Density:                                  495.201     0.008   0.0% |
  Atomic density matrices:                   3.602     3.602   0.0% |
  Mix:                                     180.802   180.802   1.5% ||
  Multipole moments:                         0.341     0.341   0.0% |
  Pseudo density:                          310.448   310.439   2.6% ||
   Symmetrize density:                       0.009     0.009   0.0% |
 Hamiltonian:                              252.842     1.500   0.0% |
  Atomic:                                   17.380     4.371   0.0% |
   XC Correction:                           13.009    13.009   0.1% |
  Calculate atomic Hamiltonians:           160.079   160.079   1.3% ||
  Communicate:                              30.798    30.798   0.3% |
  Poisson:                                   0.951     0.951   0.0% |
  XC 3D grid:                               42.134    42.134   0.3% |
 Orthonormalize:                            41.293     0.004   0.0% |
  calc_s_matrix:                             6.599     6.599   0.1% |
  inverse-cholesky:                          2.433     2.433   0.0% |
  projections:                              21.202    21.202   0.2% |
  rotate_psi_s:                             11.055    11.055   0.1% |
Set symmetry:                                0.002     0.002   0.0% |
Other:                                      48.192    48.192   0.4% |
-------------------------------------------------------------------
Total:                                             12168.332 100.0%

Memory usage: 860.51 MiB
Date: Thu Jun 13 23:41:51 2024
