
  ___ ___ ___ _ _ _  
 |   |   |_  | | | | 
 | | | | | . | | | | 
 |__ |  _|___|_____|  22.1.0
 |___|_|             

User:   clausen@node435.cluster
Date:   Fri Jun 14 14:00:02 2024
Arch:   x86_64
Pid:    4798
Python: 3.10.4
gpaw:   /groups/kemi/clausen/miniconda3/envs/gpaw22/lib/python3.10/site-packages/gpaw
_gpaw:  /groups/kemi/clausen/miniconda3/envs/gpaw22/lib/python3.10/site-packages/
        _gpaw.cpython-310-x86_64-linux-gnu.so
ase:    /groups/kemi/clausen/miniconda3/envs/gpaw22/lib/python3.10/site-packages/ase (version 3.22.1)
numpy:  /groups/kemi/clausen/miniconda3/envs/gpaw22/lib/python3.10/site-packages/numpy (version 1.23.1)
scipy:  /groups/kemi/clausen/miniconda3/envs/gpaw22/lib/python3.10/site-packages/scipy (version 1.8.1)
libxc:  5.2.3
units:  Angstrom and eV
cores: 24
OpenMP: True
OMP_NUM_THREADS: 1

Input parameters:
  eigensolver: {name: dav,
                niter: 3}
  kpts: [4 4 1]
  mode: {ecut: 400.0,
         name: pw}
  xc: RPBE

System changes: positions, numbers, cell, pbc, initial_charges, initial_magmoms 

Initialize ...

Pd-setup:
  name: Palladium
  id: 6da19bfba079f22767af9506641940b9
  Z: 46.0
  valence: 16
  core: 30
  charge: 0.0
  file: /groups/kemi/clausen/miniconda3/envs/gpaw22/share/gpaw/Pd.RPBE.gz
  compensation charges: gauss, rc=0.38, lmax=2
  cutoffs: 2.38(filt), 2.28(core),
  valence states:
                energy  radius
    5s(0.00)    -3.225   1.228
    4p(6.00)   -51.131   1.360
    5p(0.00)    -0.373   1.360
    4d(10.00)    -3.964   1.228
    *s          23.987   1.228
    *d          23.247   1.228

  Using partial waves for Pd as LCAO basis

Pt-setup:
  name: Platinum
  id: f04f522592575c47ad794f6b4a415b4b
  Z: 78.0
  valence: 16
  core: 62
  charge: 0.0
  file: /groups/kemi/clausen/miniconda3/envs/gpaw22/share/gpaw/Pt.RPBE.gz
  compensation charges: gauss, rc=0.41, lmax=2
  cutoffs: 2.26(filt), 2.26(core),
  valence states:
                energy  radius
    6s(1.00)    -5.516   1.307
    5p(6.00)   -55.971   1.371
    6p(0.00)    -0.856   1.371
    5d(9.00)    -6.087   1.307
    *s          21.695   1.307
    *d          21.125   1.307

  Using partial waves for Pt as LCAO basis

Ag-setup:
  name: Silver
  id: c05e55bab2c3858b3f9398f6d75cb77c
  Z: 47.0
  valence: 17
  core: 30
  charge: 0.0
  file: /groups/kemi/clausen/miniconda3/envs/gpaw22/share/gpaw/Ag.RPBE.gz
  compensation charges: gauss, rc=0.40, lmax=2
  cutoffs: 2.35(filt), 2.19(core),
  valence states:
                energy  radius
    5s(1.00)    -4.277   1.286
    4p(6.00)   -58.523   1.328
    5p(0.00)    -0.755   1.328
    4d(10.00)    -7.386   1.180
    *s          22.934   1.286
    *d          19.826   1.180

  Using partial waves for Ag as LCAO basis

Ir-setup:
  name: Iridium
  id: 73b603359d1d5397a85ae3c2440f9033
  Z: 77.0
  valence: 15
  core: 62
  charge: 0.0
  file: /groups/kemi/clausen/miniconda3/envs/gpaw22/share/gpaw/Ir.RPBE.gz
  compensation charges: gauss, rc=0.40, lmax=2
  cutoffs: 2.40(filt), 2.36(core),
  valence states:
                energy  radius
    6s(2.00)    -6.219   1.296
    5p(6.00)   -54.684   1.328
    6p(0.00)    -1.215   1.328
    5d(7.00)    -7.118   1.286
    *s          20.992   1.296
    *d          20.093   1.286

  Using partial waves for Ir as LCAO basis

Ru-setup:
  name: Ruthenium
  id: 76477906e28f51dc1b29884d53556fe9
  Z: 44.0
  valence: 16
  core: 28
  charge: 0.0
  file: /groups/kemi/clausen/miniconda3/envs/gpaw22/share/gpaw/Ru.RPBE.gz
  compensation charges: gauss, rc=0.39, lmax=2
  cutoffs: 2.16(filt), 1.30(core),
  valence states:
                energy  radius
    4s(2.00)   -76.255   1.281
    5s(1.00)    -4.126   1.281
    4p(6.00)   -46.371   1.286
    5p(0.00)    -0.913   1.286
    4d(7.00)    -5.146   1.254
    *d          22.066   1.254

  Using partial waves for Ru as LCAO basis

O-setup:
  name: Oxygen
  id: 08071ca1eed670e7821b24b7eb4d558c
  Z: 8.0
  valence: 6
  core: 2
  charge: 0.0
  file: /groups/kemi/clausen/miniconda3/envs/gpaw22/share/gpaw/O.RPBE.gz
  compensation charges: gauss, rc=0.21, lmax=2
  cutoffs: 1.17(filt), 0.83(core),
  valence states:
                energy  radius
    2s(2.00)   -24.041   0.688
    2p(4.00)    -8.984   0.598
    *s           3.170   0.688
    *p          18.228   0.598
    *d           0.000   0.619

  Using partial waves for O as LCAO basis

Reference energy: -12373358.334139

Spin-paired calculation

Convergence criteria:
 Maximum [total energy] change in last 3 cyles: 0.0005 eV / electron
 Maximum integral of absolute [dens]ity change: 0.0001 electrons / valence electron
 Maximum integral of absolute [eigenst]ate change: 4e-08 eV^2 / valence electron
 Maximum number of scf [iter]ations: 333
 (Square brackets indicate name in SCF output, whereas a 'c' in
 the SCF output indicates the quantity has converged.)

Symmetries present (total): 1

  ( 1  0  0)
  ( 0  1  0)
  ( 0  0  1)

16 k-points: 4 x 4 x 1 Monkhorst-Pack grid
8 k-points in the irreducible part of the Brillouin zone
       k-points in crystal coordinates                weights
   0:     0.12500000   -0.37500000    0.00000000          2/16
   1:     0.12500000   -0.12500000    0.00000000          2/16
   2:     0.12500000    0.12500000    0.00000000          2/16
   3:     0.12500000    0.37500000    0.00000000          2/16
   4:     0.37500000   -0.37500000    0.00000000          2/16
   5:     0.37500000   -0.12500000    0.00000000          2/16
   6:     0.37500000    0.12500000    0.00000000          2/16
   7:     0.37500000    0.37500000    0.00000000          2/16

Wave functions: Plane wave expansion
  Cutoff energy: 400.000 eV
  Number of coefficients (min, max): 33288, 33380
  Pulay-stress correction: 0.000000 eV/Ang^3 (de/decut=0.000000)
  Using FFTW library
  ScaLapack parameters: grid=3x1, blocksize=64
  Wavefunction extrapolation:
    Improved wavefunction reuse through dual PAW basis 

Occupation numbers: Fermi-Dirac: width=0.1000 eV
 

Eigensolver
   Davidson(niter=3) 

Densities:
  Coarse grid: 40*40*140 grid
  Fine grid: 80*80*280 grid
  Total Charge: 0.000000 

Density mixing:
  Method: separate
  Backend: pulay
  Linear mixing parameter: 0.05
  Mixing with 5 old densities
  Damping of long wave oscillations: 50 

Hamiltonian:
  XC and Coulomb potentials evaluated on a 80*80*280 grid
  Using the RPBE Exchange-Correlation functional
  External potential:
    NoExternalPotential
 

XC parameters: RPBE with 2 nearest neighbor stencil

Memory estimate:
  Process memory now: 196.67 MiB
  Calculator: 560.79 MiB
    Density: 47.40 MiB
      Arrays: 14.92 MiB
      Localized functions: 26.74 MiB
      Mixer: 5.74 MiB
    Hamiltonian: 10.59 MiB
      Arrays: 9.75 MiB
      XC: 0.00 MiB
      Poisson: 0.00 MiB
      vbar: 0.84 MiB
    Wavefunctions: 502.80 MiB
      Arrays psit_nG: 227.67 MiB
      Eigensolver: 260.72 MiB
      Projections: 1.87 MiB
      Projectors: 3.74 MiB
      PW-descriptor: 8.80 MiB

Total number of cores used: 24
Parallelization over k-points: 8
Domain decomposition: 1 x 1 x 3
                      2 x 2 x 6 (xc only)

Number of atoms: 46
Number of atomic orbitals: 547
Number of bands in calculation: 447
Number of valence electrons: 737
Bands to converge: occupied

... initialized

Initializing position-dependent things.

Density initialized from atomic densities
Creating initial wave functions:
  447 bands from LCAO basis set

                                             
                                             
                                             
                                             
                                             
                                             
                               Ag            
                  Ir    Pt                   
           O Pt   PRu     Pt    Pd           
                         Pt                  
       Pt    APt    PAg    Ru                
                                             
        Ag     Ag    PPt    Pt     Ag        
                       Pd     Pt             
                Ru                           
           Ag    PAg    PPt    Pd            
                                             
            Ir     Pt    PAg    Pd           
       Pd     Pd     Pt                      
             Pd     Ag     Ag                
        Pd     Pt     Ag                     
                                             
                                             
                                             
                                             
                                             

Positions:
   0 Pd     0.000000    1.637674   10.000000    ( 0.0000,  0.0000,  0.0000)
   1 Pt     2.836535    1.637674   10.000000    ( 0.0000,  0.0000,  0.0000)
   2 Ag     5.673071    1.637674   10.000000    ( 0.0000,  0.0000,  0.0000)
   3 Pd     1.418268    4.094186   10.000000    ( 0.0000,  0.0000,  0.0000)
   4 Ag     4.254803    4.094186   10.000000    ( 0.0000,  0.0000,  0.0000)
   5 Ag     7.091338    4.094186   10.000000    ( 0.0000,  0.0000,  0.0000)
   6 Ag     2.836535    6.550698   10.000000    ( 0.0000,  0.0000,  0.0000)
   7 Pd     5.673071    6.550698   10.000000    ( 0.0000,  0.0000,  0.0000)
   8 Pd     8.509606    6.550698   10.000000    ( 0.0000,  0.0000,  0.0000)
   9 Pd     0.000000    0.000000   12.317643    ( 0.0000,  0.0000,  0.0000)
  10 Pd     2.836535    0.000000   12.317643    ( 0.0000,  0.0000,  0.0000)
  11 Pt     5.673071    0.000000   12.317643    ( 0.0000,  0.0000,  0.0000)
  12 Ir     1.418268    2.456512   12.317643    ( 0.0000,  0.0000,  0.0000)
  13 Pt     4.254803    2.456512   12.317643    ( 0.0000,  0.0000,  0.0000)
  14 Ag     7.091338    2.456512   12.317643    ( 0.0000,  0.0000,  0.0000)
  15 Pt     2.836535    4.913023   12.317643    ( 0.0000,  0.0000,  0.0000)
  16 Pd     5.673071    4.913023   12.317643    ( 0.0000,  0.0000,  0.0000)
  17 Pd     8.509606    4.913023   12.317643    ( 0.0000,  0.0000,  0.0000)
  18 Ag     1.386531    0.763556   14.612127    ( 0.0000,  0.0000,  0.0000)
  19 Ag     4.217140    0.786897   14.656625    ( 0.0000,  0.0000,  0.0000)
  20 Pt     7.062906    0.797650   14.661830    ( 0.0000,  0.0000,  0.0000)
  21 Ru     2.750963    3.304886   14.388561    ( 0.0000,  0.0000,  0.0000)
  22 Pd     5.602551    3.218685   14.639951    ( 0.0000,  0.0000,  0.0000)
  23 Pt     8.522404    3.252925   14.664528    ( 0.0000,  0.0000,  0.0000)
  24 Pt     4.170018    5.653000   14.615813    ( 0.0000,  0.0000,  0.0000)
  25 Pt     7.045875    5.606680   14.668177    ( 0.0000,  0.0000,  0.0000)
  26 Ag     9.874604    5.745082   14.696712    ( 0.0000,  0.0000,  0.0000)
  27 Ag     0.008271    1.607036   16.990555    ( 0.0000,  0.0000,  0.0000)
  28 Ag     2.792579    1.619369   16.881405    ( 0.0000,  0.0000,  0.0000)
  29 Pt     5.667100    1.638371   17.010896    ( 0.0000,  0.0000,  0.0000)
  30 Ag     1.336657    4.090436   17.016493    ( 0.0000,  0.0000,  0.0000)
  31 Pd     4.156889    4.034058   16.812256    ( 0.0000,  0.0000,  0.0000)
  32 Ru     6.950997    4.060452   16.869499    ( 0.0000,  0.0000,  0.0000)
  33 Pd     2.789491    6.566972   17.027197    ( 0.0000,  0.0000,  0.0000)
  34 Pt     5.653668    6.422911   16.906578    ( 0.0000,  0.0000,  0.0000)
  35 Pd     8.427941    6.500649   17.069490    ( 0.0000,  0.0000,  0.0000)
  36 Pt     0.076782   -0.041353   19.274293    ( 0.0000,  0.0000,  0.0000)
  37 Pt     2.811452    0.089084   19.254665    ( 0.0000,  0.0000,  0.0000)
  38 Ag     5.710723    0.010761   19.489412    ( 0.0000,  0.0000,  0.0000)
  39 Pt     1.555073    2.469759   19.393081    ( 0.0000,  0.0000,  0.0000)
  40 Ru     4.240188    2.601647   19.102653    ( 0.0000,  0.0000,  0.0000)
  41 Pt     7.117679    2.492363   19.219346    ( 0.0000,  0.0000,  0.0000)
  42 Ir     3.044217    4.828007   19.146959    ( 0.0000,  0.0000,  0.0000)
  43 Pt     5.722064    4.861267   19.161462    ( 0.0000,  0.0000,  0.0000)
  44 Ag     8.573183    4.898414   19.530449    ( 0.0000,  0.0000,  0.0000)
  45 O      1.481102    0.839163   20.830449    ( 0.0000,  0.0000,  0.0000)

Unit cell:
           periodic     x           y           z      points  spacing
  1. axis:    yes    8.509606    0.000000    0.000000    40     0.1842
  2. axis:    yes    4.254803    7.369535    0.000000    40     0.1842
  3. axis:    no     0.000000    0.000000   29.270571   140     0.2091

  Lengths:   8.509606   8.509606  29.270571
  Angles:   90.000000  90.000000  60.000000

Effective grid spacing dv^(1/3) = 0.2016

     iter     time        total  log10-change:
                         energy  eigst   dens
iter:   1 14:03:20  -245.399384
iter:   2 14:04:17  -351.911748  -1.42  -1.22
iter:   3 14:05:15  -219.166807  -1.93  -1.08
iter:   4 14:06:12  -200.652796  -2.47  -1.35
iter:   5 14:07:10  -196.639589  -2.84  -1.48
iter:   6 14:08:08  -194.388775  -3.04  -1.56
iter:   7 14:09:07  -200.044566  -2.60  -1.63
iter:   8 14:10:05  -192.201851  -2.62  -1.64
iter:   9 14:11:04  -190.712118  -3.42  -1.97
iter:  10 14:12:03  -190.750107  -3.80  -2.10
iter:  11 14:13:01  -190.833088c -3.97  -2.14
iter:  12 14:14:00  -190.534557c -4.08  -2.20
iter:  13 14:14:59  -191.002074  -3.75  -2.31
iter:  14 14:15:59  -190.346130  -4.28  -2.20
iter:  15 14:16:58  -190.263355  -4.07  -2.53
iter:  16 14:17:57  -190.252880c -4.67  -2.73
iter:  17 14:18:56  -190.261423c -5.00  -2.84
iter:  18 14:19:55  -190.244628c -5.15  -2.88
iter:  19 14:20:55  -190.250968c -5.62  -2.95
iter:  20 14:21:55  -190.249782c -5.51  -3.03
iter:  21 14:22:54  -190.246467c -5.82  -3.10
iter:  22 14:23:53  -190.247999c -6.17  -3.11
iter:  23 14:24:53  -190.250295c -5.97  -3.19
iter:  24 14:25:53  -190.248658c -5.67  -3.18
iter:  25 14:26:52  -190.256976c -5.84  -3.22
iter:  26 14:27:52  -190.249693c -6.25  -3.45
iter:  27 14:28:51  -190.249224c -6.37  -3.47
iter:  28 14:29:50  -190.250645c -6.07  -3.59
iter:  29 14:30:50  -190.251009c -6.91  -3.78
iter:  30 14:31:50  -190.249310c -7.21  -3.92
iter:  31 14:32:49  -190.250232c -7.30  -3.97
iter:  32 14:33:48  -190.249269c -7.88c -4.03c

Converged after 32 iterations.

Dipole moment: (-7.482251, 6.347348, -0.402934) |e|*Ang

Energy contributions relative to reference atoms: (reference = -12373358.334139)

Kinetic:       -228.885106
Potential:     +103.331703
External:        +0.000000
XC:             -56.693189
Entropy (-ST):   -1.903221
Local:           -7.051065
--------------------------
Free energy:   -191.200879
Extrapolated:  -190.249269

Showing only first 2 kpts
 Kpt  Band  Eigenvalues  Occupancy
  0   366      0.72189    1.03931
  0   367      0.74528    0.92254
  0   368      0.76495    0.82581
  0   369      0.79723    0.67489

  1   366      0.59307    1.59374
  1   367      0.61778    1.50791
  1   368      0.64235    1.41118
  1   369      0.68950    1.19859


Fermi level: 0.72976

No gap

Forces in eV/Ang:
  0 Pd    0.70966    0.05644    0.09929
  1 Pt   -0.59300   -0.16153    0.56793
  2 Ag   -0.10417   -0.07601   -0.56386
  3 Pd   -0.03456   -0.33031    0.21607
  4 Ag   -0.00853    0.02331   -0.57648
  5 Ag    0.13465    0.15899   -0.49063
  6 Ag    0.03572   -0.00743   -0.47143
  7 Pd    0.23523    0.35733    0.07412
  8 Pd   -0.12671    0.14607    0.20317
  9 Pd    0.00862    0.08975   -0.00989
 10 Pd   -0.01025   -0.03360   -0.10818
 11 Pt   -0.04705   -0.14773    0.12608
 12 Ir    0.68423    0.15553   -0.02117
 13 Pt   -0.66130   -0.19042    0.24205
 14 Ag    0.10974   -0.01707    0.09363
 15 Pt   -0.29275    0.00632    0.13991
 16 Pd   -0.07379    0.25215    0.15039
 17 Pd    0.14834   -0.00353    0.16315
 18 Ag   -0.02921   -0.01054   -0.03013
 19 Ag   -0.00485   -0.02314    0.00438
 20 Pt   -0.02872   -0.06331   -0.02106
 21 Ru    0.00345    0.01048   -0.02692
 22 Pd   -0.00944    0.00289    0.01082
 23 Pt   -0.00744    0.02961   -0.03275
 24 Pt    0.00286    0.01225   -0.00721
 25 Pt   -0.02057   -0.02271    0.03134
 26 Ag   -0.02069   -0.03313   -0.02964
 27 Ag   -0.05890   -0.00366   -0.12799
 28 Ag    0.02290    0.00053   -0.05828
 29 Pt   -0.05660   -0.00082    0.08007
 30 Ag   -0.00079   -0.09585    0.13112
 31 Pd    0.04346   -0.05139    0.05460
 32 Ru    0.01627   -0.02415    0.01536
 33 Pd    0.19966    0.09233    0.23663
 34 Pt   -0.02428   -0.05530   -0.06077
 35 Pd   -0.18793    0.11441    0.23228
 36 Pt   -0.28762   -0.20680    0.72177
 37 Pt    0.45570   -0.34697    0.56885
 38 Ag   -0.00233    0.00091   -0.00068
 39 Pt    0.00277    0.48122    0.89964
 40 Ru    0.41824    0.29371   -0.07160
 41 Pt   -0.25531    0.08862   -0.11892
 42 Ir   -0.04319   -0.17222   -0.13230
 43 Pt   -0.08027   -0.30622   -0.03724
 44 Ag   -0.00097    0.05577    0.00931
 45 O    -0.14922   -0.04093   -1.99697

System changes: positions 

Initializing position-dependent things.

Density initialized from wave functions
                                             
                                             
                                             
                                             
                                             
                                             
                               Ag            
                  Ir    Pt                   
           O Pt   PRu     Pt    Pd           
                         Pt                  
       Pt    APt    PAg    Ru                
                                             
        Ag     Ag    PPt    Pt     Ag        
                       Pd     Pt             
                Ru                           
           Ag    PAg    PPt    Pd            
                                             
            Ir     Pt    PAg    Pd           
       Pd     Pd     Pt                      
             Pd     Ag     Ag                
        Pd     Pt     Ag                     
                                             
                                             
                                             
                                             
                                             

Positions:
   0 Pd     0.000000    1.637674   10.000000    ( 0.0000,  0.0000,  0.0000)
   1 Pt     2.836535    1.637674   10.000000    ( 0.0000,  0.0000,  0.0000)
   2 Ag     5.673071    1.637674   10.000000    ( 0.0000,  0.0000,  0.0000)
   3 Pd     1.418268    4.094186   10.000000    ( 0.0000,  0.0000,  0.0000)
   4 Ag     4.254803    4.094186   10.000000    ( 0.0000,  0.0000,  0.0000)
   5 Ag     7.091338    4.094186   10.000000    ( 0.0000,  0.0000,  0.0000)
   6 Ag     2.836535    6.550698   10.000000    ( 0.0000,  0.0000,  0.0000)
   7 Pd     5.673071    6.550698   10.000000    ( 0.0000,  0.0000,  0.0000)
   8 Pd     8.509606    6.550698   10.000000    ( 0.0000,  0.0000,  0.0000)
   9 Pd     0.000000    0.000000   12.317643    ( 0.0000,  0.0000,  0.0000)
  10 Pd     2.836535    0.000000   12.317643    ( 0.0000,  0.0000,  0.0000)
  11 Pt     5.673071    0.000000   12.317643    ( 0.0000,  0.0000,  0.0000)
  12 Ir     1.418268    2.456512   12.317643    ( 0.0000,  0.0000,  0.0000)
  13 Pt     4.254803    2.456512   12.317643    ( 0.0000,  0.0000,  0.0000)
  14 Ag     7.091338    2.456512   12.317643    ( 0.0000,  0.0000,  0.0000)
  15 Pt     2.836535    4.913023   12.317643    ( 0.0000,  0.0000,  0.0000)
  16 Pd     5.673071    4.913023   12.317643    ( 0.0000,  0.0000,  0.0000)
  17 Pd     8.509606    4.913023   12.317643    ( 0.0000,  0.0000,  0.0000)
  18 Ag     1.386113    0.763405   14.611696    ( 0.0000,  0.0000,  0.0000)
  19 Ag     4.217071    0.786567   14.656688    ( 0.0000,  0.0000,  0.0000)
  20 Pt     7.062496    0.796745   14.661529    ( 0.0000,  0.0000,  0.0000)
  21 Ru     2.751012    3.305036   14.388177    ( 0.0000,  0.0000,  0.0000)
  22 Pd     5.602416    3.218726   14.640106    ( 0.0000,  0.0000,  0.0000)
  23 Pt     8.522298    3.253348   14.664060    ( 0.0000,  0.0000,  0.0000)
  24 Pt     4.170059    5.653175   14.615710    ( 0.0000,  0.0000,  0.0000)
  25 Pt     7.045581    5.606356   14.668625    ( 0.0000,  0.0000,  0.0000)
  26 Ag     9.874308    5.744609   14.696288    ( 0.0000,  0.0000,  0.0000)
  27 Ag     0.007429    1.606984   16.988726    ( 0.0000,  0.0000,  0.0000)
  28 Ag     2.792906    1.619377   16.880572    ( 0.0000,  0.0000,  0.0000)
  29 Pt     5.666292    1.638359   17.012040    ( 0.0000,  0.0000,  0.0000)
  30 Ag     1.336646    4.089066   17.018366    ( 0.0000,  0.0000,  0.0000)
  31 Pd     4.157510    4.033324   16.813035    ( 0.0000,  0.0000,  0.0000)
  32 Ru     6.951229    4.060107   16.869718    ( 0.0000,  0.0000,  0.0000)
  33 Pd     2.792343    6.568291   17.030578    ( 0.0000,  0.0000,  0.0000)
  34 Pt     5.653321    6.422121   16.905710    ( 0.0000,  0.0000,  0.0000)
  35 Pd     8.425257    6.502283   17.072808    ( 0.0000,  0.0000,  0.0000)
  36 Pt     0.072673   -0.044307   19.284604    ( 0.0000,  0.0000,  0.0000)
  37 Pt     2.817961    0.084127   19.262791    ( 0.0000,  0.0000,  0.0000)
  38 Ag     5.710690    0.010774   19.489402    ( 0.0000,  0.0000,  0.0000)
  39 Pt     1.555113    2.476634   19.405933    ( 0.0000,  0.0000,  0.0000)
  40 Ru     4.246163    2.605842   19.101630    ( 0.0000,  0.0000,  0.0000)
  41 Pt     7.114032    2.493629   19.217647    ( 0.0000,  0.0000,  0.0000)
  42 Ir     3.043600    4.825547   19.145069    ( 0.0000,  0.0000,  0.0000)
  43 Pt     5.720917    4.856892   19.160930    ( 0.0000,  0.0000,  0.0000)
  44 Ag     8.573170    4.899211   19.530582    ( 0.0000,  0.0000,  0.0000)
  45 O      1.478971    0.838579   20.801921    ( 0.0000,  0.0000,  0.0000)

Unit cell:
           periodic     x           y           z      points  spacing
  1. axis:    yes    8.509606    0.000000    0.000000    40     0.1842
  2. axis:    yes    4.254803    7.369535    0.000000    40     0.1842
  3. axis:    no     0.000000    0.000000   29.270571   140     0.2091

  Lengths:   8.509606   8.509606  29.270571
  Angles:   90.000000  90.000000  60.000000

Effective grid spacing dv^(1/3) = 0.2016

     iter     time        total  log10-change:
                         energy  eigst   dens
iter:   1 14:35:07  -191.676849  -4.14
iter:   2 14:36:06  -217.498266  -3.00  -2.17
iter:   3 14:37:06  -191.281206  -3.14  -1.57
iter:   4 14:38:06  -190.515784  -4.40  -2.34
iter:   5 14:39:06  -190.451431  -5.15  -2.79
iter:   6 14:40:05  -190.375397c -5.35  -2.85
iter:   7 14:41:04  -190.360940c -6.04  -3.21
iter:   8 14:42:04  -190.350816c -6.02  -3.37
iter:   9 14:43:03  -190.363113c -6.21  -3.52
iter:  10 14:44:03  -190.347819c -6.20  -3.37
iter:  11 14:45:03  -190.348609c -6.33  -3.31
iter:  12 14:46:04  -190.349146c -7.06  -3.88
iter:  13 14:47:04  -190.349648c -7.37  -3.98
iter:  14 14:48:05  -190.348636c -7.37  -4.00c
iter:  15 14:49:06  -190.350090c -7.58c -4.14c

Converged after 15 iterations.

Dipole moment: (-7.068044, 6.671981, -0.388545) |e|*Ang

Energy contributions relative to reference atoms: (reference = -12373358.334139)

Kinetic:       -230.655692
Potential:     +105.056698
External:        +0.000000
XC:             -56.832679
Entropy (-ST):   -1.893404
Local:           -6.971715
--------------------------
Free energy:   -191.296792
Extrapolated:  -190.350090

Showing only first 2 kpts
 Kpt  Band  Eigenvalues  Occupancy
  0   366      0.72815    1.04997
  0   367      0.75432    0.91936
  0   368      0.77309    0.82707
  0   369      0.80678    0.66975

  1   366      0.60330    1.58778
  1   367      0.62626    1.50758
  1   368      0.64817    1.42183
  1   369      0.69689    1.20344


Fermi level: 0.73815

No gap

Forces in eV/Ang:
  0 Pd    0.70224    0.06111    0.11000
  1 Pt   -0.59134   -0.15448    0.56653
  2 Ag   -0.09584   -0.07510   -0.55296
  3 Pd   -0.04332   -0.32990    0.22873
  4 Ag   -0.00561    0.02851   -0.56584
  5 Ag    0.14042    0.16124   -0.48439
  6 Ag    0.03708   -0.00635   -0.46635
  7 Pd    0.23490    0.34836    0.07838
  8 Pd   -0.12828    0.13335    0.20803
  9 Pd    0.00829    0.09346   -0.01422
 10 Pd   -0.00912   -0.04302   -0.10588
 11 Pt   -0.04926   -0.15038    0.13639
 12 Ir    0.67860    0.15702   -0.00551
 13 Pt   -0.65993   -0.19186    0.25594
 14 Ag    0.11348   -0.01877    0.09724
 15 Pt   -0.29165    0.00919    0.15191
 16 Pd   -0.06658    0.25891    0.15397
 17 Pd    0.13859    0.00224    0.16532
 18 Ag   -0.02579   -0.00754   -0.02538
 19 Ag    0.00554   -0.02756    0.00825
 20 Pt   -0.04156   -0.06444   -0.01356
 21 Ru    0.00058    0.00745   -0.02228
 22 Pd   -0.00847   -0.00454    0.01747
 23 Pt    0.00231    0.03143   -0.00944
 24 Pt   -0.01578    0.00331    0.00468
 25 Pt   -0.00481   -0.02100    0.02895
 26 Ag   -0.01825   -0.02596   -0.00506
 27 Ag   -0.03135   -0.02008   -0.05544
 28 Ag   -0.00216   -0.00993    0.02210
 29 Pt   -0.05317   -0.03245    0.04076
 30 Ag   -0.00548   -0.08812    0.11823
 31 Pd    0.01095   -0.04241    0.01729
 32 Ru    0.04335   -0.00753   -0.00747
 33 Pd    0.16930    0.08113    0.21711
 34 Pt   -0.01224   -0.01159   -0.00972
 35 Pd   -0.16198    0.09796    0.20157
 36 Pt   -0.27920   -0.20792    0.57711
 37 Pt    0.43284   -0.29374    0.43350
 38 Ag    0.00293   -0.01131   -0.03784
 39 Pt    0.05200    0.48785    0.73751
 40 Ru    0.34948    0.20982   -0.06571
 41 Pt   -0.19455    0.06156   -0.11028
 42 Ir   -0.08183   -0.13952   -0.10555
 43 Pt   -0.05378   -0.21687   -0.03690
 44 Ag    0.00006    0.04836   -0.02376
 45 O    -0.17801   -0.06303   -1.75265

System changes: positions 

Initializing position-dependent things.

Density initialized from wave functions
                                             
                                             
                                             
                                             
                                             
                                             
                               Ag            
                  Ir    Pt                   
           O Pt   PRu    PPt    Pd           
                     Ag                      
       Pt    APt    Pd     Ru                
                      Pt                     
        Ag     Ag    Pt     Pt     Ag        
                       Pd     Pt             
                Ru                           
           Ag    PAg    PPt    Pd            
                                             
            Ir     Pt    PAg    Pd           
       Pd    PPd    APt    Ag                
                                             
        Pd     Pt     Ag                     
                                             
                                             
                                             
                                             
                                             

Positions:
   0 Pd     0.000000    1.637674   10.000000    ( 0.0000,  0.0000,  0.0000)
   1 Pt     2.836535    1.637674   10.000000    ( 0.0000,  0.0000,  0.0000)
   2 Ag     5.673071    1.637674   10.000000    ( 0.0000,  0.0000,  0.0000)
   3 Pd     1.418268    4.094186   10.000000    ( 0.0000,  0.0000,  0.0000)
   4 Ag     4.254803    4.094186   10.000000    ( 0.0000,  0.0000,  0.0000)
   5 Ag     7.091338    4.094186   10.000000    ( 0.0000,  0.0000,  0.0000)
   6 Ag     2.836535    6.550698   10.000000    ( 0.0000,  0.0000,  0.0000)
   7 Pd     5.673071    6.550698   10.000000    ( 0.0000,  0.0000,  0.0000)
   8 Pd     8.509606    6.550698   10.000000    ( 0.0000,  0.0000,  0.0000)
   9 Pd     0.000000    0.000000   12.317643    ( 0.0000,  0.0000,  0.0000)
  10 Pd     2.836535    0.000000   12.317643    ( 0.0000,  0.0000,  0.0000)
  11 Pt     5.673071    0.000000   12.317643    ( 0.0000,  0.0000,  0.0000)
  12 Ir     1.418268    2.456512   12.317643    ( 0.0000,  0.0000,  0.0000)
  13 Pt     4.254803    2.456512   12.317643    ( 0.0000,  0.0000,  0.0000)
  14 Ag     7.091338    2.456512   12.317643    ( 0.0000,  0.0000,  0.0000)
  15 Pt     2.836535    4.913023   12.317643    ( 0.0000,  0.0000,  0.0000)
  16 Pd     5.673071    4.913023   12.317643    ( 0.0000,  0.0000,  0.0000)
  17 Pd     8.509606    4.913023   12.317643    ( 0.0000,  0.0000,  0.0000)
  18 Ag     1.383344    0.762586   14.608964    ( 0.0000,  0.0000,  0.0000)
  19 Ag     4.217607    0.783650   14.657547    ( 0.0000,  0.0000,  0.0000)
  20 Pt     7.058131    0.789878   14.660043    ( 0.0000,  0.0000,  0.0000)
  21 Ru     2.751090    3.305846   14.385775    ( 0.0000,  0.0000,  0.0000)
  22 Pd     5.601508    3.218281   14.641934    ( 0.0000,  0.0000,  0.0000)
  23 Pt     8.522493    3.256691   14.662931    ( 0.0000,  0.0000,  0.0000)
  24 Pt     4.168474    5.653575   14.616147    ( 0.0000,  0.0000,  0.0000)
  25 Pt     7.044985    5.604107   14.671725    ( 0.0000,  0.0000,  0.0000)
  26 Ag     9.872348    5.741802   14.695619    ( 0.0000,  0.0000,  0.0000)
  27 Ag     0.003941    1.604928   16.982431    ( 0.0000,  0.0000,  0.0000)
  28 Ag     2.792807    1.618373   16.882506    ( 0.0000,  0.0000,  0.0000)
  29 Pt     5.660602    1.635065   17.016594    ( 0.0000,  0.0000,  0.0000)
  30 Ag     1.336086    4.079627   17.031044    ( 0.0000,  0.0000,  0.0000)
  31 Pd     4.158849    4.028753   16.815076    ( 0.0000,  0.0000,  0.0000)
  32 Ru     6.955710    4.059216   16.869042    ( 0.0000,  0.0000,  0.0000)
  33 Pd     2.810561    6.577003   17.053838    ( 0.0000,  0.0000,  0.0000)
  34 Pt     5.651952    6.420654   16.904404    ( 0.0000,  0.0000,  0.0000)
  35 Pd     8.407843    6.512819   17.094470    ( 0.0000,  0.0000,  0.0000)
  36 Pt     0.042848   -0.066479   19.346921    ( 0.0000,  0.0000,  0.0000)
  37 Pt     2.864250    0.052516   19.309742    ( 0.0000,  0.0000,  0.0000)
  38 Ag     5.710975    0.009632   19.485562    ( 0.0000,  0.0000,  0.0000)
  39 Pt     1.560400    2.528634   19.485452    ( 0.0000,  0.0000,  0.0000)
  40 Ru     4.283802    2.628664   19.094590    ( 0.0000,  0.0000,  0.0000)
  41 Pt     7.092960    2.500338   19.205839    ( 0.0000,  0.0000,  0.0000)
  42 Ir     3.035075    4.810493   19.133669    ( 0.0000,  0.0000,  0.0000)
  43 Pt     5.715041    4.833290   19.156992    ( 0.0000,  0.0000,  0.0000)
  44 Ag     8.573171    4.904408   19.528222    ( 0.0000,  0.0000,  0.0000)
  45 O      1.460135    0.831972   20.613692    ( 0.0000,  0.0000,  0.0000)

Unit cell:
           periodic     x           y           z      points  spacing
  1. axis:    yes    8.509606    0.000000    0.000000    40     0.1842
  2. axis:    yes    4.254803    7.369535    0.000000    40     0.1842
  3. axis:    no     0.000000    0.000000   29.270571   140     0.2091

  Lengths:   8.509606   8.509606  29.270571
  Angles:   90.000000  90.000000  60.000000

Effective grid spacing dv^(1/3) = 0.2016

     iter     time        total  log10-change:
                         energy  eigst   dens
iter:   1 14:50:25  -194.839819  -2.75
iter:   2 14:51:27  -222.348512  -2.68  -1.96
iter:   3 14:52:28  -202.613906  -2.66  -1.56
iter:   4 14:53:30  -192.580494  -3.66  -1.76
iter:   5 14:54:32  -191.575101  -4.38  -2.16
iter:   6 14:55:33  -190.883478  -4.50  -2.32
iter:   7 14:56:34  -190.800812  -4.79  -2.69
iter:   8 14:57:36  -190.750944c -5.22  -2.78
iter:   9 14:58:38  -190.752418c -5.23  -2.94
iter:  10 14:59:39  -190.733021c -5.35  -2.93
iter:  11 15:00:42  -190.729511c -5.29  -3.19
iter:  12 15:01:43  -190.731247c -5.57  -2.97
iter:  13 15:02:45  -190.719341c -6.31  -3.23
iter:  14 15:03:46  -190.720060c -6.50  -3.43
iter:  15 15:04:49  -190.723144c -6.48  -3.47
iter:  16 15:05:51  -190.721092c -6.49  -3.46
iter:  17 15:06:52  -190.717971c -6.86  -3.60
iter:  18 15:07:54  -190.721035c -7.05  -3.80
iter:  19 15:08:55  -190.717408c -6.88  -3.68
iter:  20 15:09:57  -190.717127c -7.15  -3.80
iter:  21 15:10:59  -190.720067c -7.21  -3.93
iter:  22 15:12:02  -190.718153c -7.54c -3.94
iter:  23 15:13:04  -190.717388c -7.77c -4.12c

Converged after 23 iterations.

Dipole moment: (-4.024192, 8.996506, -0.301973) |e|*Ang

Energy contributions relative to reference atoms: (reference = -12373358.334139)

Kinetic:       -223.374887
Potential:      +98.743760
External:        +0.000000
XC:             -58.150595
Entropy (-ST):   -1.856154
Local:           -7.007590
--------------------------
Free energy:   -191.645465
Extrapolated:  -190.717388

Showing only first 2 kpts
 Kpt  Band  Eigenvalues  Occupancy
  0   366      0.76027    1.08907
  0   367      0.79549    0.91339
  0   368      0.81308    0.82700
  0   369      0.84621    0.67216

  1   366      0.64743    1.57400
  1   367      0.65929    1.53290
  1   368      0.67571    1.47157
  1   369      0.73786    1.19869


Fermi level: 0.77813

No gap

Forces in eV/Ang:
  0 Pd    0.72019    0.05922    0.07646
  1 Pt   -0.61202   -0.17891    0.52620
  2 Ag   -0.09762   -0.07986   -0.57023
  3 Pd   -0.05558   -0.32226    0.19597
  4 Ag    0.00026    0.03784   -0.58204
  5 Ag    0.14579    0.17128   -0.50896
  6 Ag    0.03680   -0.00858   -0.48171
  7 Pd    0.24100    0.35827    0.04795
  8 Pd   -0.13075    0.12997    0.17528
  9 Pd    0.00823    0.08288   -0.03270
 10 Pd   -0.00899   -0.04949   -0.11264
 11 Pt   -0.05547   -0.15411    0.11828
 12 Ir    0.67580    0.15352   -0.01878
 13 Pt   -0.64773   -0.20091    0.25658
 14 Ag    0.10737   -0.02038    0.10115
 15 Pt   -0.28046    0.03536    0.13527
 16 Pd   -0.06328    0.26366    0.14605
 17 Pd    0.12485    0.00930    0.14805
 18 Ag   -0.00886    0.00361   -0.00069
 19 Ag   -0.02281   -0.02126    0.01690
 20 Pt   -0.01901   -0.03291    0.00164
 21 Ru    0.00341   -0.03971    0.00721
 22 Pd    0.00070   -0.02935    0.00650
 23 Pt    0.00426   -0.00750    0.03034
 24 Pt   -0.01162    0.00496    0.02505
 25 Pt   -0.01445    0.00899    0.00881
 26 Ag   -0.00796   -0.00364    0.10995
 27 Ag   -0.00058   -0.05741    0.11194
 28 Ag   -0.05167   -0.02040    0.16977
 29 Pt   -0.01236   -0.05835   -0.06305
 30 Ag   -0.04725    0.03166   -0.00422
 31 Pd   -0.00078    0.00204   -0.08692
 32 Ru   -0.00088    0.01707   -0.03711
 33 Pd   -0.00304   -0.02326    0.08908
 34 Pt   -0.02329   -0.03071    0.01099
 35 Pd    0.04980   -0.05772    0.08568
 36 Pt   -0.29129   -0.22895   -0.08122
 37 Pt    0.34490   -0.15722   -0.13350
 38 Ag   -0.00307   -0.01025    0.00720
 39 Pt    0.21164    0.65986   -0.01911
 40 Ru    0.23851   -0.07264    0.02774
 41 Pt   -0.08732   -0.03964    0.01074
 42 Ir   -0.09805   -0.05010    0.08221
 43 Pt    0.01585    0.06734   -0.02882
 44 Ag   -0.01171    0.05219    0.00747
 45 O    -0.26320   -0.22630    0.06047

System changes: positions 

Initializing position-dependent things.

Density initialized from wave functions
                                             
                                             
                                             
                                             
                                             
                                             
                                Ag           
                  Ir    Pt                   
           O Pt   PdRu   PPt    Pd           
                     Ag                      
       Pt    APt    Pd     Ru                
        Ag            Pt                     
               Ag    Pt     Pt     Ag        
                       Pd     Pt             
                Ru                           
           Ag    PAg    PPt    Pd            
                                             
            Ir     Pt    PAg    Pd           
       Pd    PPd    APt    Ag                
                                             
        Pd     Pt     Ag                     
                                             
                                             
                                             
                                             
                                             

Positions:
   0 Pd     0.000000    1.637674   10.000000    ( 0.0000,  0.0000,  0.0000)
   1 Pt     2.836535    1.637674   10.000000    ( 0.0000,  0.0000,  0.0000)
   2 Ag     5.673071    1.637674   10.000000    ( 0.0000,  0.0000,  0.0000)
   3 Pd     1.418268    4.094186   10.000000    ( 0.0000,  0.0000,  0.0000)
   4 Ag     4.254803    4.094186   10.000000    ( 0.0000,  0.0000,  0.0000)
   5 Ag     7.091338    4.094186   10.000000    ( 0.0000,  0.0000,  0.0000)
   6 Ag     2.836535    6.550698   10.000000    ( 0.0000,  0.0000,  0.0000)
   7 Pd     5.673071    6.550698   10.000000    ( 0.0000,  0.0000,  0.0000)
   8 Pd     8.509606    6.550698   10.000000    ( 0.0000,  0.0000,  0.0000)
   9 Pd     0.000000    0.000000   12.317643    ( 0.0000,  0.0000,  0.0000)
  10 Pd     2.836535    0.000000   12.317643    ( 0.0000,  0.0000,  0.0000)
  11 Pt     5.673071    0.000000   12.317643    ( 0.0000,  0.0000,  0.0000)
  12 Ir     1.418268    2.456512   12.317643    ( 0.0000,  0.0000,  0.0000)
  13 Pt     4.254803    2.456512   12.317643    ( 0.0000,  0.0000,  0.0000)
  14 Ag     7.091338    2.456512   12.317643    ( 0.0000,  0.0000,  0.0000)
  15 Pt     2.836535    4.913023   12.317643    ( 0.0000,  0.0000,  0.0000)
  16 Pd     5.673071    4.913023   12.317643    ( 0.0000,  0.0000,  0.0000)
  17 Pd     8.509606    4.913023   12.317643    ( 0.0000,  0.0000,  0.0000)
  18 Ag     1.382823    0.762527   14.608576    ( 0.0000,  0.0000,  0.0000)
  19 Ag     4.217288    0.782929   14.657924    ( 0.0000,  0.0000,  0.0000)
  20 Pt     7.057272    0.788433   14.659852    ( 0.0000,  0.0000,  0.0000)
  21 Ru     2.751161    3.305326   14.385558    ( 0.0000,  0.0000,  0.0000)
  22 Pd     5.601395    3.217769   14.642267    ( 0.0000,  0.0000,  0.0000)
  23 Pt     8.522564    3.257014   14.663210    ( 0.0000,  0.0000,  0.0000)
  24 Pt     4.168120    5.653730   14.616578    ( 0.0000,  0.0000,  0.0000)
  25 Pt     7.044636    5.603946   14.672287    ( 0.0000,  0.0000,  0.0000)
  26 Ag     9.871952    5.741351   14.697232    ( 0.0000,  0.0000,  0.0000)
  27 Ag     0.003399    1.603772   16.983208    ( 0.0000,  0.0000,  0.0000)
  28 Ag     2.792026    1.617937   16.885294    ( 0.0000,  0.0000,  0.0000)
  29 Pt     5.659634    1.633764   17.016288    ( 0.0000,  0.0000,  0.0000)
  30 Ag     1.335265    4.078851   17.032705    ( 0.0000,  0.0000,  0.0000)
  31 Pd     4.159093    4.028152   16.814045    ( 0.0000,  0.0000,  0.0000)
  32 Ru     6.956232    4.059331   16.868411    ( 0.0000,  0.0000,  0.0000)
  33 Pd     2.813025    6.577824   17.058427    ( 0.0000,  0.0000,  0.0000)
  34 Pt     5.651367    6.419862   16.904284    ( 0.0000,  0.0000,  0.0000)
  35 Pd     8.406247    6.513345   17.098817    ( 0.0000,  0.0000,  0.0000)
  36 Pt     0.034167   -0.073114   19.354312    ( 0.0000,  0.0000,  0.0000)
  37 Pt     2.876030    0.045636   19.314215    ( 0.0000,  0.0000,  0.0000)
  38 Ag     5.710951    0.009344   19.485251    ( 0.0000,  0.0000,  0.0000)
  39 Pt     1.564381    2.546154   19.496183    ( 0.0000,  0.0000,  0.0000)
  40 Ru     4.292828    2.630757   19.094078    ( 0.0000,  0.0000,  0.0000)
  41 Pt     7.088595    2.500666   19.204409    ( 0.0000,  0.0000,  0.0000)
  42 Ir     3.032454    4.807596   19.133396    ( 0.0000,  0.0000,  0.0000)
  43 Pt     5.714445    4.830995   19.156002    ( 0.0000,  0.0000,  0.0000)
  44 Ag     8.572981    4.905958   19.528104    ( 0.0000,  0.0000,  0.0000)
  45 O      1.453464    0.827514   20.588867    ( 0.0000,  0.0000,  0.0000)

Unit cell:
           periodic     x           y           z      points  spacing
  1. axis:    yes    8.509606    0.000000    0.000000    40     0.1842
  2. axis:    yes    4.254803    7.369535    0.000000    40     0.1842
  3. axis:    no     0.000000    0.000000   29.270571   140     0.2091

  Lengths:   8.509606   8.509606  29.270571
  Angles:   90.000000  90.000000  60.000000

Effective grid spacing dv^(1/3) = 0.2016

     iter     time        total  log10-change:
                         energy  eigst   dens
iter:   1 15:14:24  -193.132056  -3.95
iter:   2 15:15:23  -232.749959  -2.75  -2.05
iter:   3 15:16:23  -192.476725  -2.97  -1.48
iter:   4 15:17:23  -190.924283  -4.09  -2.19
iter:   5 15:18:22  -190.795444  -4.92  -2.65
iter:   6 15:19:20  -190.772751c -5.45  -2.98
iter:   7 15:20:20  -190.756864c -5.82  -3.17
iter:   8 15:21:20  -190.742393c -5.63  -3.30
iter:   9 15:22:19  -190.746389c -6.27  -3.24
iter:  10 15:23:20  -190.741228c -6.65  -3.58
iter:  11 15:24:20  -190.742156c -6.74  -3.65
iter:  12 15:25:20  -190.740777c -6.63  -3.73
iter:  13 15:26:20  -190.740530c -7.13  -3.92
iter:  14 15:27:20  -190.740763c -7.47c -4.00
iter:  15 15:28:21  -190.744664c -7.05  -4.05c
iter:  16 15:29:21  -190.740140c -7.38  -3.76
iter:  17 15:30:23  -190.741283c -7.98c -4.10c

Converged after 17 iterations.

Dipole moment: (-3.225046, 9.540160, -0.300410) |e|*Ang

Energy contributions relative to reference atoms: (reference = -12373358.334139)

Kinetic:       -221.227860
Potential:      +96.794970
External:        +0.000000
XC:             -58.367203
Entropy (-ST):   -1.850405
Local:           -7.015987
--------------------------
Free energy:   -191.666485
Extrapolated:  -190.741283

Showing only first 2 kpts
 Kpt  Band  Eigenvalues  Occupancy
  0   366      0.76426    1.09159
  0   367      0.80053    0.91077
  0   368      0.81720    0.82885
  0   369      0.85050    0.67312

  1   366      0.65189    1.57416
  1   367      0.66395    1.53236
  1   368      0.68125    1.46756
  1   369      0.74234    1.19880


Fermi level: 0.78263

No gap

Forces in eV/Ang:
  0 Pd    0.70384    0.06331    0.10160
  1 Pt   -0.59635   -0.15824    0.55713
  2 Ag   -0.09570   -0.07793   -0.55605
  3 Pd   -0.04524   -0.32583    0.22105
  4 Ag   -0.00500    0.03040   -0.56821
  5 Ag    0.14275    0.16434   -0.48955
  6 Ag    0.03562   -0.00567   -0.47061
  7 Pd    0.23614    0.34875    0.07024
  8 Pd   -0.12553    0.13258    0.19899
  9 Pd    0.00841    0.08986   -0.02695
 10 Pd   -0.00862   -0.04619   -0.10292
 11 Pt   -0.05694   -0.15750    0.13359
 12 Ir    0.67242    0.15958   -0.00595
 13 Pt   -0.65232   -0.19448    0.26153
 14 Ag    0.11258   -0.01998    0.10887
 15 Pt   -0.28427    0.02528    0.15737
 16 Pd   -0.06530    0.25706    0.15897
 17 Pd    0.12986    0.00430    0.16527
 18 Ag   -0.00444    0.00969    0.00544
 19 Ag   -0.02061   -0.02238    0.01196
 20 Pt   -0.02464   -0.02266   -0.00382
 21 Ru    0.00209   -0.02277   -0.00437
 22 Pd    0.00506   -0.02632   -0.00550
 23 Pt    0.00548   -0.00496    0.01938
 24 Pt   -0.02157   -0.01252    0.00893
 25 Pt   -0.00822    0.00299   -0.01175
 26 Ag   -0.00423   -0.00818    0.10242
 27 Ag    0.02836   -0.06879    0.15287
 28 Ag   -0.07824   -0.03022    0.21714
 29 Pt    0.00142   -0.07931   -0.12341
 30 Ag   -0.04933    0.01075   -0.03542
 31 Pd   -0.02753    0.01270   -0.08801
 32 Ru    0.01521    0.02506   -0.06080
 33 Pd   -0.01023   -0.03225    0.04264
 34 Pt   -0.02256    0.01635    0.05429
 35 Pd    0.05248   -0.06687    0.01309
 36 Pt   -0.25728   -0.20165   -0.22397
 37 Pt    0.21280   -0.03592   -0.18432
 38 Ag    0.01802   -0.00045    0.02080
 39 Pt    0.23519    0.48172   -0.08492
 40 Ru    0.09349   -0.15846    0.04468
 41 Pt    0.04217   -0.07836    0.02645
 42 Ir   -0.03298   -0.00872    0.12358
 43 Pt    0.02497    0.19870   -0.03009
 44 Ag   -0.04400    0.02252    0.01950
 45 O    -0.20961   -0.16091    0.09619

System changes: positions 

Initializing position-dependent things.

Density initialized from wave functions
                                             
                                             
                                             
                                             
                                             
                                             
                                Ag           
                  Ir    Pt                   
           O Pt   PdRu   PPt    Pd           
                     Ag                      
       Pt    APt    Pd     Ru                
        Ag            Pt                     
               Ag    Pt     Pt     Ag        
                       Pd     Pt             
                Ru                           
           Ag    PAg    PPt    Pd            
                                             
            Ir     Pt    PAg    Pd           
       Pd    PPd    APt    Ag                
                                             
        Pd     Pt     Ag                     
                                             
                                             
                                             
                                             
                                             

Positions:
   0 Pd     0.000000    1.637674   10.000000    ( 0.0000,  0.0000,  0.0000)
   1 Pt     2.836535    1.637674   10.000000    ( 0.0000,  0.0000,  0.0000)
   2 Ag     5.673071    1.637674   10.000000    ( 0.0000,  0.0000,  0.0000)
   3 Pd     1.418268    4.094186   10.000000    ( 0.0000,  0.0000,  0.0000)
   4 Ag     4.254803    4.094186   10.000000    ( 0.0000,  0.0000,  0.0000)
   5 Ag     7.091338    4.094186   10.000000    ( 0.0000,  0.0000,  0.0000)
   6 Ag     2.836535    6.550698   10.000000    ( 0.0000,  0.0000,  0.0000)
   7 Pd     5.673071    6.550698   10.000000    ( 0.0000,  0.0000,  0.0000)
   8 Pd     8.509606    6.550698   10.000000    ( 0.0000,  0.0000,  0.0000)
   9 Pd     0.000000    0.000000   12.317643    ( 0.0000,  0.0000,  0.0000)
  10 Pd     2.836535    0.000000   12.317643    ( 0.0000,  0.0000,  0.0000)
  11 Pt     5.673071    0.000000   12.317643    ( 0.0000,  0.0000,  0.0000)
  12 Ir     1.418268    2.456512   12.317643    ( 0.0000,  0.0000,  0.0000)
  13 Pt     4.254803    2.456512   12.317643    ( 0.0000,  0.0000,  0.0000)
  14 Ag     7.091338    2.456512   12.317643    ( 0.0000,  0.0000,  0.0000)
  15 Pt     2.836535    4.913023   12.317643    ( 0.0000,  0.0000,  0.0000)
  16 Pd     5.673071    4.913023   12.317643    ( 0.0000,  0.0000,  0.0000)
  17 Pd     8.509606    4.913023   12.317643    ( 0.0000,  0.0000,  0.0000)
  18 Ag     1.382172    0.762724   14.608315    ( 0.0000,  0.0000,  0.0000)
  19 Ag     4.216399    0.781624   14.658585    ( 0.0000,  0.0000,  0.0000)
  20 Pt     7.055782    0.786400   14.659504    ( 0.0000,  0.0000,  0.0000)
  21 Ru     2.751296    3.304285   14.385156    ( 0.0000,  0.0000,  0.0000)
  22 Pd     5.601420    3.216609   14.642399    ( 0.0000,  0.0000,  0.0000)
  23 Pt     8.522742    3.257227   14.663854    ( 0.0000,  0.0000,  0.0000)
  24 Pt     4.167239    5.653539   14.617141    ( 0.0000,  0.0000,  0.0000)
  25 Pt     7.044025    5.603823   14.672501    ( 0.0000,  0.0000,  0.0000)
  26 Ag     9.871438    5.740625   14.701386    ( 0.0000,  0.0000,  0.0000)
  27 Ag     0.003559    1.600841   16.987774    ( 0.0000,  0.0000,  0.0000)
  28 Ag     2.789218    1.616717   16.893580    ( 0.0000,  0.0000,  0.0000)
  29 Pt     5.658704    1.630438   17.012748    ( 0.0000,  0.0000,  0.0000)
  30 Ag     1.333167    4.078203   17.033460    ( 0.0000,  0.0000,  0.0000)
  31 Pd     4.158673    4.027856   16.810882    ( 0.0000,  0.0000,  0.0000)
  32 Ru     6.957115    4.060051   16.866206    ( 0.0000,  0.0000,  0.0000)
  33 Pd     2.815423    6.577867   17.064181    ( 0.0000,  0.0000,  0.0000)
  34 Pt     5.650137    6.419462   16.905504    ( 0.0000,  0.0000,  0.0000)
  35 Pd     8.405827    6.512220   17.103508    ( 0.0000,  0.0000,  0.0000)
  36 Pt     0.018689   -0.085035   19.356321    ( 0.0000,  0.0000,  0.0000)
  37 Pt     2.893266    0.037831   19.314527    ( 0.0000,  0.0000,  0.0000)
  38 Ag     5.711448    0.009122   19.485664    ( 0.0000,  0.0000,  0.0000)
  39 Pt     1.574402    2.575903   19.505585    ( 0.0000,  0.0000,  0.0000)
  40 Ru     4.304299    2.628901   19.094725    ( 0.0000,  0.0000,  0.0000)
  41 Pt     7.085394    2.498969   19.203622    ( 0.0000,  0.0000,  0.0000)
  42 Ir     3.029307    4.804392   19.136312    ( 0.0000,  0.0000,  0.0000)
  43 Pt     5.714389    4.833823   19.154200    ( 0.0000,  0.0000,  0.0000)
  44 Ag     8.571530    4.908055   19.528661    ( 0.0000,  0.0000,  0.0000)
  45 O      1.441522    0.819133   20.564635    ( 0.0000,  0.0000,  0.0000)

Unit cell:
           periodic     x           y           z      points  spacing
  1. axis:    yes    8.509606    0.000000    0.000000    40     0.1842
  2. axis:    yes    4.254803    7.369535    0.000000    40     0.1842
  3. axis:    no     0.000000    0.000000   29.270571   140     0.2091

  Lengths:   8.509606   8.509606  29.270571
  Angles:   90.000000  90.000000  60.000000

Effective grid spacing dv^(1/3) = 0.2016

     iter     time        total  log10-change:
                         energy  eigst   dens
iter:   1 15:31:43  -191.101715  -3.88
iter:   2 15:32:43  -196.261497  -3.70  -2.50
iter:   3 15:33:42  -191.060686  -3.84  -1.88
iter:   4 15:34:42  -190.788855  -4.88  -2.58
iter:   5 15:35:42  -190.778944c -5.80  -3.17
iter:   6 15:36:42  -190.786161c -6.14  -3.33
iter:   7 15:37:41  -190.776487c -6.30  -3.28
iter:   8 15:38:41  -190.771683c -6.10  -3.48
iter:   9 15:39:40  -190.774192c -6.89  -3.60
iter:  10 15:40:39  -190.772014c -6.97  -3.72
iter:  11 15:41:38  -190.770606c -6.86  -3.68
iter:  12 15:42:37  -190.773445c -6.90  -3.71
iter:  13 15:43:37  -190.772581c -7.48c -4.00c

Converged after 13 iterations.

Dipole moment: (-2.098679, 10.283400, -0.300024) |e|*Ang

Energy contributions relative to reference atoms: (reference = -12373358.334139)

Kinetic:       -222.137850
Potential:      +97.648271
External:        +0.000000
XC:             -58.327477
Entropy (-ST):   -1.848153
Local:           -7.031449
--------------------------
Free energy:   -191.696657
Extrapolated:  -190.772581

Showing only first 2 kpts
 Kpt  Band  Eigenvalues  Occupancy
  0   366      0.76387    1.09031
  0   367      0.79998    0.91027
  0   368      0.81648    0.82920
  0   369      0.84842    0.67952

  1   366      0.65090    1.57529
  1   367      0.66438    1.52846
  1   368      0.68182    1.46276
  1   369      0.74308    1.19211


Fermi level: 0.78198

No gap

Forces in eV/Ang:
  0 Pd    0.70431    0.06164    0.10134
  1 Pt   -0.59846   -0.16322    0.55656
  2 Ag   -0.09511   -0.07681   -0.55629
  3 Pd   -0.04605   -0.32431    0.21989
  4 Ag   -0.00239    0.03148   -0.56679
  5 Ag    0.14085    0.16406   -0.48905
  6 Ag    0.03602   -0.00611   -0.47030
  7 Pd    0.23672    0.35028    0.07279
  8 Pd   -0.12628    0.13272    0.19970
  9 Pd    0.00770    0.08599   -0.02461
 10 Pd   -0.00745   -0.04887   -0.09555
 11 Pt   -0.05949   -0.16469    0.14488
 12 Ir    0.66795    0.15924   -0.00750
 13 Pt   -0.64722   -0.19670    0.26121
 14 Ag    0.11202   -0.01910    0.11424
 15 Pt   -0.28884    0.03023    0.16854
 16 Pd   -0.06503    0.25614    0.16327
 17 Pd    0.13226    0.00727    0.17645
 18 Ag    0.00058    0.01632    0.03504
 19 Ag   -0.03875   -0.01543    0.02230
 20 Pt   -0.00605   -0.00857    0.00175
 21 Ru    0.00199   -0.01987    0.01327
 22 Pd    0.00638   -0.02323   -0.01267
 23 Pt    0.00473   -0.01889    0.02655
 24 Pt   -0.01929   -0.00974   -0.00402
 25 Pt   -0.00626    0.00962   -0.02225
 26 Ag   -0.00292   -0.00955    0.08380
 27 Ag    0.03996   -0.04759    0.14560
 28 Ag   -0.07955   -0.02626    0.18591
 29 Pt    0.01427   -0.03172   -0.13101
 30 Ag   -0.03400   -0.01428   -0.06511
 31 Pd   -0.03855   -0.01120   -0.03482
 32 Ru   -0.00250   -0.00612   -0.04848
 33 Pd   -0.03495   -0.05817   -0.03884
 34 Pt   -0.00768    0.04044    0.02444
 35 Pd    0.05314   -0.06469   -0.09010
 36 Pt   -0.06151   -0.05464   -0.26028
 37 Pt   -0.08912    0.15444   -0.12203
 38 Ag    0.02012    0.02189    0.03458
 39 Pt    0.19716    0.02643   -0.05751
 40 Ru    0.01668   -0.13043    0.01961
 41 Pt    0.09571   -0.06337    0.01437
 42 Ir    0.10687   -0.01000    0.08296
 43 Pt    0.01098    0.17326   -0.03839
 44 Ag   -0.08127    0.00018    0.02919
 45 O    -0.16413   -0.10039   -0.03945

System changes: positions 

Initializing position-dependent things.

Density initialized from wave functions
                                             
                                             
                                             
                                             
                                             
                                             
                                Ag           
                  Ir    Pt                   
           O Pt   PdRu   PPt    Pd           
                     Ag                      
       Pt    APt    Pd     Ru                
        Ag            Pt                     
               Ag    Pt     Pt     Ag        
                       Pd     Pt             
                Ru                           
           Ag    PAg    PPt    Pd            
                                             
            Ir     Pt    PAg    Pd           
       Pd    PPd    APt    Ag                
                                             
        Pd     Pt     Ag                     
                                             
                                             
                                             
                                             
                                             

Positions:
   0 Pd     0.000000    1.637674   10.000000    ( 0.0000,  0.0000,  0.0000)
   1 Pt     2.836535    1.637674   10.000000    ( 0.0000,  0.0000,  0.0000)
   2 Ag     5.673071    1.637674   10.000000    ( 0.0000,  0.0000,  0.0000)
   3 Pd     1.418268    4.094186   10.000000    ( 0.0000,  0.0000,  0.0000)
   4 Ag     4.254803    4.094186   10.000000    ( 0.0000,  0.0000,  0.0000)
   5 Ag     7.091338    4.094186   10.000000    ( 0.0000,  0.0000,  0.0000)
   6 Ag     2.836535    6.550698   10.000000    ( 0.0000,  0.0000,  0.0000)
   7 Pd     5.673071    6.550698   10.000000    ( 0.0000,  0.0000,  0.0000)
   8 Pd     8.509606    6.550698   10.000000    ( 0.0000,  0.0000,  0.0000)
   9 Pd     0.000000    0.000000   12.317643    ( 0.0000,  0.0000,  0.0000)
  10 Pd     2.836535    0.000000   12.317643    ( 0.0000,  0.0000,  0.0000)
  11 Pt     5.673071    0.000000   12.317643    ( 0.0000,  0.0000,  0.0000)
  12 Ir     1.418268    2.456512   12.317643    ( 0.0000,  0.0000,  0.0000)
  13 Pt     4.254803    2.456512   12.317643    ( 0.0000,  0.0000,  0.0000)
  14 Ag     7.091338    2.456512   12.317643    ( 0.0000,  0.0000,  0.0000)
  15 Pt     2.836535    4.913023   12.317643    ( 0.0000,  0.0000,  0.0000)
  16 Pd     5.673071    4.913023   12.317643    ( 0.0000,  0.0000,  0.0000)
  17 Pd     8.509606    4.913023   12.317643    ( 0.0000,  0.0000,  0.0000)
  18 Ag     1.382012    0.763081   14.608922    ( 0.0000,  0.0000,  0.0000)
  19 Ag     4.215328    0.780990   14.659223    ( 0.0000,  0.0000,  0.0000)
  20 Pt     7.055341    0.785693   14.659481    ( 0.0000,  0.0000,  0.0000)
  21 Ru     2.751388    3.303451   14.385394    ( 0.0000,  0.0000,  0.0000)
  22 Pd     5.601548    3.215790   14.642209    ( 0.0000,  0.0000,  0.0000)
  23 Pt     8.522864    3.256833   14.664626    ( 0.0000,  0.0000,  0.0000)
  24 Pt     4.166710    5.653391   14.617313    ( 0.0000,  0.0000,  0.0000)
  25 Pt     7.043659    5.604057   14.672185    ( 0.0000,  0.0000,  0.0000)
  26 Ag     9.871240    5.740295   14.704378    ( 0.0000,  0.0000,  0.0000)
  27 Ag     0.004259    1.599108   16.991880    ( 0.0000,  0.0000,  0.0000)
  28 Ag     2.786969    1.615913   16.899415    ( 0.0000,  0.0000,  0.0000)
  29 Pt     5.658738    1.628983   17.009365    ( 0.0000,  0.0000,  0.0000)
  30 Ag     1.331857    4.078084   17.032327    ( 0.0000,  0.0000,  0.0000)
  31 Pd     4.157969    4.027601   16.809173    ( 0.0000,  0.0000,  0.0000)
  32 Ru     6.957107    4.060133   16.864740    ( 0.0000,  0.0000,  0.0000)
  33 Pd     2.815148    6.576611   17.065019    ( 0.0000,  0.0000,  0.0000)
  34 Pt     5.649596    6.419800   16.906090    ( 0.0000,  0.0000,  0.0000)
  35 Pd     8.407116    6.510408   17.103233    ( 0.0000,  0.0000,  0.0000)
  36 Pt     0.012971   -0.089592   19.351375    ( 0.0000,  0.0000,  0.0000)
  37 Pt     2.896847    0.038246   19.311517    ( 0.0000,  0.0000,  0.0000)
  38 Ag     5.711860    0.009456   19.486543    ( 0.0000,  0.0000,  0.0000)
  39 Pt     1.581117    2.585905   19.506054    ( 0.0000,  0.0000,  0.0000)
  40 Ru     4.308321    2.625794   19.095405    ( 0.0000,  0.0000,  0.0000)
  41 Pt     7.085897    2.497277   19.203858    ( 0.0000,  0.0000,  0.0000)
  42 Ir     3.030199    4.803269   19.138899    ( 0.0000,  0.0000,  0.0000)
  43 Pt     5.714648    4.837823   19.152990    ( 0.0000,  0.0000,  0.0000)
  44 Ag     8.569692    4.908793   19.529448    ( 0.0000,  0.0000,  0.0000)
  45 O      1.434702    0.814290   20.560443    ( 0.0000,  0.0000,  0.0000)

Unit cell:
           periodic     x           y           z      points  spacing
  1. axis:    yes    8.509606    0.000000    0.000000    40     0.1842
  2. axis:    yes    4.254803    7.369535    0.000000    40     0.1842
  3. axis:    no     0.000000    0.000000   29.270571   140     0.2091

  Lengths:   8.509606   8.509606  29.270571
  Angles:   90.000000  90.000000  60.000000

Effective grid spacing dv^(1/3) = 0.2016

     iter     time        total  log10-change:
                         energy  eigst   dens
iter:   1 15:44:56  -191.535743  -4.29
iter:   2 15:45:56  -205.010896  -3.28  -2.32
iter:   3 15:46:56  -191.394987  -3.46  -1.70
iter:   4 15:47:56  -190.837511  -4.43  -2.40
iter:   5 15:48:56  -190.788437  -5.42  -2.86
iter:   6 15:49:56  -190.787934c -6.08  -3.24
iter:   7 15:50:57  -190.785775c -6.40  -3.56
iter:   8 15:51:58  -190.782764c -6.50  -3.71
iter:   9 15:52:59  -190.784341c -6.71  -3.53
iter:  10 15:54:00  -190.783412c -7.05  -3.99
iter:  11 15:55:01  -190.783201c -7.41c -4.06c

Converged after 11 iterations.

Dipole moment: (-2.014385, 10.361596, -0.301340) |e|*Ang

Energy contributions relative to reference atoms: (reference = -12373358.334139)

Kinetic:       -221.873623
Potential:      +97.372919
External:        +0.000000
XC:             -58.312229
Entropy (-ST):   -1.849515
Local:           -7.045511
--------------------------
Free energy:   -191.707959
Extrapolated:  -190.783201

Showing only first 2 kpts
 Kpt  Band  Eigenvalues  Occupancy
  0   366      0.76247    1.08874
  0   367      0.79802    0.91146
  0   368      0.81496    0.82827
  0   369      0.84639    0.68091

  1   366      0.64945    1.57442
  1   367      0.66310    1.52690
  1   368      0.67992    1.46347
  1   369      0.74190    1.18954


Fermi level: 0.78027

No gap

Forces in eV/Ang:
  0 Pd    0.71287    0.06071    0.09978
  1 Pt   -0.60736   -0.17029    0.55173
  2 Ag   -0.09651   -0.07718   -0.55350
  3 Pd   -0.05025   -0.32544    0.21430
  4 Ag   -0.00170    0.03305   -0.56525
  5 Ag    0.14267    0.16637   -0.48726
  6 Ag    0.03721   -0.00707   -0.46756
  7 Pd    0.23940    0.35620    0.07176
  8 Pd   -0.13147    0.13113    0.19959
  9 Pd    0.01133    0.08614   -0.03157
 10 Pd   -0.01092   -0.04740   -0.10775
 11 Pt   -0.06067   -0.16192    0.14188
 12 Ir    0.66837    0.15449   -0.01741
 13 Pt   -0.64741   -0.20251    0.25627
 14 Ag    0.11267   -0.02042    0.10871
 15 Pt   -0.29030    0.02939    0.15964
 16 Pd   -0.06274    0.25972    0.15402
 17 Pd    0.13097    0.00831    0.16661
 18 Ag   -0.00230    0.01155    0.03078
 19 Ag   -0.03865   -0.00989    0.02665
 20 Pt   -0.00097   -0.00991    0.00647
 21 Ru    0.00472   -0.02015    0.00283
 22 Pd    0.00584   -0.01922   -0.01924
 23 Pt   -0.00331   -0.02057    0.02013
 24 Pt   -0.01048    0.00078   -0.00571
 25 Pt   -0.00830    0.00771   -0.01847
 26 Ag   -0.00395   -0.00281    0.06148
 27 Ag    0.01061   -0.03385    0.09329
 28 Ag   -0.03269   -0.02147    0.13625
 29 Pt    0.00336   -0.02976   -0.07514
 30 Ag   -0.02061    0.00248   -0.02829
 31 Pd   -0.02472   -0.01742    0.00107
 32 Ru   -0.01414    0.00083   -0.02571
 33 Pd   -0.04891   -0.05685   -0.02535
 34 Pt   -0.00002    0.00343   -0.00404
 35 Pd    0.04919   -0.05256   -0.04710
 36 Pt   -0.01240   -0.05224   -0.16295
 37 Pt   -0.10381    0.09666   -0.07861
 38 Ag   -0.00273   -0.00331    0.02103
 39 Pt    0.16630    0.01750   -0.01167
 40 Ru    0.04953   -0.07408    0.00046
 41 Pt    0.02258   -0.02889    0.00235
 42 Ir    0.06412   -0.02166    0.06598
 43 Pt    0.01319    0.09970   -0.03553
 44 Ag   -0.03297    0.01737    0.02025
 45 O    -0.18370   -0.15296   -0.04306

System changes: positions 

Initializing position-dependent things.

Density initialized from wave functions
                                             
                                             
                                             
                                             
                                             
                                             
                                Ag           
                  Ir    Pt                   
           O Pt    PRu   PPt    Pd           
                     Ag                      
       Pt    APt    Pd     Ru                
        Ag            Pt                     
               Ag    Pt     Pt     Ag        
                       Pd     Pt             
                Ru                           
           Ag    PAg    PPt    Pd            
                                             
            Ir     Pt    PAg    Pd           
       Pd    PPd    APt    Ag                
                                             
        Pd     Pt     Ag                     
                                             
                                             
                                             
                                             
                                             

Positions:
   0 Pd     0.000000    1.637674   10.000000    ( 0.0000,  0.0000,  0.0000)
   1 Pt     2.836535    1.637674   10.000000    ( 0.0000,  0.0000,  0.0000)
   2 Ag     5.673071    1.637674   10.000000    ( 0.0000,  0.0000,  0.0000)
   3 Pd     1.418268    4.094186   10.000000    ( 0.0000,  0.0000,  0.0000)
   4 Ag     4.254803    4.094186   10.000000    ( 0.0000,  0.0000,  0.0000)
   5 Ag     7.091338    4.094186   10.000000    ( 0.0000,  0.0000,  0.0000)
   6 Ag     2.836535    6.550698   10.000000    ( 0.0000,  0.0000,  0.0000)
   7 Pd     5.673071    6.550698   10.000000    ( 0.0000,  0.0000,  0.0000)
   8 Pd     8.509606    6.550698   10.000000    ( 0.0000,  0.0000,  0.0000)
   9 Pd     0.000000    0.000000   12.317643    ( 0.0000,  0.0000,  0.0000)
  10 Pd     2.836535    0.000000   12.317643    ( 0.0000,  0.0000,  0.0000)
  11 Pt     5.673071    0.000000   12.317643    ( 0.0000,  0.0000,  0.0000)
  12 Ir     1.418268    2.456512   12.317643    ( 0.0000,  0.0000,  0.0000)
  13 Pt     4.254803    2.456512   12.317643    ( 0.0000,  0.0000,  0.0000)
  14 Ag     7.091338    2.456512   12.317643    ( 0.0000,  0.0000,  0.0000)
  15 Pt     2.836535    4.913023   12.317643    ( 0.0000,  0.0000,  0.0000)
  16 Pd     5.673071    4.913023   12.317643    ( 0.0000,  0.0000,  0.0000)
  17 Pd     8.509606    4.913023   12.317643    ( 0.0000,  0.0000,  0.0000)
  18 Ag     1.380968    0.764530   14.611549    ( 0.0000,  0.0000,  0.0000)
  19 Ag     4.210241    0.778120   14.662575    ( 0.0000,  0.0000,  0.0000)
  20 Pt     7.053265    0.781947   14.659542    ( 0.0000,  0.0000,  0.0000)
  21 Ru     2.751975    3.299633   14.385760    ( 0.0000,  0.0000,  0.0000)
  22 Pd     5.602109    3.212111   14.640939    ( 0.0000,  0.0000,  0.0000)
  23 Pt     8.523011    3.255037   14.667847    ( 0.0000,  0.0000,  0.0000)
  24 Pt     4.164500    5.653186   14.617923    ( 0.0000,  0.0000,  0.0000)
  25 Pt     7.041844    5.604901   14.670899    ( 0.0000,  0.0000,  0.0000)
  26 Ag     9.870157    5.738915   14.717231    ( 0.0000,  0.0000,  0.0000)
  27 Ag     0.005977    1.591479   17.008440    ( 0.0000,  0.0000,  0.0000)
  28 Ag     2.778720    1.612219   16.924852    ( 0.0000,  0.0000,  0.0000)
  29 Pt     5.658067    1.621905   16.996224    ( 0.0000,  0.0000,  0.0000)
  30 Ag     1.326387    4.077698   17.029491    ( 0.0000,  0.0000,  0.0000)
  31 Pd     4.155204    4.025762   16.803331    ( 0.0000,  0.0000,  0.0000)
  32 Ru     6.956780    4.060859   16.858859    ( 0.0000,  0.0000,  0.0000)
  33 Pd     2.813951    6.571064   17.070572    ( 0.0000,  0.0000,  0.0000)
  34 Pt     5.647452    6.419680   16.907465    ( 0.0000,  0.0000,  0.0000)
  35 Pd     8.412042    6.503029   17.104813    ( 0.0000,  0.0000,  0.0000)
  36 Pt    -0.012350   -0.111849   19.335822    ( 0.0000,  0.0000,  0.0000)
  37 Pt     2.913897    0.036541   19.302135    ( 0.0000,  0.0000,  0.0000)
  38 Ag     5.712686    0.009636   19.489786    ( 0.0000,  0.0000,  0.0000)
  39 Pt     1.611790    2.633458   19.515100    ( 0.0000,  0.0000,  0.0000)
  40 Ru     4.330251    2.614957   19.097158    ( 0.0000,  0.0000,  0.0000)
  41 Pt     7.083999    2.491338   19.203655    ( 0.0000,  0.0000,  0.0000)
  42 Ir     3.032305    4.796684   19.149766    ( 0.0000,  0.0000,  0.0000)
  43 Pt     5.715727    4.852222   19.147114    ( 0.0000,  0.0000,  0.0000)
  44 Ag     8.563382    4.913321   19.532594    ( 0.0000,  0.0000,  0.0000)
  45 O      1.400406    0.788388   20.529062    ( 0.0000,  0.0000,  0.0000)

Unit cell:
           periodic     x           y           z      points  spacing
  1. axis:    yes    8.509606    0.000000    0.000000    40     0.1842
  2. axis:    yes    4.254803    7.369535    0.000000    40     0.1842
  3. axis:    no     0.000000    0.000000   29.270571   140     0.2091

  Lengths:   8.509606   8.509606  29.270571
  Angles:   90.000000  90.000000  60.000000

Effective grid spacing dv^(1/3) = 0.2016

     iter     time        total  log10-change:
                         energy  eigst   dens
iter:   1 15:56:23  -195.239814  -3.26
iter:   2 15:57:26  -254.629861  -2.49  -1.93
iter:   3 15:58:35  -194.198115  -2.77  -1.40
iter:   4 15:59:46  -191.205625  -3.77  -2.04
iter:   5 16:00:58  -190.843594  -4.51  -2.45
iter:   6 16:02:10  -190.820503  -5.24  -2.92
iter:   7 16:03:21  -190.807911c -5.51  -3.05
iter:   8 16:04:32  -190.803861c -5.48  -3.13
iter:   9 16:05:43  -190.814960c -5.74  -3.01
iter:  10 16:06:53  -190.792410c -5.70  -3.12
iter:  11 16:08:05  -190.793006c -6.09  -3.46
iter:  12 16:09:17  -190.792607c -6.31  -3.47
iter:  13 16:10:29  -190.792873c -6.47  -3.57
iter:  14 16:11:41  -190.791620c -6.95  -3.73
iter:  15 16:12:52  -190.792859c -6.36  -3.74
iter:  16 16:14:03  -190.790983c -7.32  -4.01c
iter:  17 16:15:14  -190.792777c -7.63c -3.89
iter:  18 16:16:25  -190.790960c -7.15  -4.09c
iter:  19 16:17:36  -190.791830c -7.68c -4.03c

Converged after 19 iterations.

Dipole moment: (-1.516695, 10.932310, -0.311180) |e|*Ang

Energy contributions relative to reference atoms: (reference = -12373358.334139)

Kinetic:       -222.508655
Potential:      +97.932767
External:        +0.000000
XC:             -58.265153
Entropy (-ST):   -1.845768
Local:           -7.027906
--------------------------
Free energy:   -191.714714
Extrapolated:  -190.791830

Showing only first 2 kpts
 Kpt  Band  Eigenvalues  Occupancy
  0   366      0.75731    1.08265
  0   367      0.79122    0.91349
  0   368      0.80835    0.82933
  0   369      0.83877    0.68646

  1   366      0.64243    1.57651
  1   367      0.66176    1.50841
  1   368      0.67447    1.45976
  1   369      0.73698    1.18244


Fermi level: 0.77388

No gap

Forces in eV/Ang:
  0 Pd    0.71515    0.06075    0.08950
  1 Pt   -0.60928   -0.17127    0.54117
  2 Ag   -0.09662   -0.08081   -0.56312
  3 Pd   -0.05048   -0.32521    0.20966
  4 Ag   -0.00343    0.03454   -0.57285
  5 Ag    0.14541    0.16919   -0.49787
  6 Ag    0.03603   -0.00700   -0.47428
  7 Pd    0.24126    0.35697    0.05978
  8 Pd   -0.12834    0.13189    0.19040
  9 Pd    0.01397    0.08322   -0.02522
 10 Pd   -0.01464   -0.04367   -0.10359
 11 Pt   -0.06494   -0.17626    0.16444
 12 Ir    0.67052    0.15282   -0.01196
 13 Pt   -0.65098   -0.20798    0.25909
 14 Ag    0.11678   -0.02184    0.11702
 15 Pt   -0.30301    0.02333    0.19006
 16 Pd   -0.06867    0.25927    0.16077
 17 Pd    0.14369    0.01115    0.18668
 18 Ag   -0.00895    0.01367    0.05985
 19 Ag   -0.04949    0.00292    0.03607
 20 Pt    0.01862   -0.00223    0.02262
 21 Ru    0.00017    0.01067    0.00323
 22 Pd   -0.00177   -0.00099   -0.02917
 23 Pt   -0.01999   -0.03270    0.02301
 24 Pt   -0.00363   -0.00433   -0.01607
 25 Pt   -0.01165   -0.00801   -0.01294
 26 Ag   -0.00142   -0.00651   -0.02040
 27 Ag   -0.01213    0.01492    0.01643
 28 Ag    0.02736   -0.00562    0.01583
 29 Pt    0.01532   -0.00210   -0.00396
 30 Ag    0.01523   -0.00571   -0.00438
 31 Pd   -0.01745   -0.04824    0.06437
 32 Ru   -0.02374   -0.01911    0.00120
 33 Pd   -0.11566   -0.09401   -0.08027
 34 Pt    0.02464   -0.01171   -0.08504
 35 Pd    0.05970   -0.03504   -0.08211
 36 Pt    0.11716    0.08477   -0.05259
 37 Pt   -0.35672    0.20935    0.13389
 38 Ag   -0.03640   -0.02493    0.04687
 39 Pt    0.02490   -0.56151    0.19514
 40 Ru    0.02366    0.00126   -0.02087
 41 Pt    0.01600    0.02100    0.00507
 42 Ir    0.16627    0.08015   -0.00063
 43 Pt    0.04561   -0.01576    0.00098
 44 Ag   -0.02730    0.01582    0.04878
 45 O     0.01641    0.16671   -0.23961

System changes: positions 

Initializing position-dependent things.

Density initialized from wave functions
                                             
                                             
                                             
                                             
                                             
                                             
                               Ag            
                  Ir    Pt                   
           O Pt   PdRu   PPt    Pd           
                     Ag                      
       Pt    APt    Pd     Ru                
        Ag            Pt                     
               Ag    Pt     Pt     Ag        
                       Pd     Pt             
                Ru                           
           Ag    PAg    PPt    Pd            
                                             
            Ir     Pt    PAg    Pd           
       Pd    PPd    APt    Ag                
                                             
        Pd     Pt     Ag                     
                                             
                                             
                                             
                                             
                                             

Positions:
   0 Pd     0.000000    1.637674   10.000000    ( 0.0000,  0.0000,  0.0000)
   1 Pt     2.836535    1.637674   10.000000    ( 0.0000,  0.0000,  0.0000)
   2 Ag     5.673071    1.637674   10.000000    ( 0.0000,  0.0000,  0.0000)
   3 Pd     1.418268    4.094186   10.000000    ( 0.0000,  0.0000,  0.0000)
   4 Ag     4.254803    4.094186   10.000000    ( 0.0000,  0.0000,  0.0000)
   5 Ag     7.091338    4.094186   10.000000    ( 0.0000,  0.0000,  0.0000)
   6 Ag     2.836535    6.550698   10.000000    ( 0.0000,  0.0000,  0.0000)
   7 Pd     5.673071    6.550698   10.000000    ( 0.0000,  0.0000,  0.0000)
   8 Pd     8.509606    6.550698   10.000000    ( 0.0000,  0.0000,  0.0000)
   9 Pd     0.000000    0.000000   12.317643    ( 0.0000,  0.0000,  0.0000)
  10 Pd     2.836535    0.000000   12.317643    ( 0.0000,  0.0000,  0.0000)
  11 Pt     5.673071    0.000000   12.317643    ( 0.0000,  0.0000,  0.0000)
  12 Ir     1.418268    2.456512   12.317643    ( 0.0000,  0.0000,  0.0000)
  13 Pt     4.254803    2.456512   12.317643    ( 0.0000,  0.0000,  0.0000)
  14 Ag     7.091338    2.456512   12.317643    ( 0.0000,  0.0000,  0.0000)
  15 Pt     2.836535    4.913023   12.317643    ( 0.0000,  0.0000,  0.0000)
  16 Pd     5.673071    4.913023   12.317643    ( 0.0000,  0.0000,  0.0000)
  17 Pd     8.509606    4.913023   12.317643    ( 0.0000,  0.0000,  0.0000)
  18 Ag     1.381360    0.764135   14.611235    ( 0.0000,  0.0000,  0.0000)
  19 Ag     4.211623    0.779323   14.661696    ( 0.0000,  0.0000,  0.0000)
  20 Pt     7.054369    0.783527   14.659793    ( 0.0000,  0.0000,  0.0000)
  21 Ru     2.751780    3.301098   14.385694    ( 0.0000,  0.0000,  0.0000)
  22 Pd     5.601928    3.213482   14.641031    ( 0.0000,  0.0000,  0.0000)
  23 Pt     8.522746    3.255279   14.666879    ( 0.0000,  0.0000,  0.0000)
  24 Pt     4.165356    5.653280   14.617489    ( 0.0000,  0.0000,  0.0000)
  25 Pt     7.042445    5.604603   14.671132    ( 0.0000,  0.0000,  0.0000)
  26 Ag     9.870594    5.739490   14.712220    ( 0.0000,  0.0000,  0.0000)
  27 Ag     0.005243    1.594562   17.002451    ( 0.0000,  0.0000,  0.0000)
  28 Ag     2.782212    1.613562   16.915382    ( 0.0000,  0.0000,  0.0000)
  29 Pt     5.658565    1.624680   17.001095    ( 0.0000,  0.0000,  0.0000)
  30 Ag     1.328656    4.078053   17.030254    ( 0.0000,  0.0000,  0.0000)
  31 Pd     4.156020    4.026054   16.806352    ( 0.0000,  0.0000,  0.0000)
  32 Ru     6.956481    4.060431   16.861184    ( 0.0000,  0.0000,  0.0000)
  33 Pd     2.812756    6.571992   17.067010    ( 0.0000,  0.0000,  0.0000)
  34 Pt     5.648590    6.419595   16.906125    ( 0.0000,  0.0000,  0.0000)
  35 Pd     8.411186    6.505218   17.102807    ( 0.0000,  0.0000,  0.0000)
  36 Pt    -0.000226   -0.101905   19.339624    ( 0.0000,  0.0000,  0.0000)
  37 Pt     2.902164    0.040174   19.305661    ( 0.0000,  0.0000,  0.0000)
  38 Ag     5.711965    0.009303   19.488998    ( 0.0000,  0.0000,  0.0000)
  39 Pt     1.600469    2.608400   19.511397    ( 0.0000,  0.0000,  0.0000)
  40 Ru     4.321163    2.618621   19.096321    ( 0.0000,  0.0000,  0.0000)
  41 Pt     7.085260    2.493717   19.203961    ( 0.0000,  0.0000,  0.0000)
  42 Ir     3.033336    4.800053   19.145930    ( 0.0000,  0.0000,  0.0000)
  43 Pt     5.715839    4.847134   19.149325    ( 0.0000,  0.0000,  0.0000)
  44 Ag     8.565639    4.911662   19.531839    ( 0.0000,  0.0000,  0.0000)
  45 O      1.413454    0.799030   20.543292    ( 0.0000,  0.0000,  0.0000)

Unit cell:
           periodic     x           y           z      points  spacing
  1. axis:    yes    8.509606    0.000000    0.000000    40     0.1842
  2. axis:    yes    4.254803    7.369535    0.000000    40     0.1842
  3. axis:    no     0.000000    0.000000   29.270571   140     0.2091

  Lengths:   8.509606   8.509606  29.270571
  Angles:   90.000000  90.000000  60.000000

Effective grid spacing dv^(1/3) = 0.2016

     iter     time        total  log10-change:
                         energy  eigst   dens
iter:   1 16:19:08  -190.952405  -4.00
iter:   2 16:20:19  -193.307994  -4.07  -2.70
iter:   3 16:21:30  -190.926243  -4.16  -2.02
iter:   4 16:22:41  -190.811008  -5.34  -2.75
iter:   5 16:23:48  -190.805403c -6.21  -3.33
iter:   6 16:24:52  -190.806724c -6.21  -3.48
iter:   7 16:25:57  -190.804802c -6.60  -3.49
iter:   8 16:27:07  -190.800389c -6.49  -3.61
iter:   9 16:28:16  -190.802882c -6.95  -3.74
iter:  10 16:29:26  -190.801141c -6.78  -3.84
iter:  11 16:30:36  -190.801418c -7.39  -3.96
iter:  12 16:31:46  -190.801766c -7.35  -4.09c
iter:  13 16:32:55  -190.801368c -7.82c -4.19c

Converged after 13 iterations.

Dipole moment: (-2.128777, 10.523958, -0.305952) |e|*Ang

Energy contributions relative to reference atoms: (reference = -12373358.334139)

Kinetic:       -222.700940
Potential:      +98.092305
External:        +0.000000
XC:             -58.262174
Entropy (-ST):   -1.846638
Local:           -7.007240
--------------------------
Free energy:   -191.724687
Extrapolated:  -190.801368

Showing only first 2 kpts
 Kpt  Band  Eigenvalues  Occupancy
  0   366      0.76069    1.08549
  0   367      0.79455    0.91658
  0   368      0.81258    0.82797
  0   369      0.84381    0.68158

  1   366      0.64745    1.57292
  1   367      0.66303    1.51830
  1   368      0.67740    1.46380
  1   369      0.74000    1.18693


Fermi level: 0.77783

No gap

Forces in eV/Ang:
  0 Pd    0.71042    0.06033    0.09752
  1 Pt   -0.60320   -0.16726    0.54880
  2 Ag   -0.09681   -0.07775   -0.55828
  3 Pd   -0.04749   -0.32525    0.21512
  4 Ag   -0.00227    0.03301   -0.56924
  5 Ag    0.14197    0.16614   -0.49329
  6 Ag    0.03675   -0.00710   -0.47116
  7 Pd    0.23898    0.35393    0.06786
  8 Pd   -0.12716    0.13363    0.19617
  9 Pd    0.00928    0.08520   -0.02343
 10 Pd   -0.01341   -0.04391   -0.10059
 11 Pt   -0.06123   -0.16764    0.15340
 12 Ir    0.67308    0.15312   -0.00885
 13 Pt   -0.65206   -0.20494    0.26093
 14 Ag    0.11439   -0.02241    0.11351
 15 Pt   -0.29604    0.02277    0.17858
 16 Pd   -0.06819    0.25819    0.15943
 17 Pd    0.13824    0.00899    0.17730
 18 Ag   -0.00779    0.01009    0.04305
 19 Ag   -0.03697   -0.00285    0.03205
 20 Pt   -0.00282   -0.01292    0.02000
 21 Ru    0.00076   -0.00200    0.00373
 22 Pd   -0.00102   -0.01448   -0.02249
 23 Pt   -0.01314   -0.01969    0.02604
 24 Pt   -0.00908   -0.00528   -0.00470
 25 Pt   -0.00943   -0.00732   -0.00833
 26 Ag   -0.00320   -0.00399    0.02044
 27 Ag   -0.01200   -0.01456    0.04306
 28 Ag    0.01258   -0.01420    0.06172
 29 Pt    0.00739   -0.04293   -0.03359
 30 Ag   -0.00030    0.01293   -0.00809
 31 Pd   -0.01885   -0.02829    0.00786
 32 Ru   -0.00889    0.00302   -0.02420
 33 Pd   -0.07564   -0.07050   -0.01563
 34 Pt    0.00317   -0.01669   -0.04139
 35 Pd    0.06431   -0.04749   -0.02390
 36 Pt   -0.01183   -0.04185   -0.07921
 37 Pt   -0.13462    0.07017    0.00327
 38 Ag   -0.03072   -0.02678    0.03755
 39 Pt    0.13474   -0.08651    0.07015
 40 Ru    0.06726   -0.03131   -0.01025
 41 Pt   -0.02131   -0.02122   -0.00184
 42 Ir    0.04149    0.00114    0.03886
 43 Pt    0.03498    0.05842   -0.01707
 44 Ag    0.01055    0.02855    0.03868
 45 O    -0.08650    0.04788   -0.20078

System changes: positions 

Initializing position-dependent things.

Density initialized from wave functions
                                             
                                             
                                             
                                             
                                             
                                             
                                Ag           
                  Ir    Pt                   
           O Pt   PdRu   PPt    Pd           
                     Ag                      
       Pt    APt    Pd     Ru                
        Ag            Pt                     
               Ag    Pt     Pt     Ag        
                       Pd     Pt             
                Ru                           
           Ag    PAg    PPt    Pd            
                                             
            Ir     Pt    PAg    Pd           
       Pd    PPd    APt    Ag                
                                             
        Pd     Pt     Ag                     
                                             
                                             
                                             
                                             
                                             

Positions:
   0 Pd     0.000000    1.637674   10.000000    ( 0.0000,  0.0000,  0.0000)
   1 Pt     2.836535    1.637674   10.000000    ( 0.0000,  0.0000,  0.0000)
   2 Ag     5.673071    1.637674   10.000000    ( 0.0000,  0.0000,  0.0000)
   3 Pd     1.418268    4.094186   10.000000    ( 0.0000,  0.0000,  0.0000)
   4 Ag     4.254803    4.094186   10.000000    ( 0.0000,  0.0000,  0.0000)
   5 Ag     7.091338    4.094186   10.000000    ( 0.0000,  0.0000,  0.0000)
   6 Ag     2.836535    6.550698   10.000000    ( 0.0000,  0.0000,  0.0000)
   7 Pd     5.673071    6.550698   10.000000    ( 0.0000,  0.0000,  0.0000)
   8 Pd     8.509606    6.550698   10.000000    ( 0.0000,  0.0000,  0.0000)
   9 Pd     0.000000    0.000000   12.317643    ( 0.0000,  0.0000,  0.0000)
  10 Pd     2.836535    0.000000   12.317643    ( 0.0000,  0.0000,  0.0000)
  11 Pt     5.673071    0.000000   12.317643    ( 0.0000,  0.0000,  0.0000)
  12 Ir     1.418268    2.456512   12.317643    ( 0.0000,  0.0000,  0.0000)
  13 Pt     4.254803    2.456512   12.317643    ( 0.0000,  0.0000,  0.0000)
[...]
  13 Pt     4.254803    2.456512   12.317643    ( 0.0000,  0.0000,  0.0000)
  14 Ag     7.091338    2.456512   12.317643    ( 0.0000,  0.0000,  0.0000)
  15 Pt     2.836535    4.913023   12.317643    ( 0.0000,  0.0000,  0.0000)
  16 Pd     5.673071    4.913023   12.317643    ( 0.0000,  0.0000,  0.0000)
  17 Pd     8.509606    4.913023   12.317643    ( 0.0000,  0.0000,  0.0000)
  18 Ag     1.379371    0.767327   14.620614    ( 0.0000,  0.0000,  0.0000)
  19 Ag     4.201385    0.777831   14.668422    ( 0.0000,  0.0000,  0.0000)
  20 Pt     7.054358    0.780531   14.661944    ( 0.0000,  0.0000,  0.0000)
  21 Ru     2.751639    3.299163   14.386504    ( 0.0000,  0.0000,  0.0000)
  22 Pd     5.601216    3.210094   14.636836    ( 0.0000,  0.0000,  0.0000)
  23 Pt     8.520261    3.249359   14.672064    ( 0.0000,  0.0000,  0.0000)
  24 Pt     4.163570    5.651472   14.616107    ( 0.0000,  0.0000,  0.0000)
  25 Pt     7.040051    5.603682   14.666567    ( 0.0000,  0.0000,  0.0000)
  26 Ag     9.868626    5.737331   14.716531    ( 0.0000,  0.0000,  0.0000)
  27 Ag     0.004196    1.589829   17.016783    ( 0.0000,  0.0000,  0.0000)
  28 Ag     2.780580    1.609548   16.935806    ( 0.0000,  0.0000,  0.0000)
  29 Pt     5.661096    1.618209   16.990933    ( 0.0000,  0.0000,  0.0000)
  30 Ag     1.327555    4.075213   17.031306    ( 0.0000,  0.0000,  0.0000)
  31 Pd     4.152729    4.019202   16.808178    ( 0.0000,  0.0000,  0.0000)
  32 Ru     6.952908    4.058367   16.856797    ( 0.0000,  0.0000,  0.0000)
  33 Pd     2.797615    6.555567   17.061385    ( 0.0000,  0.0000,  0.0000)
  34 Pt     5.649143    6.416419   16.896268    ( 0.0000,  0.0000,  0.0000)
  35 Pd     8.419906    6.494757   17.097972    ( 0.0000,  0.0000,  0.0000)
  36 Pt    -0.013598   -0.111581   19.306789    ( 0.0000,  0.0000,  0.0000)
  37 Pt     2.882600    0.054637   19.297176    ( 0.0000,  0.0000,  0.0000)
  38 Ag     5.704587    0.005498   19.497306    ( 0.0000,  0.0000,  0.0000)
  39 Pt     1.633786    2.600215   19.523682    ( 0.0000,  0.0000,  0.0000)
  40 Ru     4.340762    2.611243   19.096488    ( 0.0000,  0.0000,  0.0000)
  41 Pt     7.084385    2.490883   19.204146    ( 0.0000,  0.0000,  0.0000)
  42 Ir     3.050596    4.797697   19.156103    ( 0.0000,  0.0000,  0.0000)
  43 Pt     5.725498    4.857064   19.143587    ( 0.0000,  0.0000,  0.0000)
  44 Ag     8.562539    4.912975   19.540776    ( 0.0000,  0.0000,  0.0000)
  45 O      1.381265    0.798503   20.520774    ( 0.0000,  0.0000,  0.0000)

Unit cell:
           periodic     x           y           z      points  spacing
  1. axis:    yes    8.509606    0.000000    0.000000    40     0.1842
  2. axis:    yes    4.254803    7.369535    0.000000    40     0.1842
  3. axis:    no     0.000000    0.000000   29.270571   140     0.2091

  Lengths:   8.509606   8.509606  29.270571
  Angles:   90.000000  90.000000  60.000000

Effective grid spacing dv^(1/3) = 0.2016

     iter     time        total  log10-change:
                         energy  eigst   dens
iter:   1 17:14:07  -191.063147  -4.12
iter:   2 17:15:12  -195.800958  -3.76  -2.59
iter:   3 17:16:17  -190.847094  -3.97  -1.88
iter:   4 17:17:21  -190.819461  -5.47  -3.19
iter:   5 17:18:26  -190.820814c -6.17  -3.38
iter:   6 17:19:32  -190.821107c -6.51  -3.59
iter:   7 17:20:37  -190.821217c -6.88  -3.68
iter:   8 17:21:42  -190.818618c -6.80  -3.79
iter:   9 17:22:47  -190.819670c -6.96  -3.60
iter:  10 17:23:52  -190.821663c -7.27  -4.02c
iter:  11 17:24:56  -190.819685c -7.57c -3.93
iter:  12 17:26:00  -190.820076c -7.34  -4.12c
iter:  13 17:27:03  -190.820813c -7.72c -4.23c

Converged after 13 iterations.

Dipole moment: (-4.380795, 9.989241, -0.297776) |e|*Ang

Energy contributions relative to reference atoms: (reference = -12373358.334139)

Kinetic:       -220.950651
Potential:      +96.609621
External:        +0.000000
XC:             -58.520399
Entropy (-ST):   -1.841956
Local:           -7.038407
--------------------------
Free energy:   -191.741791
Extrapolated:  -190.820813

Showing only first 2 kpts
 Kpt  Band  Eigenvalues  Occupancy
  0   366      0.76585    1.08697
  0   367      0.79516    0.94074
  0   368      0.81866    0.82496
  0   369      0.85238    0.66766

  1   366      0.65641    1.56109
  1   367      0.66898    1.51651
  1   368      0.68140    1.46954
  1   369      0.74434    1.19231


Fermi level: 0.78329

No gap

Forces in eV/Ang:
  0 Pd    0.71033    0.06011    0.10332
  1 Pt   -0.60160   -0.16937    0.55387
  2 Ag   -0.09640   -0.07865   -0.55671
  3 Pd   -0.04760   -0.32584    0.22368
  4 Ag   -0.00266    0.03285   -0.56821
  5 Ag    0.14248    0.16607   -0.49125
  6 Ag    0.03641   -0.00626   -0.46773
  7 Pd    0.24012    0.35433    0.07056
  8 Pd   -0.12610    0.13654    0.20211
  9 Pd    0.02168    0.09371    0.00127
 10 Pd   -0.02349   -0.03320   -0.07545
 11 Pt   -0.07020   -0.16613    0.18930
 12 Ir    0.66662    0.14806    0.01570
 13 Pt   -0.65816   -0.22094    0.26800
 14 Ag    0.12297   -0.02835    0.12137
 15 Pt   -0.30937    0.01737    0.19255
 16 Pd   -0.07208    0.25752    0.14983
 17 Pd    0.14784   -0.00092    0.19231
 18 Ag   -0.00891    0.00645   -0.00939
 19 Ag    0.00435    0.00315   -0.00868
 20 Pt   -0.01276   -0.00960   -0.01736
 21 Ru   -0.01342    0.00127    0.00004
 22 Pd   -0.02029   -0.00488    0.00729
 23 Pt    0.00069    0.00196    0.00438
 24 Pt   -0.00266   -0.01350   -0.00014
 25 Pt    0.01128   -0.02125   -0.00361
 26 Ag   -0.02046   -0.01688   -0.06236
 27 Ag   -0.00902    0.02496   -0.04842
 28 Ag    0.02118    0.01105   -0.07764
 29 Pt    0.00304    0.01060    0.02810
 30 Ag    0.00782   -0.04475    0.07923
 31 Pd    0.01721   -0.01216   -0.00527
 32 Ru    0.02985   -0.01913   -0.00121
 33 Pd   -0.00403   -0.01818   -0.01151
 34 Pt   -0.00231   -0.02669   -0.04506
 35 Pd   -0.05736    0.00131    0.05635
 36 Pt    0.02837    0.06120    0.06815
 37 Pt   -0.00849   -0.09909    0.05690
 38 Ag   -0.04906   -0.01992    0.00614
 39 Pt   -0.02581    0.07277    0.01100
 40 Ru    0.05243    0.06005   -0.00261
 41 Pt   -0.00100    0.00953   -0.01216
 42 Ir   -0.05503   -0.03614   -0.05073
 43 Pt    0.05962   -0.03913    0.00990
 44 Ag    0.05260   -0.05916    0.00703
 45 O    -0.06941   -0.01332   -0.03548

System changes: positions 

Initializing position-dependent things.

Density initialized from wave functions
                                             
                                             
                                             
                                             
                                             
                                             
                                Ag           
                  Ir     Pt                  
           O Pt   PdRu   PPt    Pd           
                     Ag                      
       Pt    APt    Pd     Ru                
        Ag     Ag     Pt                     
                     Pt     Pt     Ag        
                       Pd     Pt             
                Ru                           
           Ag    PAg    PPt    Pd            
                                             
            Ir     Pt     Ag    Pd           
       Pd    PPd    APt    Ag                
                                             
        Pd     Pt     Ag                     
                                             
                                             
                                             
                                             
                                             

Positions:
   0 Pd     0.000000    1.637674   10.000000    ( 0.0000,  0.0000,  0.0000)
   1 Pt     2.836535    1.637674   10.000000    ( 0.0000,  0.0000,  0.0000)
   2 Ag     5.673071    1.637674   10.000000    ( 0.0000,  0.0000,  0.0000)
   3 Pd     1.418268    4.094186   10.000000    ( 0.0000,  0.0000,  0.0000)
   4 Ag     4.254803    4.094186   10.000000    ( 0.0000,  0.0000,  0.0000)
   5 Ag     7.091338    4.094186   10.000000    ( 0.0000,  0.0000,  0.0000)
   6 Ag     2.836535    6.550698   10.000000    ( 0.0000,  0.0000,  0.0000)
   7 Pd     5.673071    6.550698   10.000000    ( 0.0000,  0.0000,  0.0000)
   8 Pd     8.509606    6.550698   10.000000    ( 0.0000,  0.0000,  0.0000)
   9 Pd     0.000000    0.000000   12.317643    ( 0.0000,  0.0000,  0.0000)
  10 Pd     2.836535    0.000000   12.317643    ( 0.0000,  0.0000,  0.0000)
  11 Pt     5.673071    0.000000   12.317643    ( 0.0000,  0.0000,  0.0000)
  12 Ir     1.418268    2.456512   12.317643    ( 0.0000,  0.0000,  0.0000)
  13 Pt     4.254803    2.456512   12.317643    ( 0.0000,  0.0000,  0.0000)
  14 Ag     7.091338    2.456512   12.317643    ( 0.0000,  0.0000,  0.0000)
  15 Pt     2.836535    4.913023   12.317643    ( 0.0000,  0.0000,  0.0000)
  16 Pd     5.673071    4.913023   12.317643    ( 0.0000,  0.0000,  0.0000)
  17 Pd     8.509606    4.913023   12.317643    ( 0.0000,  0.0000,  0.0000)
  18 Ag     1.379433    0.767079   14.619594    ( 0.0000,  0.0000,  0.0000)
  19 Ag     4.202455    0.777983   14.667664    ( 0.0000,  0.0000,  0.0000)
  20 Pt     7.054167    0.780653   14.661530    ( 0.0000,  0.0000,  0.0000)
  21 Ru     2.751497    3.299470   14.386381    ( 0.0000,  0.0000,  0.0000)
  22 Pd     5.601048    3.210410   14.637350    ( 0.0000,  0.0000,  0.0000)
  23 Pt     8.520507    3.250013   14.671553    ( 0.0000,  0.0000,  0.0000)
  24 Pt     4.163688    5.651458   14.616214    ( 0.0000,  0.0000,  0.0000)
  25 Pt     7.040405    5.603483   14.666989    ( 0.0000,  0.0000,  0.0000)
  26 Ag     9.868589    5.737304   14.715274    ( 0.0000,  0.0000,  0.0000)
  27 Ag     0.004182    1.590565   17.014733    ( 0.0000,  0.0000,  0.0000)
  28 Ag     2.780975    1.610048   16.932905    ( 0.0000,  0.0000,  0.0000)
  29 Pt     5.660847    1.618926   16.992291    ( 0.0000,  0.0000,  0.0000)
  30 Ag     1.327807    4.074779   17.032214    ( 0.0000,  0.0000,  0.0000)
  31 Pd     4.153220    4.019661   16.808017    ( 0.0000,  0.0000,  0.0000)
  32 Ru     6.953662    4.058323   16.857205    ( 0.0000,  0.0000,  0.0000)
  33 Pd     2.799342    6.557125   17.062087    ( 0.0000,  0.0000,  0.0000)
  34 Pt     5.649066    6.416539   16.896749    ( 0.0000,  0.0000,  0.0000)
  35 Pd     8.418122    6.496029   17.099234    ( 0.0000,  0.0000,  0.0000)
  36 Pt    -0.012479   -0.110158   19.311531    ( 0.0000,  0.0000,  0.0000)
  37 Pt     2.884933    0.051946   19.299420    ( 0.0000,  0.0000,  0.0000)
  38 Ag     5.704810    0.005671   19.496538    ( 0.0000,  0.0000,  0.0000)
  39 Pt     1.630161    2.601745   19.523932    ( 0.0000,  0.0000,  0.0000)
  40 Ru     4.339653    2.612958   19.096343    ( 0.0000,  0.0000,  0.0000)
  41 Pt     7.084350    2.491367   19.203819    ( 0.0000,  0.0000,  0.0000)
  42 Ir     3.048434    4.797450   19.154332    ( 0.0000,  0.0000,  0.0000)
  43 Pt     5.725113    4.855308   19.144229    ( 0.0000,  0.0000,  0.0000)
  44 Ag     8.563332    4.912213   19.539980    ( 0.0000,  0.0000,  0.0000)
  45 O      1.383924    0.799177   20.519345    ( 0.0000,  0.0000,  0.0000)

Unit cell:
           periodic     x           y           z      points  spacing
  1. axis:    yes    8.509606    0.000000    0.000000    40     0.1842
  2. axis:    yes    4.254803    7.369535    0.000000    40     0.1842
  3. axis:    no     0.000000    0.000000   29.270571   140     0.2091

  Lengths:   8.509606   8.509606  29.270571
  Angles:   90.000000  90.000000  60.000000

Effective grid spacing dv^(1/3) = 0.2016

     iter     time        total  log10-change:
                         energy  eigst   dens
iter:   1 17:28:27  -191.003098  -4.73
iter:   2 17:29:31  -195.552357  -3.67  -2.55
iter:   3 17:30:34  -191.031269  -4.08  -1.93
iter:   4 17:31:38  -190.844501  -5.02  -2.67
iter:   5 17:32:42  -190.824023c -6.00  -3.26
iter:   6 17:33:46  -190.824156c -6.55  -3.86
iter:   7 17:34:50  -190.821738c -6.82  -3.89
iter:   8 17:35:54  -190.821266c -7.07  -4.12c
iter:   9 17:36:58  -190.820768c -7.39  -4.30c
iter:  10 17:38:01  -190.820770c -7.67c -4.27c

Converged after 10 iterations.

Dipole moment: (-4.086645, 10.088023, -0.296473) |e|*Ang

Energy contributions relative to reference atoms: (reference = -12373358.334139)

Kinetic:       -220.799096
Potential:      +96.453610
External:        +0.000000
XC:             -58.533473
Entropy (-ST):   -1.843209
Local:           -7.020207
--------------------------
Free energy:   -191.742374
Extrapolated:  -190.820770

Showing only first 2 kpts
 Kpt  Band  Eigenvalues  Occupancy
  0   366      0.76640    1.08577
  0   367      0.79597    0.93819
  0   368      0.81907    0.82445
  0   369      0.85236    0.66912

  1   366      0.65616    1.56295
  1   367      0.66900    1.51755
  1   368      0.68167    1.46963
  1   369      0.74493    1.19095


Fermi level: 0.78359

No gap

Forces in eV/Ang:
  0 Pd    0.71661    0.05899    0.10394
  1 Pt   -0.60794   -0.17268    0.55459
  2 Ag   -0.09731   -0.08010   -0.55261
  3 Pd   -0.04857   -0.32786    0.22274
  4 Ag   -0.00459    0.03310   -0.56305
  5 Ag    0.14512    0.16762   -0.48640
  6 Ag    0.03634   -0.00689   -0.46514
  7 Pd    0.24249    0.36049    0.07429
  8 Pd   -0.12929    0.13494    0.20361
  9 Pd    0.02030    0.09319   -0.01027
 10 Pd   -0.02239   -0.03686   -0.08832
 11 Pt   -0.07117   -0.17033    0.17921
 12 Ir    0.66700    0.14821   -0.00301
 13 Pt   -0.65924   -0.21747    0.26002
 14 Ag    0.12262   -0.02680    0.11723
 15 Pt   -0.30830    0.01860    0.18784
 16 Pd   -0.06989    0.25848    0.14935
 17 Pd    0.14550    0.00304    0.18553
 18 Ag   -0.00834    0.00576    0.00677
 19 Ag   -0.00294   -0.00355    0.00133
 20 Pt   -0.01272   -0.01065   -0.00230
 21 Ru   -0.01162    0.00331    0.00298
 22 Pd   -0.01383   -0.00758   -0.00445
 23 Pt   -0.00656   -0.00682    0.01196
 24 Pt   -0.00742   -0.01515   -0.00420
 25 Pt    0.00562   -0.01683   -0.01434
 26 Ag   -0.01612   -0.01267   -0.03828
 27 Ag   -0.00231   -0.00503   -0.02379
 28 Ag    0.01222   -0.00474   -0.03290
 29 Pt    0.01006   -0.01219    0.00529
 30 Ag    0.01272   -0.04199    0.03522
 31 Pd    0.01087   -0.01728   -0.00132
 32 Ru    0.00980   -0.01781   -0.01651
 33 Pd   -0.02283   -0.02866   -0.03226
 34 Pt   -0.01127   -0.01089   -0.03291
 35 Pd   -0.03246    0.00194    0.00805
 36 Pt   -0.02065    0.01907   -0.03508
 37 Pt   -0.02947   -0.02635   -0.00085
 38 Ag   -0.04130   -0.00041    0.00810
 39 Pt    0.04925   -0.00077    0.01347
 40 Ru    0.04254    0.02429    0.00527
 41 Pt   -0.00982   -0.01769   -0.00749
 42 Ir    0.01325   -0.02738   -0.02839
 43 Pt    0.03954   -0.00880   -0.00706
 44 Ag    0.02378   -0.04194    0.01853
 45 O    -0.08626   -0.00852   -0.01006

Timing:                                      incl.     excl.
-------------------------------------------------------------------
Density initialized from wave functions:    33.513    33.512   0.3% |
 Symmetrize density:                         0.001     0.001   0.0% |
Forces:                                    161.021   161.021   1.2% |
Hamiltonian:                                17.235     0.097   0.0% |
 Atomic:                                     1.388     0.471   0.0% |
  XC Correction:                             0.917     0.917   0.0% |
 Calculate atomic Hamiltonians:             10.905    10.905   0.1% |
 Communicate:                                1.943     1.943   0.0% |
 Initialize Hamiltonian:                     0.000     0.000   0.0% |
 Poisson:                                    0.059     0.059   0.0% |
 XC 3D grid:                                 2.842     2.842   0.0% |
LCAO initialization:                       127.467     2.720   0.0% |
 LCAO eigensolver:                          14.134     0.001   0.0% |
  Blacs Orbital Layouts:                     0.274     0.000   0.0% |
   General diagonalize:                      0.270     0.270   0.0% |
   Redistribute coefs:                       0.002     0.002   0.0% |
   Send coefs to domains:                    0.002     0.002   0.0% |
  Calculate projections:                     0.003     0.003   0.0% |
  Distribute overlap matrix:                13.110     0.000   0.0% |
   Scalapack redistribute:                   0.006     0.006   0.0% |
   blocked summation:                       13.103    13.103   0.1% |
  Potential matrix:                          0.713     0.713   0.0% |
  SparseAtomicCorrection:                    0.003     0.003   0.0% |
  Sum over cells:                            0.031     0.031   0.0% |
 LCAO to grid:                             107.567   107.567   0.8% |
 Set positions (LCAO WFS):                   3.047     0.006   0.0% |
  Basic WFS set positions:                   0.003     0.003   0.0% |
  Basis functions set positions:             0.000     0.000   0.0% |
  P tci:                                     0.000     0.000   0.0% |
  ST tci:                                    0.306     0.306   0.0% |
  Scalapack redistribute:                    0.007     0.007   0.0% |
  blocked summation:                         2.610     2.610   0.0% |
  mktci:                                     0.115     0.115   0.0% |
PWDescriptor:                                0.561     0.561   0.0% |
Redistribute:                                0.010     0.010   0.0% |
SCF-cycle:                               12692.651   536.909   4.1% |-|
 Davidson:                               11327.713  2646.222  20.2% |-------|
  Apply H:                                1131.949  1113.307   8.5% |--|
   HMM T:                                   18.642    18.642   0.1% |
  Subspace diag:                          1303.923     0.035   0.0% |
   calc_h_matrix:                          839.346   249.528   1.9% ||
    Apply H:                               589.818   579.949   4.4% |-|
     HMM T:                                  9.869     9.869   0.1% |
   diagonalize:                             51.246    51.246   0.4% |
   rotate_psi:                             413.297   413.297   3.2% ||
  calc. matrices:                         4326.024  2644.538  20.2% |-------|
   Apply H:                               1681.486  1653.485  12.6% |----|
    HMM T:                                  28.000    28.000   0.2% |
  diagonalize:                             639.627   639.627   4.9% |-|
  rotate_psi:                             1279.969  1279.969   9.8% |---|
 Density:                                  522.864     0.007   0.0% |
  Atomic density matrices:                   3.792     3.792   0.0% |
  Mix:                                     179.275   179.275   1.4% ||
  Multipole moments:                         0.320     0.320   0.0% |
  Pseudo density:                          339.469   339.461   2.6% ||
   Symmetrize density:                       0.008     0.008   0.0% |
 Hamiltonian:                              255.865     1.425   0.0% |
  Atomic:                                   18.838     5.479   0.0% |
   XC Correction:                           13.359    13.359   0.1% |
  Calculate atomic Hamiltonians:           160.819   160.819   1.2% |
  Communicate:                              31.205    31.205   0.2% |
  Poisson:                                   0.855     0.855   0.0% |
  XC 3D grid:                               42.723    42.723   0.3% |
 Orthonormalize:                            49.301     0.004   0.0% |
  calc_s_matrix:                             8.013     8.013   0.1% |
  inverse-cholesky:                          2.577     2.577   0.0% |
  projections:                              25.485    25.485   0.2% |
  rotate_psi_s:                             13.222    13.222   0.1% |
Set symmetry:                                0.003     0.003   0.0% |
Other:                                      61.670    61.670   0.5% |
-------------------------------------------------------------------
Total:                                             13094.131 100.0%

Memory usage: 867.25 MiB
Date: Fri Jun 14 17:38:16 2024
