
  ___ ___ ___ _ _ _  
 |   |   |_  | | | | 
 | | | | | . | | | | 
 |__ |  _|___|_____|  22.1.0
 |___|_|             

User:   clausen@node434.cluster
Date:   Fri Jun 14 09:19:50 2024
Arch:   x86_64
Pid:    79894
Python: 3.10.4
gpaw:   /groups/kemi/clausen/miniconda3/envs/gpaw22/lib/python3.10/site-packages/gpaw
_gpaw:  /groups/kemi/clausen/miniconda3/envs/gpaw22/lib/python3.10/site-packages/
        _gpaw.cpython-310-x86_64-linux-gnu.so
ase:    /groups/kemi/clausen/miniconda3/envs/gpaw22/lib/python3.10/site-packages/ase (version 3.22.1)
numpy:  /groups/kemi/clausen/miniconda3/envs/gpaw22/lib/python3.10/site-packages/numpy (version 1.23.1)
scipy:  /groups/kemi/clausen/miniconda3/envs/gpaw22/lib/python3.10/site-packages/scipy (version 1.8.1)
libxc:  5.2.3
units:  Angstrom and eV
cores: 24
OpenMP: True
OMP_NUM_THREADS: 1

Input parameters:
  eigensolver: {name: dav,
                niter: 3}
  kpts: [4 4 1]
  mode: {ecut: 400.0,
         name: pw}
  xc: RPBE

System changes: positions, numbers, cell, pbc, initial_charges, initial_magmoms 

Initialize ...

Pd-setup:
  name: Palladium
  id: 6da19bfba079f22767af9506641940b9
  Z: 46.0
  valence: 16
  core: 30
  charge: 0.0
  file: /groups/kemi/clausen/miniconda3/envs/gpaw22/share/gpaw/Pd.RPBE.gz
  compensation charges: gauss, rc=0.38, lmax=2
  cutoffs: 2.38(filt), 2.28(core),
  valence states:
                energy  radius
    5s(0.00)    -3.225   1.228
    4p(6.00)   -51.131   1.360
    5p(0.00)    -0.373   1.360
    4d(10.00)    -3.964   1.228
    *s          23.987   1.228
    *d          23.247   1.228

  Using partial waves for Pd as LCAO basis

Pt-setup:
  name: Platinum
  id: f04f522592575c47ad794f6b4a415b4b
  Z: 78.0
  valence: 16
  core: 62
  charge: 0.0
  file: /groups/kemi/clausen/miniconda3/envs/gpaw22/share/gpaw/Pt.RPBE.gz
  compensation charges: gauss, rc=0.41, lmax=2
  cutoffs: 2.26(filt), 2.26(core),
  valence states:
                energy  radius
    6s(1.00)    -5.516   1.307
    5p(6.00)   -55.971   1.371
    6p(0.00)    -0.856   1.371
    5d(9.00)    -6.087   1.307
    *s          21.695   1.307
    *d          21.125   1.307

  Using partial waves for Pt as LCAO basis

Ru-setup:
  name: Ruthenium
  id: 76477906e28f51dc1b29884d53556fe9
  Z: 44.0
  valence: 16
  core: 28
  charge: 0.0
  file: /groups/kemi/clausen/miniconda3/envs/gpaw22/share/gpaw/Ru.RPBE.gz
  compensation charges: gauss, rc=0.39, lmax=2
  cutoffs: 2.16(filt), 1.30(core),
  valence states:
                energy  radius
    4s(2.00)   -76.255   1.281
    5s(1.00)    -4.126   1.281
    4p(6.00)   -46.371   1.286
    5p(0.00)    -0.913   1.286
    4d(7.00)    -5.146   1.254
    *d          22.066   1.254

  Using partial waves for Ru as LCAO basis

Ag-setup:
  name: Silver
  id: c05e55bab2c3858b3f9398f6d75cb77c
  Z: 47.0
  valence: 17
  core: 30
  charge: 0.0
  file: /groups/kemi/clausen/miniconda3/envs/gpaw22/share/gpaw/Ag.RPBE.gz
  compensation charges: gauss, rc=0.40, lmax=2
  cutoffs: 2.35(filt), 2.19(core),
  valence states:
                energy  radius
    5s(1.00)    -4.277   1.286
    4p(6.00)   -58.523   1.328
    5p(0.00)    -0.755   1.328
    4d(10.00)    -7.386   1.180
    *s          22.934   1.286
    *d          19.826   1.180

  Using partial waves for Ag as LCAO basis

Ir-setup:
  name: Iridium
  id: 73b603359d1d5397a85ae3c2440f9033
  Z: 77.0
  valence: 15
  core: 62
  charge: 0.0
  file: /groups/kemi/clausen/miniconda3/envs/gpaw22/share/gpaw/Ir.RPBE.gz
  compensation charges: gauss, rc=0.40, lmax=2
  cutoffs: 2.40(filt), 2.36(core),
  valence states:
                energy  radius
    6s(2.00)    -6.219   1.296
    5p(6.00)   -54.684   1.328
    6p(0.00)    -1.215   1.328
    5d(7.00)    -7.118   1.286
    *s          20.992   1.296
    *d          20.093   1.286

  Using partial waves for Ir as LCAO basis

Reference energy: -14172735.478951

Spin-paired calculation

Convergence criteria:
 Maximum [total energy] change in last 3 cyles: 0.0005 eV / electron
 Maximum integral of absolute [dens]ity change: 0.0001 electrons / valence electron
 Maximum integral of absolute [eigenst]ate change: 4e-08 eV^2 / valence electron
 Maximum number of scf [iter]ations: 333
 (Square brackets indicate name in SCF output, whereas a 'c' in
 the SCF output indicates the quantity has converged.)

Symmetries present (total): 1

  ( 1  0  0)
  ( 0  1  0)
  ( 0  0  1)

16 k-points: 4 x 4 x 1 Monkhorst-Pack grid
8 k-points in the irreducible part of the Brillouin zone
       k-points in crystal coordinates                weights
   0:     0.12500000   -0.37500000    0.00000000          2/16
   1:     0.12500000   -0.12500000    0.00000000          2/16
   2:     0.12500000    0.12500000    0.00000000          2/16
   3:     0.12500000    0.37500000    0.00000000          2/16
   4:     0.37500000   -0.37500000    0.00000000          2/16
   5:     0.37500000   -0.12500000    0.00000000          2/16
   6:     0.37500000    0.12500000    0.00000000          2/16
   7:     0.37500000    0.37500000    0.00000000          2/16

Wave functions: Plane wave expansion
  Cutoff energy: 400.000 eV
  Number of coefficients (min, max): 33332, 33436
  Pulay-stress correction: 0.000000 eV/Ang^3 (de/decut=0.000000)
  Using FFTW library
  ScaLapack parameters: grid=3x1, blocksize=64
  Wavefunction extrapolation:
    Improved wavefunction reuse through dual PAW basis 

Occupation numbers: Fermi-Dirac: width=0.1000 eV
 

Eigensolver
   Davidson(niter=3) 

Densities:
  Coarse grid: 40*40*140 grid
  Fine grid: 80*80*280 grid
  Total Charge: 0.000000 

Density mixing:
  Method: separate
  Backend: pulay
  Linear mixing parameter: 0.05
  Mixing with 5 old densities
  Damping of long wave oscillations: 50 

Hamiltonian:
  XC and Coulomb potentials evaluated on a 80*80*280 grid
  Using the RPBE Exchange-Correlation functional
  External potential:
    NoExternalPotential
 

XC parameters: RPBE with 2 nearest neighbor stencil

Memory estimate:
  Process memory now: 194.60 MiB
  Calculator: 549.92 MiB
    Density: 44.44 MiB
      Arrays: 14.92 MiB
      Localized functions: 23.79 MiB
      Mixer: 5.74 MiB
    Hamiltonian: 10.47 MiB
      Arrays: 9.75 MiB
      XC: 0.00 MiB
      Poisson: 0.00 MiB
      vbar: 0.72 MiB
    Wavefunctions: 495.00 MiB
      Arrays psit_nG: 224.48 MiB
      Eigensolver: 256.59 MiB
      Projections: 1.81 MiB
      Projectors: 3.32 MiB
      PW-descriptor: 8.80 MiB

Total number of cores used: 24
Parallelization over k-points: 8
Domain decomposition: 1 x 1 x 3
                      2 x 2 x 6 (xc only)

Number of atoms: 45
Number of atomic orbitals: 542
Number of bands in calculation: 440
Number of valence electrons: 726
Bands to converge: occupied

... initialized

Initializing position-dependent things.

Density initialized from atomic densities
Creating initial wave functions:
  440 bands from LCAO basis set

                                            
                                            
                                            
                                            
                 Pt     Ag     Pt           
                                            
            Pt    PPd    APd    Pt          
       Pt     Pt     Pt                     
             Ir     Pt     Pd               
        Pt     Pd     Pd                    
                     Ag     Pt     Ag       
                Pt     Pd     Pt            
           Pt     Pt     Ru                 
                 Ag     Ag     Pt           
            Pd     Pt     Ag                
                  Pd     Pt     Ru          
       Pd    PPt    PPd    Pt               
                                            
        Pd     Pt     Pt                    
                                            
                                            
                                            
                                            

Positions:
   0 Pd     0.000000    1.639149   10.000000    ( 0.0000,  0.0000,  0.0000)
   1 Pt     2.839089    1.639149   10.000000    ( 0.0000,  0.0000,  0.0000)
   2 Pt     5.678177    1.639149   10.000000    ( 0.0000,  0.0000,  0.0000)
   3 Pd     1.419544    4.097872   10.000000    ( 0.0000,  0.0000,  0.0000)
   4 Pd     4.258633    4.097872   10.000000    ( 0.0000,  0.0000,  0.0000)
   5 Pt     7.097722    4.097872   10.000000    ( 0.0000,  0.0000,  0.0000)
   6 Pd     2.839089    6.556595   10.000000    ( 0.0000,  0.0000,  0.0000)
   7 Pt     5.678177    6.556595   10.000000    ( 0.0000,  0.0000,  0.0000)
   8 Ru     8.517266    6.556595   10.000000    ( 0.0000,  0.0000,  0.0000)
   9 Pd     0.000000    0.000000   12.317643    ( 0.0000,  0.0000,  0.0000)
  10 Pt     2.839089    0.000000   12.317643    ( 0.0000,  0.0000,  0.0000)
  11 Pd     5.678177    0.000000   12.317643    ( 0.0000,  0.0000,  0.0000)
  12 Pd     1.419544    2.458723   12.317643    ( 0.0000,  0.0000,  0.0000)
  13 Pt     4.258633    2.458723   12.317643    ( 0.0000,  0.0000,  0.0000)
  14 Ag     7.097722    2.458723   12.317643    ( 0.0000,  0.0000,  0.0000)
  15 Ag     2.839089    4.917446   12.317643    ( 0.0000,  0.0000,  0.0000)
  16 Ag     5.678177    4.917446   12.317643    ( 0.0000,  0.0000,  0.0000)
  17 Pt     8.517266    4.917446   12.317643    ( 0.0000,  0.0000,  0.0000)
  18 Pt     1.419544    0.819574   14.635286    ( 0.0000,  0.0000,  0.0000)
  19 Pt     4.258633    0.819574   14.635286    ( 0.0000,  0.0000,  0.0000)
  20 Ru     7.097722    0.819574   14.635286    ( 0.0000,  0.0000,  0.0000)
  21 Pt     2.839089    3.278297   14.635286    ( 0.0000,  0.0000,  0.0000)
  22 Pd     5.678177    3.278297   14.635286    ( 0.0000,  0.0000,  0.0000)
  23 Pt     8.517266    3.278297   14.635286    ( 0.0000,  0.0000,  0.0000)
  24 Ag     4.258633    5.737020   14.635286    ( 0.0000,  0.0000,  0.0000)
  25 Pt     7.097722    5.737020   14.635286    ( 0.0000,  0.0000,  0.0000)
  26 Ag     9.936811    5.737020   14.635286    ( 0.0000,  0.0000,  0.0000)
  27 Pt     0.000000    1.639149   16.952928    ( 0.0000,  0.0000,  0.0000)
  28 Pd     2.839089    1.639149   16.952928    ( 0.0000,  0.0000,  0.0000)
  29 Pd     5.678177    1.639149   16.952928    ( 0.0000,  0.0000,  0.0000)
  30 Ir     1.419544    4.097872   16.952928    ( 0.0000,  0.0000,  0.0000)
  31 Pt     4.258633    4.097872   16.952928    ( 0.0000,  0.0000,  0.0000)
  32 Pd     7.097722    4.097872   16.952928    ( 0.0000,  0.0000,  0.0000)
  33 Pd     2.839089    6.556595   16.952928    ( 0.0000,  0.0000,  0.0000)
  34 Ag     5.678177    6.556595   16.952928    ( 0.0000,  0.0000,  0.0000)
  35 Pt     8.517266    6.556595   16.952928    ( 0.0000,  0.0000,  0.0000)
  36 Pt     0.000000    0.000000   19.270571    ( 0.0000,  0.0000,  0.0000)
  37 Pt     2.839089    0.000000   19.270571    ( 0.0000,  0.0000,  0.0000)
  38 Pt     5.678177    0.000000   19.270571    ( 0.0000,  0.0000,  0.0000)
  39 Pt     1.419544    2.458723   19.270571    ( 0.0000,  0.0000,  0.0000)
  40 Pd     4.258633    2.458723   19.270571    ( 0.0000,  0.0000,  0.0000)
  41 Pd     7.097722    2.458723   19.270571    ( 0.0000,  0.0000,  0.0000)
  42 Pt     2.839089    4.917446   19.270571    ( 0.0000,  0.0000,  0.0000)
  43 Ag     5.678177    4.917446   19.270571    ( 0.0000,  0.0000,  0.0000)
  44 Pt     8.517266    4.917446   19.270571    ( 0.0000,  0.0000,  0.0000)

Unit cell:
           periodic     x           y           z      points  spacing
  1. axis:    yes    8.517266    0.000000    0.000000    40     0.1844
  2. axis:    yes    4.258633    7.376169    0.000000    40     0.1844
  3. axis:    no     0.000000    0.000000   29.270571   140     0.2091

  Lengths:   8.517266   8.517266  29.270571
  Angles:   90.000000  90.000000  60.000000

Effective grid spacing dv^(1/3) = 0.2017

     iter     time        total  log10-change:
                         energy  eigst   dens
iter:   1 09:23:07  -250.569205
iter:   2 09:24:08  -215.978403  -1.65  -1.21
iter:   3 09:25:08  -231.494961  -2.23  -1.37
iter:   4 09:26:08  -230.154751  -2.39  -1.31
iter:   5 09:27:08  -214.027789  -2.41  -1.33
iter:   6 09:28:09  -202.706051  -2.69  -1.45
iter:   7 09:29:10  -198.546098  -2.59  -1.60
iter:   8 09:30:12  -197.238983  -2.85  -1.80
iter:   9 09:31:14  -197.112515  -3.35  -1.96
iter:  10 09:32:15  -197.502738  -3.68  -2.05
iter:  11 09:33:19  -197.211052  -3.81  -2.06
iter:  12 09:34:21  -196.977606  -3.99  -2.10
iter:  13 09:35:23  -196.777754  -3.42  -2.18
iter:  14 09:36:25  -196.488592  -3.90  -2.28
iter:  15 09:37:27  -196.482774c -4.17  -2.50
iter:  16 09:38:28  -196.493019c -4.31  -2.51
iter:  17 09:39:31  -196.355207c -4.57  -2.50
iter:  18 09:40:33  -196.350876c -4.96  -2.78
iter:  19 09:41:36  -196.338968c -5.08  -2.84
iter:  20 09:42:38  -196.335437c -5.04  -2.97
iter:  21 09:43:40  -196.338790c -5.70  -3.09
iter:  22 09:44:42  -196.338696c -5.82  -3.14
iter:  23 09:45:44  -196.336425c -5.78  -3.08
iter:  24 09:46:45  -196.337578c -5.62  -3.24
iter:  25 09:47:47  -196.337642c -5.99  -3.30
iter:  26 09:48:49  -196.336420c -6.31  -3.46
iter:  27 09:49:50  -196.336590c -5.96  -3.57
iter:  28 09:50:51  -196.335956c -6.69  -3.76
iter:  29 09:51:52  -196.335997c -7.13  -3.82
iter:  30 09:52:53  -196.336154c -6.95  -3.89
iter:  31 09:53:55  -196.337405c -6.89  -3.83
iter:  32 09:54:56  -196.335457c -6.97  -3.66
iter:  33 09:55:57  -196.335673c -7.32  -4.04c
iter:  34 09:56:59  -196.335574c -7.38  -4.14c
iter:  35 09:58:00  -196.335568c -7.28  -4.35c
iter:  36 09:59:02  -196.335664c -8.15c -4.36c

Converged after 36 iterations.

Dipole moment: (24.592925, 14.024342, -0.037840) |e|*Ang

Energy contributions relative to reference atoms: (reference = -14172735.478951)

Kinetic:       -346.101204
Potential:     +198.253872
External:        +0.000000
XC:             -36.275022
Entropy (-ST):   -2.398793
Local:          -11.013914
--------------------------
Free energy:   -197.535061
Extrapolated:  -196.335664

Showing only first 2 kpts
 Kpt  Band  Eigenvalues  Occupancy
  0   361      0.64057    0.94956
  0   362      0.65421    0.88186
  0   363      0.69700    0.67912
  0   364      0.70704    0.63482

  1   361      0.53782    1.43275
  1   362      0.54534    1.40169
  1   363      0.58283    1.23383
  1   364      0.60775    1.11313


Fermi level: 0.63047

No gap

Forces in eV/Ang:
  0 Pd    0.01033   -0.01335   -0.25635
  1 Pt    0.31371   -0.51623    0.37681
  2 Pt   -0.34904   -0.14531    0.01456
  3 Pd   -0.40985    0.18329   -0.09471
  4 Pd    0.22376   -0.22755   -0.24530
  5 Pt    0.22878    0.31088   -0.18610
  6 Pd   -0.22027    0.22143   -0.11712
  7 Pt    0.55004    0.18081    0.09531
  8 Ru   -0.46171    0.06591    1.36558
  9 Pd   -0.12816    0.23588    0.28918
 10 Pt    0.23839   -0.02690   -0.17334
 11 Pd   -0.03400    0.08501    0.03882
 12 Pd    0.06127    0.02145    0.05328
 13 Pt   -0.19952   -0.21331    0.15135
 14 Ag    0.06724   -0.15775    0.03879
 15 Ag   -0.04035   -0.00398   -0.20415
 16 Ag   -0.08583   -0.02165   -0.04616
 17 Pt   -0.05947    0.24041   -0.61923
 18 Pt   -0.41206    0.12395   -0.32502
 19 Pt    0.34308    0.06375   -0.10245
 20 Ru    0.28165    0.69980    0.47182
 21 Pt   -0.04992   -0.34197    0.44163
 22 Pd    0.01291   -0.40944    0.28077
 23 Pt   -0.00162   -0.38347    0.37606
 24 Ag   -0.03328    0.09147    0.04385
 25 Pt    0.41875    0.16660   -0.08690
 26 Ag    0.06460    0.09096    0.06163
 27 Pt   -0.14922    0.25048   -0.60211
 28 Pd    0.03151    0.20371   -0.09158
 29 Pd    0.07373   -0.05486   -0.35589
 30 Ir    0.12825   -0.24552    0.42901
 31 Pt   -0.57113   -0.40546   -0.03024
 32 Pd    0.15929   -0.11973   -0.30463
 33 Pd   -0.15948    0.03790   -0.11587
 34 Ag    0.01047   -0.00945   -0.01861
 35 Pt    0.14393   -0.16512    0.23881
 36 Pt   -0.13455    0.37318    0.01971
 37 Pt    0.20144    0.30376    0.04190
 38 Pt   -0.12917   -0.26206   -0.19852
 39 Pt   -0.08381   -0.04508   -0.44135
 40 Pd   -0.16509   -0.23803    0.06371
 41 Pd    0.24863   -0.29031    0.04562
 42 Pt   -0.53433    0.14085   -0.60214
 43 Ag    0.00913    0.02427    0.68530
 44 Pt    0.59078    0.17916   -0.44040

System changes: positions 

Initializing position-dependent things.

Density initialized from wave functions
                                            
                                            
                                            
                                            
                 Pt     Ag     Pt           
                                            
            Pt    PPd    APd    Pt          
       Pt     Pt     Pt                     
             Ir     Pt     Pd               
        Pt     Pd     Pd                    
                     Ag     Pt     Ag       
                Pt     Pd     Pt            
           Pt     Pt     Ru                 
                 Ag     Ag     Pt           
            Pd     Pt     Ag                
                  Pd     Pt     Ru          
       Pd    PPt    PPd    Pt               
                                            
        Pd     Pt     Pt                    
                                            
                                            
                                            
                                            

Positions:
   0 Pd     0.000000    1.639149   10.000000    ( 0.0000,  0.0000,  0.0000)
   1 Pt     2.839089    1.639149   10.000000    ( 0.0000,  0.0000,  0.0000)
   2 Pt     5.678177    1.639149   10.000000    ( 0.0000,  0.0000,  0.0000)
   3 Pd     1.419544    4.097872   10.000000    ( 0.0000,  0.0000,  0.0000)
   4 Pd     4.258633    4.097872   10.000000    ( 0.0000,  0.0000,  0.0000)
   5 Pt     7.097722    4.097872   10.000000    ( 0.0000,  0.0000,  0.0000)
   6 Pd     2.839089    6.556595   10.000000    ( 0.0000,  0.0000,  0.0000)
   7 Pt     5.678177    6.556595   10.000000    ( 0.0000,  0.0000,  0.0000)
   8 Ru     8.517266    6.556595   10.000000    ( 0.0000,  0.0000,  0.0000)
   9 Pd     0.000000    0.000000   12.317643    ( 0.0000,  0.0000,  0.0000)
  10 Pt     2.839089    0.000000   12.317643    ( 0.0000,  0.0000,  0.0000)
  11 Pd     5.678177    0.000000   12.317643    ( 0.0000,  0.0000,  0.0000)
  12 Pd     1.419544    2.458723   12.317643    ( 0.0000,  0.0000,  0.0000)
  13 Pt     4.258633    2.458723   12.317643    ( 0.0000,  0.0000,  0.0000)
  14 Ag     7.097722    2.458723   12.317643    ( 0.0000,  0.0000,  0.0000)
  15 Ag     2.839089    4.917446   12.317643    ( 0.0000,  0.0000,  0.0000)
  16 Ag     5.678177    4.917446   12.317643    ( 0.0000,  0.0000,  0.0000)
  17 Pt     8.517266    4.917446   12.317643    ( 0.0000,  0.0000,  0.0000)
  18 Pt     1.413658    0.821345   14.630642    ( 0.0000,  0.0000,  0.0000)
  19 Pt     4.263534    0.820485   14.633822    ( 0.0000,  0.0000,  0.0000)
  20 Ru     7.101745    0.829571   14.642026    ( 0.0000,  0.0000,  0.0000)
  21 Pt     2.838376    3.273412   14.641595    ( 0.0000,  0.0000,  0.0000)
  22 Pd     5.678362    3.272448   14.639297    ( 0.0000,  0.0000,  0.0000)
  23 Pt     8.517243    3.272819   14.640658    ( 0.0000,  0.0000,  0.0000)
  24 Ag     4.258158    5.738327   14.635912    ( 0.0000,  0.0000,  0.0000)
  25 Pt     7.103704    5.739400   14.634044    ( 0.0000,  0.0000,  0.0000)
  26 Ag     9.937733    5.738320   14.636166    ( 0.0000,  0.0000,  0.0000)
  27 Pt    -0.002132    1.642727   16.944327    ( 0.0000,  0.0000,  0.0000)
  28 Pd     2.839539    1.642059   16.951620    ( 0.0000,  0.0000,  0.0000)
  29 Pd     5.679231    1.638365   16.947844    ( 0.0000,  0.0000,  0.0000)
  30 Ir     1.421377    4.094364   16.959057    ( 0.0000,  0.0000,  0.0000)
  31 Pt     4.250474    4.092079   16.952496    ( 0.0000,  0.0000,  0.0000)
  32 Pd     7.099997    4.096161   16.948576    ( 0.0000,  0.0000,  0.0000)
  33 Pd     2.836810    6.557136   16.951273    ( 0.0000,  0.0000,  0.0000)
  34 Ag     5.678327    6.556460   16.952662    ( 0.0000,  0.0000,  0.0000)
  35 Pt     8.519322    6.554236   16.956340    ( 0.0000,  0.0000,  0.0000)
  36 Pt    -0.001922    0.005331   19.270853    ( 0.0000,  0.0000,  0.0000)
  37 Pt     2.841966    0.004339   19.271170    ( 0.0000,  0.0000,  0.0000)
  38 Pt     5.676332   -0.003744   19.267735    ( 0.0000,  0.0000,  0.0000)
  39 Pt     1.418347    2.458079   19.264266    ( 0.0000,  0.0000,  0.0000)
  40 Pd     4.256275    2.455322   19.271481    ( 0.0000,  0.0000,  0.0000)
  41 Pd     7.101274    2.454576   19.271223    ( 0.0000,  0.0000,  0.0000)
  42 Pt     2.831455    4.919458   19.261969    ( 0.0000,  0.0000,  0.0000)
  43 Ag     5.678308    4.917793   19.280361    ( 0.0000,  0.0000,  0.0000)
  44 Pt     8.525706    4.920005   19.264280    ( 0.0000,  0.0000,  0.0000)

Unit cell:
           periodic     x           y           z      points  spacing
  1. axis:    yes    8.517266    0.000000    0.000000    40     0.1844
  2. axis:    yes    4.258633    7.376169    0.000000    40     0.1844
  3. axis:    no     0.000000    0.000000   29.270571   140     0.2091

  Lengths:   8.517266   8.517266  29.270571
  Angles:   90.000000  90.000000  60.000000

Effective grid spacing dv^(1/3) = 0.2017

     iter     time        total  log10-change:
                         energy  eigst   dens
iter:   1 10:00:23  -197.060327  -3.89
iter:   2 10:01:25  -217.040715  -3.17  -2.30
iter:   3 10:02:26  -196.690152  -3.41  -1.60
iter:   4 10:03:27  -196.470018  -4.68  -2.54
iter:   5 10:04:28  -196.481426c -5.29  -2.88
iter:   6 10:05:30  -196.438084c -5.38  -2.84
iter:   7 10:06:31  -196.429859c -6.11  -3.04
iter:   8 10:07:32  -196.424626c -6.03  -3.40
iter:   9 10:08:33  -196.424229c -6.28  -3.49
iter:  10 10:09:34  -196.423719c -6.81  -3.75
iter:  11 10:10:35  -196.424365c -7.14  -3.76
iter:  12 10:11:37  -196.424344c -7.21  -3.83
iter:  13 10:12:37  -196.423925c -7.23  -3.79
iter:  14 10:13:39  -196.423580c -7.28  -4.03c
iter:  15 10:14:40  -196.424038c -7.50c -4.15c

Converged after 15 iterations.

Dipole moment: (25.053037, 13.928201, -0.034544) |e|*Ang

Energy contributions relative to reference atoms: (reference = -14172735.478951)

Kinetic:       -343.976820
Potential:     +196.252191
External:        +0.000000
XC:             -36.474866
Entropy (-ST):   -2.395507
Local:          -11.026789
--------------------------
Free energy:   -197.621792
Extrapolated:  -196.424038

Showing only first 2 kpts
 Kpt  Band  Eigenvalues  Occupancy
  0   361      0.64327    0.94958
  0   362      0.65696    0.88164
  0   363      0.70027    0.67658
  0   364      0.71014    0.63313

  1   361      0.54008    1.43453
  1   362      0.54797    1.40198
  1   363      0.58473    1.23758
  1   364      0.61134    1.10876


Fermi level: 0.63317

No gap

Forces in eV/Ang:
  0 Pd    0.00938   -0.01242   -0.24926
  1 Pt    0.31191   -0.51756    0.38273
  2 Pt   -0.34658   -0.15247    0.02378
  3 Pd   -0.40960    0.18584   -0.09246
  4 Pd    0.21954   -0.22382   -0.24117
  5 Pt    0.23260    0.31147   -0.17947
  6 Pd   -0.22427    0.22086   -0.11058
  7 Pt    0.55008    0.18050    0.10040
  8 Ru   -0.45913    0.06615    1.37070
  9 Pd   -0.14786    0.22671    0.27395
 10 Pt    0.23917   -0.01934   -0.17109
 11 Pd   -0.01468    0.08157    0.03675
 12 Pd    0.06277    0.04084    0.04597
 13 Pt   -0.20243   -0.20318    0.15657
 14 Ag    0.06956   -0.15121    0.03666
 15 Ag   -0.03998   -0.01099   -0.17943
 16 Ag   -0.08671   -0.03059   -0.02064
 17 Pt   -0.05060    0.22176   -0.60281
 18 Pt   -0.30660    0.06216   -0.29094
 19 Pt    0.28101    0.03480   -0.08553
 20 Ru    0.23788    0.58615    0.40316
 21 Pt   -0.04913   -0.27904    0.34641
 22 Pd   -0.00324   -0.29506    0.22355
 23 Pt    0.01619   -0.25901    0.27917
 24 Ag   -0.01668    0.05707    0.03948
 25 Pt    0.35110    0.14684   -0.06666
 26 Ag    0.08278    0.06292    0.05556
 27 Pt   -0.12709    0.17185   -0.48986
 28 Pd    0.03325    0.09502   -0.09598
 29 Pd    0.04624   -0.04325   -0.25694
 30 Ir    0.10099   -0.20319    0.33599
 31 Pt   -0.42561   -0.31633    0.00690
 32 Pd    0.07225   -0.06455   -0.22383
 33 Pd   -0.09959    0.04816   -0.11682
 34 Ag    0.00718   -0.03713    0.00491
 35 Pt    0.08795   -0.12634    0.17202
 36 Pt   -0.10660    0.32291   -0.02537
 37 Pt    0.15135    0.26110    0.01394
 38 Pt   -0.10237   -0.18333   -0.17585
 39 Pt   -0.08829   -0.07847   -0.39082
 40 Pd   -0.11041   -0.19092    0.04933
 41 Pd    0.19522   -0.23657    0.01276
 42 Pt   -0.40523    0.13170   -0.52756
 43 Ag    0.00760    0.01361    0.59390
 44 Pt    0.45026    0.13647   -0.38771

System changes: positions 

Initializing position-dependent things.

Density initialized from wave functions
                                            
                                            
                                            
                                            
                        Ag                  
                 Pt            Pt           
            Pt    PPd    APd    Pt          
       Pt     Pt     Pt                     
             Ir     Pt     Pd               
        Pt     Pd     Pd                    
                     Ag     Pt     Ag       
                Pt     Pd     Pt            
           Pt     Pt     Ru                 
                 Ag     Ag     Pt           
            Pd     Pt     Ag                
                  Pd     Pt     Ru          
       Pd    PPt    PPd    Pt               
                                            
        Pd     Pt     Pt                    
                                            
                                            
                                            
                                            

Positions:
   0 Pd     0.000000    1.639149   10.000000    ( 0.0000,  0.0000,  0.0000)
   1 Pt     2.839089    1.639149   10.000000    ( 0.0000,  0.0000,  0.0000)
   2 Pt     5.678177    1.639149   10.000000    ( 0.0000,  0.0000,  0.0000)
   3 Pd     1.419544    4.097872   10.000000    ( 0.0000,  0.0000,  0.0000)
   4 Pd     4.258633    4.097872   10.000000    ( 0.0000,  0.0000,  0.0000)
   5 Pt     7.097722    4.097872   10.000000    ( 0.0000,  0.0000,  0.0000)
   6 Pd     2.839089    6.556595   10.000000    ( 0.0000,  0.0000,  0.0000)
   7 Pt     5.678177    6.556595   10.000000    ( 0.0000,  0.0000,  0.0000)
   8 Ru     8.517266    6.556595   10.000000    ( 0.0000,  0.0000,  0.0000)
   9 Pd     0.000000    0.000000   12.317643    ( 0.0000,  0.0000,  0.0000)
  10 Pt     2.839089    0.000000   12.317643    ( 0.0000,  0.0000,  0.0000)
  11 Pd     5.678177    0.000000   12.317643    ( 0.0000,  0.0000,  0.0000)
  12 Pd     1.419544    2.458723   12.317643    ( 0.0000,  0.0000,  0.0000)
  13 Pt     4.258633    2.458723   12.317643    ( 0.0000,  0.0000,  0.0000)
  14 Ag     7.097722    2.458723   12.317643    ( 0.0000,  0.0000,  0.0000)
  15 Ag     2.839089    4.917446   12.317643    ( 0.0000,  0.0000,  0.0000)
  16 Ag     5.678177    4.917446   12.317643    ( 0.0000,  0.0000,  0.0000)
  17 Pt     8.517266    4.917446   12.317643    ( 0.0000,  0.0000,  0.0000)
  18 Pt     1.390812    0.826074   14.609123    ( 0.0000,  0.0000,  0.0000)
  19 Pt     4.284390    0.823119   14.627479    ( 0.0000,  0.0000,  0.0000)
  20 Ru     7.119378    0.873034   14.671897    ( 0.0000,  0.0000,  0.0000)
  21 Pt     2.834754    3.252699   14.667349    ( 0.0000,  0.0000,  0.0000)
  22 Pd     5.678162    3.250431   14.655906    ( 0.0000,  0.0000,  0.0000)
  23 Pt     8.518393    3.253434   14.661461    ( 0.0000,  0.0000,  0.0000)
  24 Ag     4.256889    5.742615   14.638831    ( 0.0000,  0.0000,  0.0000)
  25 Pt     7.129737    5.750268   14.629084    ( 0.0000,  0.0000,  0.0000)
  26 Ag     9.943789    5.743024   14.640274    ( 0.0000,  0.0000,  0.0000)
  27 Pt    -0.011549    1.655579   16.907962    ( 0.0000,  0.0000,  0.0000)
  28 Pd     2.841984    1.649323   16.944558    ( 0.0000,  0.0000,  0.0000)
  29 Pd     5.682704    1.635150   16.928673    ( 0.0000,  0.0000,  0.0000)
  30 Ir     1.428883    4.079290   16.984038    ( 0.0000,  0.0000,  0.0000)
  31 Pt     4.218763    4.068556   16.952915    ( 0.0000,  0.0000,  0.0000)
  32 Pd     7.105531    4.091271   16.931889    ( 0.0000,  0.0000,  0.0000)
  33 Pd     2.829328    6.560659   16.942668    ( 0.0000,  0.0000,  0.0000)
  34 Ag     5.678864    6.553791   16.952968    ( 0.0000,  0.0000,  0.0000)
  35 Pt     8.525938    6.544833   16.969176    ( 0.0000,  0.0000,  0.0000)
  36 Pt    -0.009844    0.029245   19.269092    ( 0.0000,  0.0000,  0.0000)
  37 Pt     2.853239    0.023680   19.272264    ( 0.0000,  0.0000,  0.0000)
  38 Pt     5.668725   -0.017442   19.254723    ( 0.0000,  0.0000,  0.0000)
  39 Pt     1.411852    2.452378   19.235348    ( 0.0000,  0.0000,  0.0000)
  40 Pd     4.248007    2.441142   19.275150    ( 0.0000,  0.0000,  0.0000)
  41 Pd     7.115787    2.437015   19.272242    ( 0.0000,  0.0000,  0.0000)
  42 Pt     2.801286    4.929184   19.222917    ( 0.0000,  0.0000,  0.0000)
  43 Ag     5.678872    4.918821   19.324341    ( 0.0000,  0.0000,  0.0000)
  44 Pt     8.559221    4.930164   19.235585    ( 0.0000,  0.0000,  0.0000)

Unit cell:
           periodic     x           y           z      points  spacing
  1. axis:    yes    8.517266    0.000000    0.000000    40     0.1844
  2. axis:    yes    4.258633    7.376169    0.000000    40     0.1844
  3. axis:    no     0.000000    0.000000   29.270571   140     0.2091

  Lengths:   8.517266   8.517266  29.270571
  Angles:   90.000000  90.000000  60.000000

Effective grid spacing dv^(1/3) = 0.2017

     iter     time        total  log10-change:
                         energy  eigst   dens
iter:   1 10:16:01  -201.013603  -2.71
iter:   2 10:17:01  -266.547886  -2.45  -1.91
iter:   3 10:18:03  -197.489374  -2.72  -1.35
iter:   4 10:19:04  -196.999665  -3.92  -2.28
iter:   5 10:20:06  -197.218749  -4.33  -2.42
iter:   6 10:21:07  -196.847931  -4.40  -2.33
iter:   7 10:22:08  -196.710421  -5.27  -2.50
iter:   8 10:23:09  -196.688817c -5.00  -2.82
iter:   9 10:24:10  -196.666717c -5.07  -2.85
iter:  10 10:25:11  -196.664550c -5.63  -3.09
iter:  11 10:26:13  -196.663689c -5.68  -3.18
iter:  12 10:27:15  -196.666678c -6.09  -3.30
iter:  13 10:28:18  -196.662745c -5.94  -3.17
iter:  14 10:29:20  -196.660964c -6.33  -3.49
iter:  15 10:30:22  -196.662313c -6.59  -3.58
iter:  16 10:31:24  -196.661159c -6.78  -3.57
iter:  17 10:32:26  -196.661127c -6.84  -3.78
iter:  18 10:33:28  -196.659951c -7.02  -3.70
iter:  19 10:34:30  -196.660130c -7.14  -3.91
iter:  20 10:35:32  -196.659714c -7.24  -4.05c
iter:  21 10:36:33  -196.660175c -7.64c -3.96
iter:  22 10:37:35  -196.659625c -7.68c -3.94
iter:  23 10:38:36  -196.659703c -7.97c -4.18c

Converged after 23 iterations.

Dipole moment: (26.878469, 13.226654, -0.020959) |e|*Ang

Energy contributions relative to reference atoms: (reference = -14172735.478951)

Kinetic:       -336.873953
Potential:     +189.886318
External:        +0.000000
XC:             -37.454600
Entropy (-ST):   -2.383255
Local:          -11.025840
--------------------------
Free energy:   -197.851331
Extrapolated:  -196.659703

Showing only first 2 kpts
 Kpt  Band  Eigenvalues  Occupancy
  0   361      0.65155    0.94906
  0   362      0.66493    0.88268
  0   363      0.70912    0.67355
  0   364      0.71973    0.62701

  1   361      0.54691    1.43998
  1   362      0.55683    1.39912
  1   363      0.58999    1.25132
  1   364      0.62209    1.09602


Fermi level: 0.64135

No gap

Forces in eV/Ang:
  0 Pd    0.01092   -0.01304   -0.25413
  1 Pt    0.31316   -0.52187    0.38354
  2 Pt   -0.34788   -0.15185    0.01913
  3 Pd   -0.41298    0.18659   -0.08539
  4 Pd    0.21866   -0.22430   -0.24078
  5 Pt    0.23308    0.31484   -0.18609
  6 Pd   -0.22305    0.22329   -0.10611
  7 Pt    0.55386    0.17613    0.09326
  8 Ru   -0.47024    0.06913    1.36067
  9 Pd   -0.18036    0.21330    0.22683
 10 Pt    0.25132   -0.00485   -0.16953
 11 Pd    0.00996    0.07171    0.00556
 12 Pd    0.07236    0.08785    0.04139
 13 Pt   -0.20784   -0.18174    0.16791
 14 Ag    0.07147   -0.13317    0.05249
 15 Ag   -0.03777   -0.04935   -0.11031
 16 Ag   -0.08077   -0.05166    0.05816
 17 Pt   -0.01960    0.19629   -0.56426
 18 Pt   -0.07976   -0.07902   -0.16996
 19 Pt    0.13673   -0.02746   -0.05050
 20 Ru    0.13265    0.25438    0.20225
 21 Pt   -0.03812   -0.11826    0.08234
 22 Pd   -0.03575   -0.04623    0.07295
 23 Pt    0.05083    0.04012   -0.00846
 24 Ag    0.03412   -0.03744    0.03502
 25 Pt    0.15931    0.09780   -0.04186
 26 Ag    0.13622   -0.01700    0.03933
 27 Pt   -0.04611   -0.04438   -0.21702
 28 Pd    0.01375   -0.15628   -0.11703
 29 Pd   -0.00726   -0.04037   -0.04784
 30 Ir    0.03918   -0.09157    0.04961
 31 Pt   -0.10536   -0.09483    0.09079
 32 Pd   -0.07876    0.02835   -0.02728
 33 Pd    0.02620    0.08983   -0.14780
 34 Ag   -0.02142   -0.06972    0.05272
 35 Pt   -0.00853   -0.01731   -0.02245
 36 Pt   -0.03500    0.16887   -0.08912
 37 Pt    0.04006    0.13523   -0.00752
 38 Pt   -0.04252   -0.00440   -0.06957
 39 Pt   -0.08226   -0.14345   -0.22223
 40 Pd   -0.01310   -0.08758    0.01216
 41 Pd    0.07367   -0.10374   -0.06198
 42 Pt   -0.08127    0.09566   -0.27859
 43 Ag    0.00390    0.01361    0.34426
 44 Pt    0.08339    0.02132   -0.18098

System changes: positions 

Initializing position-dependent things.

Density initialized from wave functions
                                             
                                             
                                             
                                             
                                             
                 Pt     Ag     Pt            
                                             
            Pt    PPd    APd    Pt           
       Pt    IPt    PPt    Pd                
                                             
        Pt     Pd    APd    Pt     Ag        
                                             
                Pt     Pd     Pt             
           Pt    APt    ARu    Pt            
                                             
            Pd    PPt    PAg    Ru           
       Pd     Pt     Pd                      
             Pd     Pd     Pt                
        Pd     Pt     Pt                     
                                             
                                             
                                             
                                             
                                             

Positions:
   0 Pd     0.000000    1.639149   10.000000    ( 0.0000,  0.0000,  0.0000)
   1 Pt     2.839089    1.639149   10.000000    ( 0.0000,  0.0000,  0.0000)
   2 Pt     5.678177    1.639149   10.000000    ( 0.0000,  0.0000,  0.0000)
   3 Pd     1.419544    4.097872   10.000000    ( 0.0000,  0.0000,  0.0000)
   4 Pd     4.258633    4.097872   10.000000    ( 0.0000,  0.0000,  0.0000)
   5 Pt     7.097722    4.097872   10.000000    ( 0.0000,  0.0000,  0.0000)
   6 Pd     2.839089    6.556595   10.000000    ( 0.0000,  0.0000,  0.0000)
   7 Pt     5.678177    6.556595   10.000000    ( 0.0000,  0.0000,  0.0000)
   8 Ru     8.517266    6.556595   10.000000    ( 0.0000,  0.0000,  0.0000)
   9 Pd     0.000000    0.000000   12.317643    ( 0.0000,  0.0000,  0.0000)
  10 Pt     2.839089    0.000000   12.317643    ( 0.0000,  0.0000,  0.0000)
  11 Pd     5.678177    0.000000   12.317643    ( 0.0000,  0.0000,  0.0000)
  12 Pd     1.419544    2.458723   12.317643    ( 0.0000,  0.0000,  0.0000)
  13 Pt     4.258633    2.458723   12.317643    ( 0.0000,  0.0000,  0.0000)
  14 Ag     7.097722    2.458723   12.317643    ( 0.0000,  0.0000,  0.0000)
  15 Ag     2.839089    4.917446   12.317643    ( 0.0000,  0.0000,  0.0000)
  16 Ag     5.678177    4.917446   12.317643    ( 0.0000,  0.0000,  0.0000)
  17 Pt     8.517266    4.917446   12.317643    ( 0.0000,  0.0000,  0.0000)
  18 Pt     1.377250    0.826792   14.594328    ( 0.0000,  0.0000,  0.0000)
  19 Pt     4.298153    0.823884   14.623095    ( 0.0000,  0.0000,  0.0000)
  20 Ru     7.131385    0.900989   14.691714    ( 0.0000,  0.0000,  0.0000)
  21 Pt     2.832057    3.239427   14.682416    ( 0.0000,  0.0000,  0.0000)
  22 Pd     5.677282    3.238031   14.666066    ( 0.0000,  0.0000,  0.0000)
  23 Pt     8.520092    3.244305   14.671968    ( 0.0000,  0.0000,  0.0000)
  24 Ag     4.256990    5.743999   14.641110    ( 0.0000,  0.0000,  0.0000)
  25 Pt     7.146638    5.758017   14.625586    ( 0.0000,  0.0000,  0.0000)
  26 Ag     9.949905    5.745069   14.643254    ( 0.0000,  0.0000,  0.0000)
  27 Pt    -0.017397    1.661219   16.884442    ( 0.0000,  0.0000,  0.0000)
  28 Pd     2.843528    1.649660   16.938342    ( 0.0000,  0.0000,  0.0000)
  29 Pd     5.684349    1.632585   16.917705    ( 0.0000,  0.0000,  0.0000)
  30 Ir     1.433619    4.069513   16.997966    ( 0.0000,  0.0000,  0.0000)
  31 Pt     4.200062    4.054344   16.955114    ( 0.0000,  0.0000,  0.0000)
  32 Pd     7.106714    4.089334   16.922679    ( 0.0000,  0.0000,  0.0000)
  33 Pd     2.826023    6.564459   16.934966    ( 0.0000,  0.0000,  0.0000)
  34 Ag     5.678654    6.550916   16.954272    ( 0.0000,  0.0000,  0.0000)
  35 Pt     8.529198    6.539614   16.975281    ( 0.0000,  0.0000,  0.0000)
  36 Pt    -0.014696    0.045258   19.266270    ( 0.0000,  0.0000,  0.0000)
  37 Pt     2.859943    0.036605   19.272704    ( 0.0000,  0.0000,  0.0000)
  38 Pt     5.663863   -0.024619   19.246528    ( 0.0000,  0.0000,  0.0000)
  39 Pt     1.406713    2.446308   19.215595    ( 0.0000,  0.0000,  0.0000)
  40 Pd     4.243424    2.431896   19.277309    ( 0.0000,  0.0000,  0.0000)
  41 Pd     7.124898    2.425682   19.271415    ( 0.0000,  0.0000,  0.0000)
  42 Pt     2.783944    4.936287   19.196719    ( 0.0000,  0.0000,  0.0000)
  43 Ag     5.679248    4.919672   19.354555    ( 0.0000,  0.0000,  0.0000)
  44 Pt     8.578323    4.935864   19.216879    ( 0.0000,  0.0000,  0.0000)

Unit cell:
           periodic     x           y           z      points  spacing
  1. axis:    yes    8.517266    0.000000    0.000000    40     0.1844
  2. axis:    yes    4.258633    7.376169    0.000000    40     0.1844
  3. axis:    no     0.000000    0.000000   29.270571   140     0.2091

  Lengths:   8.517266   8.517266  29.270571
  Angles:   90.000000  90.000000  60.000000

Effective grid spacing dv^(1/3) = 0.2017

     iter     time        total  log10-change:
                         energy  eigst   dens
iter:   1 10:39:58  -199.007775  -3.10
iter:   2 10:40:59  -241.418596  -2.72  -2.04
iter:   3 10:42:01  -197.132227  -2.93  -1.44
iter:   4 10:43:02  -197.120414  -4.35  -2.46
iter:   5 10:44:04  -196.752651  -4.77  -2.40
iter:   6 10:45:06  -196.755565  -5.06  -2.86
iter:   7 10:46:08  -196.724935c -5.60  -2.78
iter:   8 10:47:10  -196.708930c -5.26  -3.03
iter:   9 10:48:11  -196.708579c -5.57  -3.14
iter:  10 10:49:14  -196.705960c -6.04  -3.21
iter:  11 10:50:17  -196.707199c -6.29  -3.36
iter:  12 10:51:20  -196.705384c -6.48  -3.24
iter:  13 10:52:22  -196.704263c -6.26  -3.43
iter:  14 10:53:23  -196.703277c -6.29  -3.53
iter:  15 10:54:24  -196.703407c -6.77  -3.53
iter:  16 10:55:26  -196.702954c -6.78  -3.75
iter:  17 10:56:30  -196.701954c -7.13  -3.98
iter:  18 10:57:37  -196.702892c -7.20  -4.01c
iter:  19 10:58:44  -196.702341c -7.48c -3.94
iter:  20 10:59:51  -196.702249c -7.57c -4.30c

Converged after 20 iterations.

Dipole moment: (27.949355, 12.605163, -0.010247) |e|*Ang

Energy contributions relative to reference atoms: (reference = -14172735.478951)

Kinetic:       -331.245743
Potential:     +185.005047
External:        +0.000000
XC:             -38.251285
Entropy (-ST):   -2.372128
Local:          -11.024205
--------------------------
Free energy:   -197.888313
Extrapolated:  -196.702249

Showing only first 2 kpts
 Kpt  Band  Eigenvalues  Occupancy
  0   361      0.65832    0.94866
  0   362      0.67180    0.88182
  0   363      0.71597    0.67288
  0   364      0.72744    0.62265

  1   361      0.55360    1.44000
  1   362      0.56274    1.40241
  1   363      0.59665    1.25147
  1   364      0.62983    1.09086


Fermi level: 0.64805

No gap

Forces in eV/Ang:
  0 Pd    0.01042   -0.01276   -0.25948
  1 Pt    0.31057   -0.52075    0.38096
  2 Pt   -0.34432   -0.14998    0.01712
  3 Pd   -0.41210    0.18215   -0.08483
  4 Pd    0.21776   -0.22284   -0.24283
  5 Pt    0.23052    0.31284   -0.19073
  6 Pd   -0.21886    0.22540   -0.10370
  7 Pt    0.55157    0.17217    0.08624
  8 Ru   -0.47649    0.07091    1.34938
  9 Pd   -0.20247    0.19823    0.19089
 10 Pt    0.25923    0.00702   -0.17166
 11 Pd    0.02004    0.05997   -0.02232
 12 Pd    0.07864    0.11347    0.03022
 13 Pt   -0.21104   -0.17294    0.17141
 14 Ag    0.07058   -0.12447    0.06556
 15 Ag   -0.03701   -0.06877   -0.08021
 16 Ag   -0.07514   -0.06130    0.09838
 17 Pt    0.00186    0.18833   -0.54838
 18 Pt    0.08069   -0.15044   -0.07687
 19 Pt    0.03582   -0.06148   -0.03023
 20 Ru    0.02617    0.00120    0.02720
 21 Pt   -0.02606   -0.01231   -0.09978
 22 Pd   -0.06051    0.13674   -0.04609
 23 Pt    0.07954    0.26049   -0.19984
 24 Ag    0.06270   -0.09094    0.02394
 25 Pt    0.03303    0.05715   -0.01592
 26 Ag    0.14575   -0.05746    0.01635
 27 Pt    0.03817   -0.15714    0.03368
 28 Pd    0.00096   -0.30546   -0.10126
 29 Pd   -0.05290   -0.03238    0.11694
 30 Ir   -0.01741   -0.03592   -0.15094
 31 Pt    0.10365    0.04377    0.11457
 32 Pd   -0.14903    0.08571    0.09046
 33 Pd    0.09903    0.10057   -0.13443
 34 Ag   -0.02718   -0.08442    0.07440
 35 Pt   -0.06762    0.04418   -0.14783
 36 Pt    0.01504    0.03935   -0.12746
 37 Pt   -0.03982    0.03272   -0.03105
 38 Pt    0.00926    0.12217   -0.01297
 39 Pt   -0.06323   -0.17282   -0.11116
 40 Pd    0.05832    0.00021   -0.01832
 41 Pd   -0.03272    0.01081   -0.10281
 42 Pt    0.16026    0.07436   -0.08374
 43 Ag    0.00261    0.01515    0.19377
 44 Pt   -0.18721   -0.05973   -0.03126

System changes: positions 

Initializing position-dependent things.

Density initialized from wave functions
                                             
                                             
                                             
                                             
                                             
                 Pt     Ag     Pt            
                                             
            Pt    PPd    APd    Pt           
       Pt    IPt    PPt    Pd                
                                             
        Pt     Pd    APd    Pt     Ag        
                                             
                Pt     Pd     Pt             
           Pt    APt    ARu    Pt            
                                             
            Pd    PPt    PAg    Ru           
       Pd     Pt     Pd                      
             Pd     Pd     Pt                
        Pd     Pt     Pt                     
                                             
                                             
                                             
                                             
                                             

Positions:
   0 Pd     0.000000    1.639149   10.000000    ( 0.0000,  0.0000,  0.0000)
   1 Pt     2.839089    1.639149   10.000000    ( 0.0000,  0.0000,  0.0000)
   2 Pt     5.678177    1.639149   10.000000    ( 0.0000,  0.0000,  0.0000)
   3 Pd     1.419544    4.097872   10.000000    ( 0.0000,  0.0000,  0.0000)
   4 Pd     4.258633    4.097872   10.000000    ( 0.0000,  0.0000,  0.0000)
   5 Pt     7.097722    4.097872   10.000000    ( 0.0000,  0.0000,  0.0000)
   6 Pd     2.839089    6.556595   10.000000    ( 0.0000,  0.0000,  0.0000)
   7 Pt     5.678177    6.556595   10.000000    ( 0.0000,  0.0000,  0.0000)
   8 Ru     8.517266    6.556595   10.000000    ( 0.0000,  0.0000,  0.0000)
   9 Pd     0.000000    0.000000   12.317643    ( 0.0000,  0.0000,  0.0000)
  10 Pt     2.839089    0.000000   12.317643    ( 0.0000,  0.0000,  0.0000)
  11 Pd     5.678177    0.000000   12.317643    ( 0.0000,  0.0000,  0.0000)
  12 Pd     1.419544    2.458723   12.317643    ( 0.0000,  0.0000,  0.0000)
  13 Pt     4.258633    2.458723   12.317643    ( 0.0000,  0.0000,  0.0000)
  14 Ag     7.097722    2.458723   12.317643    ( 0.0000,  0.0000,  0.0000)
  15 Ag     2.839089    4.917446   12.317643    ( 0.0000,  0.0000,  0.0000)
  16 Ag     5.678177    4.917446   12.317643    ( 0.0000,  0.0000,  0.0000)
  17 Pt     8.517266    4.917446   12.317643    ( 0.0000,  0.0000,  0.0000)
  18 Pt     1.378450    0.824754   14.593460    ( 0.0000,  0.0000,  0.0000)
  19 Pt     4.298506    0.823050   14.622727    ( 0.0000,  0.0000,  0.0000)
  20 Ru     7.131631    0.900699   14.691874    ( 0.0000,  0.0000,  0.0000)
  21 Pt     2.831737    3.239398   14.680899    ( 0.0000,  0.0000,  0.0000)
  22 Pd     5.676480    3.239974   14.665342    ( 0.0000,  0.0000,  0.0000)
  23 Pt     8.521141    3.247901   14.669132    ( 0.0000,  0.0000,  0.0000)
  24 Ag     4.257844    5.742748   14.641417    ( 0.0000,  0.0000,  0.0000)
  25 Pt     7.146896    5.758713   14.625386    ( 0.0000,  0.0000,  0.0000)
  26 Ag     9.951826    5.744262   14.643448    ( 0.0000,  0.0000,  0.0000)
  27 Pt    -0.016814    1.659015   16.885108    ( 0.0000,  0.0000,  0.0000)
  28 Pd     2.843509    1.645539   16.937021    ( 0.0000,  0.0000,  0.0000)
  29 Pd     5.683631    1.632154   16.919362    ( 0.0000,  0.0000,  0.0000)
  30 Ir     1.433346    4.069138   16.995752    ( 0.0000,  0.0000,  0.0000)
  31 Pt     4.201624    4.055082   16.956644    ( 0.0000,  0.0000,  0.0000)
  32 Pd     7.104724    4.090482   16.923996    ( 0.0000,  0.0000,  0.0000)
  33 Pd     2.827382    6.565796   16.933198    ( 0.0000,  0.0000,  0.0000)
  34 Ag     5.678271    6.549827   16.955259    ( 0.0000,  0.0000,  0.0000)
  35 Pt     8.528280    6.540276   16.973203    ( 0.0000,  0.0000,  0.0000)
  36 Pt    -0.014443    0.045616   19.264609    ( 0.0000,  0.0000,  0.0000)
  37 Pt     2.859348    0.036908   19.272316    ( 0.0000,  0.0000,  0.0000)
  38 Pt     5.664029   -0.022910   19.246475    ( 0.0000,  0.0000,  0.0000)
  39 Pt     1.405918    2.444043   19.214324    ( 0.0000,  0.0000,  0.0000)
  40 Pd     4.244229    2.431976   19.277040    ( 0.0000,  0.0000,  0.0000)
  41 Pd     7.124380    2.425934   19.270037    ( 0.0000,  0.0000,  0.0000)
  42 Pt     2.786278    4.937209   19.195887    ( 0.0000,  0.0000,  0.0000)
  43 Ag     5.679279    4.919886   19.356845    ( 0.0000,  0.0000,  0.0000)
  44 Pt     8.575599    4.934995   19.216694    ( 0.0000,  0.0000,  0.0000)

Unit cell:
           periodic     x           y           z      points  spacing
  1. axis:    yes    8.517266    0.000000    0.000000    40     0.1844
  2. axis:    yes    4.258633    7.376169    0.000000    40     0.1844
  3. axis:    no     0.000000    0.000000   29.270571   140     0.2091

  Lengths:   8.517266   8.517266  29.270571
  Angles:   90.000000  90.000000  60.000000

Effective grid spacing dv^(1/3) = 0.2017

     iter     time        total  log10-change:
                         energy  eigst   dens
iter:   1 11:01:20  -197.269852  -4.55
iter:   2 11:02:26  -218.937584  -3.18  -2.33
iter:   3 11:03:32  -197.314107  -3.44  -1.58
iter:   4 11:04:39  -196.754227  -4.64  -2.37
iter:   5 11:05:45  -196.762845  -5.54  -3.04
iter:   6 11:06:52  -196.714891c -5.64  -2.88
iter:   7 11:07:59  -196.714789c -6.30  -3.71
iter:   8 11:09:07  -196.712789c -6.52  -3.72
iter:   9 11:10:14  -196.713039c -6.86  -3.85
iter:  10 11:11:22  -196.712623c -6.93  -4.02c
iter:  11 11:12:29  -196.712683c -7.44c -4.16c

Converged after 11 iterations.

Dipole moment: (27.860817, 12.460832, -0.009887) |e|*Ang

Energy contributions relative to reference atoms: (reference = -14172735.478951)

Kinetic:       -331.824113
Potential:     +185.527190
External:        +0.000000
XC:             -38.180920
Entropy (-ST):   -2.370816
Local:          -11.049433
--------------------------
Free energy:   -197.898091
Extrapolated:  -196.712683

Showing only first 2 kpts
 Kpt  Band  Eigenvalues  Occupancy
  0   361      0.65748    0.94938
  0   362      0.67120    0.88127
  0   363      0.71525    0.67295
  0   364      0.72622    0.62490

  1   361      0.55262    1.44114
  1   362      0.56224    1.40156
  1   363      0.59597    1.25137
  1   364      0.62907    1.09115


Fermi level: 0.64735

No gap

Forces in eV/Ang:
  0 Pd    0.00844   -0.01238   -0.26412
  1 Pt    0.30604   -0.51643    0.37408
  2 Pt   -0.33866   -0.14714    0.01442
  3 Pd   -0.41048    0.17645   -0.08897
  4 Pd    0.21690   -0.22273   -0.24633
  5 Pt    0.22835    0.30661   -0.19478
  6 Pd   -0.21454    0.22709   -0.10390
  7 Pt    0.54528    0.17140    0.07902
  8 Ru   -0.47428    0.06922    1.32944
  9 Pd   -0.20410    0.19692    0.18670
 10 Pt    0.25935    0.00904   -0.17662
 11 Pd    0.02174    0.06353   -0.02945
 12 Pd    0.07669    0.11169    0.02934
 13 Pt   -0.20620   -0.17262    0.16504
 14 Ag    0.06729   -0.12402    0.06137
 15 Ag   -0.03449   -0.06877   -0.08328
 16 Ag   -0.07534   -0.06344    0.09536
 17 Pt    0.00188    0.18607   -0.55196
 18 Pt    0.05806   -0.11832   -0.07247
 19 Pt    0.03972   -0.04824   -0.02684
 20 Ru    0.02983    0.02403    0.03715
 21 Pt   -0.01827   -0.02003   -0.07527
 22 Pd   -0.04258    0.09298   -0.02837
 23 Pt    0.06151    0.20094   -0.15028
 24 Ag    0.05862   -0.08201    0.01633
 25 Pt    0.04183    0.05164   -0.01043
 26 Ag    0.12562   -0.04920    0.00803
 27 Pt    0.02595   -0.10843    0.00638
 28 Pd    0.00667   -0.22396   -0.08106
 29 Pd   -0.04017   -0.02059    0.08031
 30 Ir   -0.01381   -0.03923   -0.11769
 31 Pt    0.07254    0.01934    0.09646
 32 Pd   -0.10801    0.05883    0.06099
 33 Pd    0.06751    0.07684   -0.09630
 34 Ag   -0.01920   -0.08507    0.06550
 35 Pt   -0.05310    0.02408   -0.11402
 36 Pt    0.00636    0.04283   -0.11595
 37 Pt   -0.02739    0.03097   -0.02919
 38 Pt    0.00362    0.09555   -0.02162
 39 Pt   -0.05899   -0.15247   -0.11714
 40 Pd    0.04875   -0.00663   -0.01375
 41 Pd   -0.02459    0.00336   -0.08382
 42 Pt    0.11791    0.07775   -0.08443
 43 Ag    0.00116    0.00900    0.18462
 44 Pt   -0.14301   -0.04282   -0.04206

System changes: positions 

Initializing position-dependent things.

Density initialized from wave functions
                                             
                                             
                                             
                                             
                                             
                 Pt     Ag     Pt            
                                             
            Pt    PPd    APd    Pt           
       Pt    IPt    PPt    Pd                
                                             
        Pt     Pd    APd    Pt     Ag        
                                             
                Pt     Pd     Pt             
           Pt    APt    ARu    Pt            
                                             
            Pd    PPt    PAg    Ru           
                                             
       Pd    PPt    PPd    Pt                
        Pd     Pt     Pt                     
                                             
                                             
                                             
                                             
                                             

Positions:
   0 Pd     0.000000    1.639149   10.000000    ( 0.0000,  0.0000,  0.0000)
   1 Pt     2.839089    1.639149   10.000000    ( 0.0000,  0.0000,  0.0000)
   2 Pt     5.678177    1.639149   10.000000    ( 0.0000,  0.0000,  0.0000)
   3 Pd     1.419544    4.097872   10.000000    ( 0.0000,  0.0000,  0.0000)
   4 Pd     4.258633    4.097872   10.000000    ( 0.0000,  0.0000,  0.0000)
   5 Pt     7.097722    4.097872   10.000000    ( 0.0000,  0.0000,  0.0000)
   6 Pd     2.839089    6.556595   10.000000    ( 0.0000,  0.0000,  0.0000)
   7 Pt     5.678177    6.556595   10.000000    ( 0.0000,  0.0000,  0.0000)
   8 Ru     8.517266    6.556595   10.000000    ( 0.0000,  0.0000,  0.0000)
   9 Pd     0.000000    0.000000   12.317643    ( 0.0000,  0.0000,  0.0000)
  10 Pt     2.839089    0.000000   12.317643    ( 0.0000,  0.0000,  0.0000)
  11 Pd     5.678177    0.000000   12.317643    ( 0.0000,  0.0000,  0.0000)
  12 Pd     1.419544    2.458723   12.317643    ( 0.0000,  0.0000,  0.0000)
  13 Pt     4.258633    2.458723   12.317643    ( 0.0000,  0.0000,  0.0000)
  14 Ag     7.097722    2.458723   12.317643    ( 0.0000,  0.0000,  0.0000)
  15 Ag     2.839089    4.917446   12.317643    ( 0.0000,  0.0000,  0.0000)
  16 Ag     5.678177    4.917446   12.317643    ( 0.0000,  0.0000,  0.0000)
  17 Pt     8.517266    4.917446   12.317643    ( 0.0000,  0.0000,  0.0000)
  18 Pt     1.379526    0.814379   14.582817    ( 0.0000,  0.0000,  0.0000)
  19 Pt     4.306068    0.818978   14.619005    ( 0.0000,  0.0000,  0.0000)
  20 Ru     7.137760    0.910683   14.700776    ( 0.0000,  0.0000,  0.0000)
  21 Pt     2.829245    3.233778   14.678562    ( 0.0000,  0.0000,  0.0000)
  22 Pd     5.672273    3.244787   14.665665    ( 0.0000,  0.0000,  0.0000)
  23 Pt     8.527204    3.263290   14.658476    ( 0.0000,  0.0000,  0.0000)
  24 Ag     4.262961    5.736014   14.643665    ( 0.0000,  0.0000,  0.0000)
  25 Pt     7.155393    5.765580   14.623236    ( 0.0000,  0.0000,  0.0000)
  26 Ag     9.964764    5.740530   14.645189    ( 0.0000,  0.0000,  0.0000)
  27 Pt    -0.016045    1.650563   16.878994    ( 0.0000,  0.0000,  0.0000)
  28 Pd     2.844353    1.625145   16.927833    ( 0.0000,  0.0000,  0.0000)
  29 Pd     5.680524    1.629302   16.923406    ( 0.0000,  0.0000,  0.0000)
  30 Ir     1.433565    4.062865   16.989188    ( 0.0000,  0.0000,  0.0000)
  31 Pt     4.202475    4.052813   16.965794    ( 0.0000,  0.0000,  0.0000)
  32 Pd     7.095399    4.095232   16.926880    ( 0.0000,  0.0000,  0.0000)
  33 Pd     2.832608    6.573986   16.921850    ( 0.0000,  0.0000,  0.0000)
  34 Ag     5.676363    6.541870   16.961345    ( 0.0000,  0.0000,  0.0000)
  35 Pt     8.524656    6.541136   16.964648    ( 0.0000,  0.0000,  0.0000)
  36 Pt    -0.015218    0.053975   19.253853    ( 0.0000,  0.0000,  0.0000)
  37 Pt     2.858887    0.043454   19.270102    ( 0.0000,  0.0000,  0.0000)
  38 Pt     5.662938   -0.016544   19.242452    ( 0.0000,  0.0000,  0.0000)
  39 Pt     1.399326    2.428917   19.198571    ( 0.0000,  0.0000,  0.0000)
  40 Pd     4.247009    2.428672   19.276436    ( 0.0000,  0.0000,  0.0000)
  41 Pd     7.124950    2.422903   19.262335    ( 0.0000,  0.0000,  0.0000)
  42 Pt     2.791812    4.945886   19.180937    ( 0.0000,  0.0000,  0.0000)
  43 Ag     5.679523    4.921128   19.381928    ( 0.0000,  0.0000,  0.0000)
  44 Pt     8.568385    4.932749   19.207867    ( 0.0000,  0.0000,  0.0000)

Unit cell:
           periodic     x           y           z      points  spacing
  1. axis:    yes    8.517266    0.000000    0.000000    40     0.1844
  2. axis:    yes    4.258633    7.376169    0.000000    40     0.1844
  3. axis:    no     0.000000    0.000000   29.270571   140     0.2091

  Lengths:   8.517266   8.517266  29.270571
  Angles:   90.000000  90.000000  60.000000

Effective grid spacing dv^(1/3) = 0.2017

     iter     time        total  log10-change:
                         energy  eigst   dens
iter:   1 11:13:58  -199.375909  -3.32
iter:   2 11:15:07  -264.515499  -2.54  -2.03
iter:   3 11:16:13  -199.815645  -2.90  -1.36
iter:   4 11:17:15  -197.009945  -3.99  -2.03
iter:   5 11:18:17  -196.895412  -4.83  -2.54
iter:   6 11:19:19  -196.776147c -4.95  -2.63
iter:   7 11:20:22  -196.765570c -5.60  -2.97
iter:   8 11:21:24  -196.753133c -5.74  -3.17
iter:   9 11:22:25  -196.752905c -6.15  -3.31
iter:  10 11:23:28  -196.750958c -6.00  -3.44
iter:  11 11:24:30  -196.751590c -6.32  -3.61
iter:  12 11:25:33  -196.750764c -6.79  -3.55
iter:  13 11:26:35  -196.751015c -6.77  -3.73
iter:  14 11:27:38  -196.750212c -6.89  -3.88
iter:  15 11:28:41  -196.750760c -7.07  -3.78
iter:  16 11:29:44  -196.750168c -7.31  -3.97
iter:  17 11:30:46  -196.750122c -7.46c -4.21c

Converged after 17 iterations.

Dipole moment: (27.816627, 11.417186, -0.007933) |e|*Ang

Energy contributions relative to reference atoms: (reference = -14172735.478951)

Kinetic:       -330.710008
Potential:     +184.565087
External:        +0.000000
XC:             -38.385487
Entropy (-ST):   -2.365037
Local:          -11.037196
--------------------------
Free energy:   -197.932640
Extrapolated:  -196.750122

Showing only first 2 kpts
 Kpt  Band  Eigenvalues  Occupancy
  0   361      0.65921    0.95023
  0   362      0.67454    0.87423
  0   363      0.71740    0.67186
  0   364      0.72696    0.62991

  1   361      0.55282    1.44799
  1   362      0.56476    1.39901
  1   363      0.59883    1.24689
  1   364      0.62969    1.09750


Fermi level: 0.64925

No gap

Forces in eV/Ang:
  0 Pd    0.01123   -0.01050   -0.25799
  1 Pt    0.30899   -0.52147    0.38640
  2 Pt   -0.34359   -0.15007    0.01869
  3 Pd   -0.41226    0.18074   -0.07918
  4 Pd    0.21735   -0.22338   -0.24021
  5 Pt    0.22963    0.31433   -0.19035
  6 Pd   -0.21905    0.22775   -0.09510
  7 Pt    0.55429    0.17008    0.08643
  8 Ru   -0.48429    0.06756    1.34631
  9 Pd   -0.23204    0.18097    0.18360
 10 Pt    0.28051    0.01098   -0.21897
 11 Pd    0.03498    0.04722   -0.03342
 12 Pd    0.08442    0.10992    0.00301
 13 Pt   -0.20611   -0.17500    0.16767
 14 Ag    0.05771   -0.13645    0.07264
 15 Ag   -0.02853   -0.06149   -0.09110
 16 Ag   -0.07368   -0.05947    0.09009
 17 Pt    0.02364    0.21486   -0.57338
 18 Pt    0.03466   -0.03524    0.01421
 19 Pt    0.05212    0.00232   -0.02821
 20 Ru    0.00994   -0.03208   -0.06159
 21 Pt    0.03245   -0.02681   -0.03829
 22 Pd   -0.00568    0.07478   -0.00956
 23 Pt    0.00465    0.07495   -0.02799
 24 Ag    0.05369   -0.07232    0.00743
 25 Pt   -0.00544   -0.00271    0.00258
 26 Ag    0.10849    0.00709   -0.02208
 27 Pt    0.05397    0.03641   -0.11209
 28 Pd    0.00659   -0.13201   -0.12198
 29 Pd   -0.03312    0.02952    0.03191
 30 Ir   -0.00637   -0.01703   -0.06973
 31 Pt    0.05847   -0.00453    0.03886
 32 Pd   -0.08065   -0.00153    0.02141
 33 Pd    0.02301    0.02024   -0.07560
 34 Ag   -0.01320   -0.10348    0.04570
 35 Pt    0.00914   -0.03239   -0.06699
 36 Pt    0.00179   -0.09026   -0.05254
 37 Pt   -0.02223   -0.06024   -0.02826
 38 Pt   -0.01517   -0.00702   -0.03418
 39 Pt    0.00840    0.00850   -0.08543
 40 Pd    0.01580    0.05652   -0.02765
 41 Pd   -0.06032    0.07742   -0.07153
 42 Pt    0.02828    0.03833   -0.05837
 43 Ag   -0.00194    0.02875    0.13312
 44 Pt   -0.05328   -0.01950   -0.06376

System changes: positions 

Initializing position-dependent things.

Density initialized from wave functions
                                             
                                             
                                             
                                             
                                             
                 Pt     Ag     Pt            
                                             
            Pt    PPd    APd    Pt           
       Pt    IPt    PPt    Pd                
                                             
        Pt     Pd    APd    Pt     Ag        
                                             
                Pt     Pd     Pt             
           Pt    APt    ARu    Pt            
                                             
            Pd    PPt    PAg    Ru           
                                             
       Pd    PPt    PPd    Pt                
        Pd     Pt     Pt                     
                                             
                                             
                                             
                                             
                                             

Positions:
   0 Pd     0.000000    1.639149   10.000000    ( 0.0000,  0.0000,  0.0000)
   1 Pt     2.839089    1.639149   10.000000    ( 0.0000,  0.0000,  0.0000)
   2 Pt     5.678177    1.639149   10.000000    ( 0.0000,  0.0000,  0.0000)
   3 Pd     1.419544    4.097872   10.000000    ( 0.0000,  0.0000,  0.0000)
   4 Pd     4.258633    4.097872   10.000000    ( 0.0000,  0.0000,  0.0000)
   5 Pt     7.097722    4.097872   10.000000    ( 0.0000,  0.0000,  0.0000)
   6 Pd     2.839089    6.556595   10.000000    ( 0.0000,  0.0000,  0.0000)
   7 Pt     5.678177    6.556595   10.000000    ( 0.0000,  0.0000,  0.0000)
   8 Ru     8.517266    6.556595   10.000000    ( 0.0000,  0.0000,  0.0000)
   9 Pd     0.000000    0.000000   12.317643    ( 0.0000,  0.0000,  0.0000)
  10 Pt     2.839089    0.000000   12.317643    ( 0.0000,  0.0000,  0.0000)
  11 Pd     5.678177    0.000000   12.317643    ( 0.0000,  0.0000,  0.0000)
  12 Pd     1.419544    2.458723   12.317643    ( 0.0000,  0.0000,  0.0000)
  13 Pt     4.258633    2.458723   12.317643    ( 0.0000,  0.0000,  0.0000)
  14 Ag     7.097722    2.458723   12.317643    ( 0.0000,  0.0000,  0.0000)
  15 Ag     2.839089    4.917446   12.317643    ( 0.0000,  0.0000,  0.0000)
  16 Ag     5.678177    4.917446   12.317643    ( 0.0000,  0.0000,  0.0000)
  17 Pt     8.517266    4.917446   12.317643    ( 0.0000,  0.0000,  0.0000)
  18 Pt     1.380801    0.805188   14.574181    ( 0.0000,  0.0000,  0.0000)
  19 Pt     4.313930    0.815805   14.615144    ( 0.0000,  0.0000,  0.0000)
  20 Ru     7.143324    0.918753   14.706961    ( 0.0000,  0.0000,  0.0000)
  21 Pt     2.827983    3.228145   14.676217    ( 0.0000,  0.0000,  0.0000)
  22 Pd     5.668708    3.250166   14.666008    ( 0.0000,  0.0000,  0.0000)
  23 Pt     8.532246    3.277243   14.649544    ( 0.0000,  0.0000,  0.0000)
  24 Ag     4.268421    5.728837   14.645752    ( 0.0000,  0.0000,  0.0000)
  25 Pt     7.162602    5.771267   14.621435    ( 0.0000,  0.0000,  0.0000)
  26 Ag     9.978113    5.737806   14.646138    ( 0.0000,  0.0000,  0.0000)
  27 Pt    -0.014218    1.644866   16.870439    ( 0.0000,  0.0000,  0.0000)
  28 Pd     2.845223    1.605358   16.917105    ( 0.0000,  0.0000,  0.0000)
  29 Pd     5.677240    1.627655   16.927106    ( 0.0000,  0.0000,  0.0000)
  30 Ir     1.433747    4.057088   16.982598    ( 0.0000,  0.0000,  0.0000)
  31 Pt     4.204007    4.050421   16.974180    ( 0.0000,  0.0000,  0.0000)
  32 Pd     7.085887    4.098941   16.929446    ( 0.0000,  0.0000,  0.0000)
  33 Pd     2.837297    6.581224   16.910486    ( 0.0000,  0.0000,  0.0000)
  34 Ag     5.674470    6.532806   16.967416    ( 0.0000,  0.0000,  0.0000)
  35 Pt     8.522122    6.540847   16.956262    ( 0.0000,  0.0000,  0.0000)
  36 Pt    -0.015947    0.058866   19.243855    ( 0.0000,  0.0000,  0.0000)
  37 Pt     2.858176    0.047583   19.267652    ( 0.0000,  0.0000,  0.0000)
  38 Pt     5.661509   -0.011883   19.238114    ( 0.0000,  0.0000,  0.0000)
  39 Pt     1.394116    2.416862   19.183160    ( 0.0000,  0.0000,  0.0000)
  40 Pd     4.249454    2.427168   19.275314    ( 0.0000,  0.0000,  0.0000)
  41 Pd     7.124177    2.422083   19.254302    ( 0.0000,  0.0000,  0.0000)
  42 Pt     2.796389    4.954009   19.166608    ( 0.0000,  0.0000,  0.0000)
  43 Ag     5.679686    4.922918   19.406425    ( 0.0000,  0.0000,  0.0000)
  44 Pt     8.561887    4.930630   19.198576    ( 0.0000,  0.0000,  0.0000)

Unit cell:
           periodic     x           y           z      points  spacing
  1. axis:    yes    8.517266    0.000000    0.000000    40     0.1844
  2. axis:    yes    4.258633    7.376169    0.000000    40     0.1844
  3. axis:    no     0.000000    0.000000   29.270571   140     0.2091

  Lengths:   8.517266   8.517266  29.270571
  Angles:   90.000000  90.000000  60.000000

Effective grid spacing dv^(1/3) = 0.2017

     iter     time        total  log10-change:
                         energy  eigst   dens
iter:   1 11:32:09  -197.840560  -3.42
iter:   2 11:33:11  -230.931626  -2.91  -2.21
iter:   3 11:34:13  -197.558994  -3.21  -1.50
iter:   4 11:35:15  -196.833116  -4.44  -2.30
iter:   5 11:36:17  -196.874540  -5.13  -2.85
iter:   6 11:37:19  -196.779595c -5.23  -2.68
iter:   7 11:38:20  -196.774704c -5.93  -3.12
iter:   8 11:39:22  -196.769226c -6.07  -3.29
iter:   9 11:40:24  -196.768528c -6.17  -3.41
iter:  10 11:41:26  -196.767263c -6.23  -3.61
iter:  11 11:42:28  -196.767691c -6.71  -3.77
iter:  12 11:43:29  -196.767935c -6.94  -3.71
iter:  13 11:44:31  -196.767443c -6.87  -3.62
iter:  14 11:45:33  -196.766569c -7.16  -3.99
iter:  15 11:46:34  -196.767109c -7.18  -3.98
iter:  16 11:47:36  -196.766893c -7.47c -4.09c

Converged after 16 iterations.

Dipole moment: (27.908375, 10.674917, -0.007067) |e|*Ang

Energy contributions relative to reference atoms: (reference = -14172735.478951)

Kinetic:       -329.482593
Potential:     +183.527702
External:        +0.000000
XC:             -38.596158
Entropy (-ST):   -2.358159
Local:          -11.036764
--------------------------
Free energy:   -197.945972
Extrapolated:  -196.766893

Showing only first 2 kpts
 Kpt  Band  Eigenvalues  Occupancy
  0   361      0.65997    0.95328
  0   362      0.67688    0.86942
  0   363      0.71837    0.67361
  0   364      0.72699    0.63567

  1   361      0.55287    1.45319
  1   362      0.56658    1.39708
  1   363      0.60105    1.24288
  1   364      0.62997    1.10284


Fermi level: 0.65061

No gap

Forces in eV/Ang:
  0 Pd    0.01035   -0.00982   -0.25518
  1 Pt    0.30818   -0.52242    0.38936
  2 Pt   -0.34207   -0.14891    0.02110
  3 Pd   -0.41242    0.18146   -0.07657
  4 Pd    0.21869   -0.22276   -0.23825
  5 Pt    0.22766    0.31604   -0.18674
  6 Pd   -0.21837    0.22959   -0.09129
  7 Pt    0.55480    0.16635    0.08762
  8 Ru   -0.48976    0.06485    1.34766
  9 Pd   -0.24990    0.17136    0.17598
 10 Pt    0.29467    0.01143   -0.24921
 11 Pd    0.04611    0.04087   -0.05150
 12 Pd    0.08308    0.10380   -0.01198
 13 Pt   -0.19709   -0.17485    0.16542
 14 Ag    0.04988   -0.14106    0.08026
 15 Ag   -0.01733   -0.05949   -0.10013
 16 Ag   -0.06847   -0.05895    0.08527
 17 Pt    0.03203    0.23276   -0.58944
 18 Pt    0.01379    0.03679    0.06873
 19 Pt    0.05480    0.04461   -0.01719
 20 Ru   -0.01417   -0.05919   -0.13366
 21 Pt    0.06981   -0.03221   -0.00123
 22 Pd    0.03868    0.02266    0.00730
 23 Pt   -0.05031   -0.03863    0.06012
 24 Ag    0.04864   -0.05210   -0.00754
 25 Pt   -0.03118   -0.04506    0.00767
 26 Ag    0.06519    0.04536   -0.04631
 27 Pt    0.05654    0.14630   -0.14570
 28 Pd    0.01710   -0.00543   -0.10934
 29 Pd   -0.01335    0.05869   -0.02304
 30 Ir    0.00901    0.00273   -0.02338
 31 Pt    0.01647   -0.05082   -0.01906
 32 Pd   -0.02440   -0.07002   -0.02128
 33 Pd   -0.03220   -0.02281   -0.02084
 34 Ag   -0.00800   -0.09547    0.01848
 35 Pt    0.07425   -0.07336   -0.01635
 36 Pt   -0.02523   -0.14577    0.01248
 37 Pt    0.00294   -0.09570   -0.00987
 38 Pt   -0.02865   -0.08048   -0.04160
 39 Pt    0.05670    0.11493   -0.05182
 40 Pd   -0.02869    0.07408   -0.03150
 41 Pd   -0.05914    0.09822   -0.04650
 42 Pt   -0.06480    0.01460   -0.01576
 43 Ag   -0.00582    0.03093    0.09147
 44 Pt    0.03862    0.00136   -0.05949

System changes: positions 

Initializing position-dependent things.

Density initialized from wave functions
                                             
                                             
                                             
                                             
                                             
                 Pt     Ag     Pt            
                                             
            Pt    PPd    APd    Pt           
       Pt    IPt    PPt    Pd                
                                             
        Pt     Pd    APd    Pt     Ag        
                                             
                Pt     Pd     Pt             
           Pt    APt    ARu    Pt            
                                             
            Pd    PPt    PAg    Ru           
                                             
       Pd    PPt    PPd    Pt                
        Pd     Pt     Pt                     
                                             
                                             
                                             
                                             
                                             

Positions:
   0 Pd     0.000000    1.639149   10.000000    ( 0.0000,  0.0000,  0.0000)
   1 Pt     2.839089    1.639149   10.000000    ( 0.0000,  0.0000,  0.0000)
   2 Pt     5.678177    1.639149   10.000000    ( 0.0000,  0.0000,  0.0000)
   3 Pd     1.419544    4.097872   10.000000    ( 0.0000,  0.0000,  0.0000)
   4 Pd     4.258633    4.097872   10.000000    ( 0.0000,  0.0000,  0.0000)
   5 Pt     7.097722    4.097872   10.000000    ( 0.0000,  0.0000,  0.0000)
   6 Pd     2.839089    6.556595   10.000000    ( 0.0000,  0.0000,  0.0000)
   7 Pt     5.678177    6.556595   10.000000    ( 0.0000,  0.0000,  0.0000)
   8 Ru     8.517266    6.556595   10.000000    ( 0.0000,  0.0000,  0.0000)
   9 Pd     0.000000    0.000000   12.317643    ( 0.0000,  0.0000,  0.0000)
  10 Pt     2.839089    0.000000   12.317643    ( 0.0000,  0.0000,  0.0000)
  11 Pd     5.678177    0.000000   12.317643    ( 0.0000,  0.0000,  0.0000)
  12 Pd     1.419544    2.458723   12.317643    ( 0.0000,  0.0000,  0.0000)
  13 Pt     4.258633    2.458723   12.317643    ( 0.0000,  0.0000,  0.0000)
  14 Ag     7.097722    2.458723   12.317643    ( 0.0000,  0.0000,  0.0000)
  15 Ag     2.839089    4.917446   12.317643    ( 0.0000,  0.0000,  0.0000)
  16 Ag     5.678177    4.917446   12.317643    ( 0.0000,  0.0000,  0.0000)
  17 Pt     8.517266    4.917446   12.317643    ( 0.0000,  0.0000,  0.0000)
  18 Pt     1.380928    0.804595   14.573851    ( 0.0000,  0.0000,  0.0000)
  19 Pt     4.315912    0.816068   14.614352    ( 0.0000,  0.0000,  0.0000)
  20 Ru     7.143996    0.919362   14.706125    ( 0.0000,  0.0000,  0.0000)
  21 Pt     2.828777    3.226766   14.676179    ( 0.0000,  0.0000,  0.0000)
  22 Pd     5.668802    3.250956   14.666320    ( 0.0000,  0.0000,  0.0000)
  23 Pt     8.532177    3.278259   14.649476    ( 0.0000,  0.0000,  0.0000)
  24 Ag     4.269778    5.727253   14.645943    ( 0.0000,  0.0000,  0.0000)
  25 Pt     7.163325    5.771448   14.621256    ( 0.0000,  0.0000,  0.0000)
  26 Ag     9.980774    5.738167   14.645652    ( 0.0000,  0.0000,  0.0000)
  27 Pt    -0.013281    1.646339   16.866939    ( 0.0000,  0.0000,  0.0000)
  28 Pd     2.845599    1.602821   16.914117    ( 0.0000,  0.0000,  0.0000)
  29 Pd     5.676670    1.628237   16.927060    ( 0.0000,  0.0000,  0.0000)
  30 Ir     1.433987    4.056256   16.981701    ( 0.0000,  0.0000,  0.0000)
  31 Pt     4.204105    4.049155   16.974962    ( 0.0000,  0.0000,  0.0000)
  32 Pd     7.084372    4.098371   16.929308    ( 0.0000,  0.0000,  0.0000)
  33 Pd     2.837370    6.581864   16.908643    ( 0.0000,  0.0000,  0.0000)
  34 Ag     5.674115    6.530305   16.968437    ( 0.0000,  0.0000,  0.0000)
  35 Pt     8.522941    6.539684   16.955101    ( 0.0000,  0.0000,  0.0000)
  36 Pt    -0.016487    0.057658   19.242781    ( 0.0000,  0.0000,  0.0000)
  37 Pt     2.858250    0.046955   19.267228    ( 0.0000,  0.0000,  0.0000)
  38 Pt     5.660843   -0.012586   19.236849    ( 0.0000,  0.0000,  0.0000)
  39 Pt     1.394212    2.416939   19.180212    ( 0.0000,  0.0000,  0.0000)
  40 Pd     4.249251    2.427885   19.274761    ( 0.0000,  0.0000,  0.0000)
  41 Pd     7.123400    2.423189   19.252635    ( 0.0000,  0.0000,  0.0000)
  42 Pt     2.795722    4.955317   19.164182    ( 0.0000,  0.0000,  0.0000)
  43 Ag     5.679630    4.923599   19.411259    ( 0.0000,  0.0000,  0.0000)
  44 Pt     8.561980    4.930482   19.196273    ( 0.0000,  0.0000,  0.0000)

Unit cell:
           periodic     x           y           z      points  spacing
  1. axis:    yes    8.517266    0.000000    0.000000    40     0.1844
  2. axis:    yes    4.258633    7.376169    0.000000    40     0.1844
  3. axis:    no     0.000000    0.000000   29.270571   140     0.2091

  Lengths:   8.517266   8.517266  29.270571
  Angles:   90.000000  90.000000  60.000000

Effective grid spacing dv^(1/3) = 0.2017

     iter     time        total  log10-change:
                         energy  eigst   dens
iter:   1 11:49:01  -196.910065  -4.83
iter:   2 11:50:09  -203.473694  -3.77  -2.63
iter:   3 11:51:16  -196.826382  -3.98  -1.81
iter:   4 11:52:24  -196.777853  -5.45  -2.95
iter:   5 11:53:32  -196.778600c -6.25  -3.63
iter:   6 11:54:39  -196.772157c -6.44  -3.38
iter:   7 11:55:48  -196.772189c -6.99  -3.99
iter:   8 11:56:56  -196.771283c -7.19  -4.02c
iter:   9 11:58:05  -196.771389c -7.46c -4.17c

Converged after 9 iterations.

Dipole moment: (28.083222, 10.744874, -0.008907) |e|*Ang

Energy contributions relative to reference atoms: (reference = -14172735.478951)

Kinetic:       -330.602326
Potential:     +184.589838
External:        +0.000000
XC:             -38.541448
Entropy (-ST):   -2.355953
Local:          -11.039477
--------------------------
Free energy:   -197.949366
Extrapolated:  -196.771389

Showing only first 2 kpts
 Kpt  Band  Eigenvalues  Occupancy
  0   361      0.65958    0.95486
  0   362      0.67702    0.86840
  0   363      0.71806    0.67472
  0   364      0.72678    0.63631

  1   361      0.55305    1.45221
  1   362      0.56639    1.39760
  1   363      0.60101    1.24273
  1   364      0.62965    1.10410


Fermi level: 0.65055

No gap

Forces in eV/Ang:
  0 Pd    0.00980   -0.01137   -0.25634
  1 Pt    0.30415   -0.51848    0.38492
  2 Pt   -0.33888   -0.14588    0.02067
  3 Pd   -0.41094    0.17829   -0.08000
  4 Pd    0.21821   -0.22324   -0.23933
  5 Pt    0.22599    0.31093   -0.18915
  6 Pd   -0.21422    0.23167   -0.09373
  7 Pt    0.54755    0.16758    0.08307
  8 Ru   -0.48750    0.06414    1.34450
  9 Pd   -0.23118    0.16552    0.17935
 10 Pt    0.28394    0.01366   -0.22657
 11 Pd    0.03797    0.04290   -0.05397
 12 Pd    0.07936    0.10772   -0.00418
 13 Pt   -0.19693   -0.16915    0.17241
 14 Ag    0.05278   -0.12891    0.08346
 15 Ag   -0.01299   -0.06978   -0.09285
 16 Ag   -0.06793   -0.05664    0.09484
 17 Pt    0.03235    0.21949   -0.56377
 18 Pt    0.01595    0.00543    0.06062
 19 Pt    0.03900    0.02224    0.00231
 20 Ru   -0.02885   -0.06381   -0.09919
 21 Pt    0.05158   -0.00734   -0.01736
 22 Pd    0.03730   -0.00098    0.00539
 23 Pt   -0.03635   -0.01470    0.03563
 24 Ag    0.05325   -0.02837   -0.01122
 25 Pt   -0.02300   -0.02356    0.01693
 26 Ag    0.02338    0.02824   -0.04872
 27 Pt    0.04591    0.09949   -0.07658
 28 Pd    0.00958    0.02631   -0.03445
 29 Pd   -0.00077    0.02923   -0.02852
 30 Ir    0.00789   -0.01248   -0.05068
 31 Pt    0.01554   -0.04669   -0.01360
 32 Pd   -0.00116   -0.05328   -0.01426
 33 Pd   -0.01734   -0.00191    0.02039
 34 Ag   -0.01137   -0.06985    0.00550
 35 Pt    0.05792   -0.04930   -0.03680
 36 Pt   -0.02056   -0.10744    0.01050
 37 Pt   -0.00652   -0.06981    0.00565
 38 Pt   -0.01641   -0.03294   -0.03353
 39 Pt    0.03631    0.02966   -0.06297
 40 Pd    0.00036    0.03920   -0.02306
 41 Pd   -0.05538    0.06987   -0.01280
 42 Pt   -0.00782    0.04993   -0.00349
 43 Ag   -0.00587    0.01621    0.08518
 44 Pt   -0.01920    0.00045   -0.02358

System changes: positions 

Initializing position-dependent things.

Density initialized from wave functions
                                             
                                             
                                             
                                             
                                             
                 Pt     Ag     Pt            
                                             
            Pt    PPd    APd    Pt           
       Pt    IPt    PPt    Pd                
                                             
        Pt     Pd    APd    Pt     Ag        
                                             
                Pt     Pd     Pt             
           Pt    APt    ARu    Pt            
                                             
            Pd    PPt    PAg    Ru           
                                             
       Pd    PPt    PPd    Pt                
        Pd     Pt     Pt                     
                                             
                                             
                                             
                                             
                                             

Positions:
   0 Pd     0.000000    1.639149   10.000000    ( 0.0000,  0.0000,  0.0000)
   1 Pt     2.839089    1.639149   10.000000    ( 0.0000,  0.0000,  0.0000)
   2 Pt     5.678177    1.639149   10.000000    ( 0.0000,  0.0000,  0.0000)
   3 Pd     1.419544    4.097872   10.000000    ( 0.0000,  0.0000,  0.0000)
   4 Pd     4.258633    4.097872   10.000000    ( 0.0000,  0.0000,  0.0000)
   5 Pt     7.097722    4.097872   10.000000    ( 0.0000,  0.0000,  0.0000)
   6 Pd     2.839089    6.556595   10.000000    ( 0.0000,  0.0000,  0.0000)
   7 Pt     5.678177    6.556595   10.000000    ( 0.0000,  0.0000,  0.0000)
   8 Ru     8.517266    6.556595   10.000000    ( 0.0000,  0.0000,  0.0000)
   9 Pd     0.000000    0.000000   12.317643    ( 0.0000,  0.0000,  0.0000)
  10 Pt     2.839089    0.000000   12.317643    ( 0.0000,  0.0000,  0.0000)
  11 Pd     5.678177    0.000000   12.317643    ( 0.0000,  0.0000,  0.0000)
  12 Pd     1.419544    2.458723   12.317643    ( 0.0000,  0.0000,  0.0000)
  13 Pt     4.258633    2.458723   12.317643    ( 0.0000,  0.0000,  0.0000)
  14 Ag     7.097722    2.458723   12.317643    ( 0.0000,  0.0000,  0.0000)
  15 Ag     2.839089    4.917446   12.317643    ( 0.0000,  0.0000,  0.0000)
  16 Ag     5.678177    4.917446   12.317643    ( 0.0000,  0.0000,  0.0000)
  17 Pt     8.517266    4.917446   12.317643    ( 0.0000,  0.0000,  0.0000)
  18 Pt     1.382601    0.802015   14.574458    ( 0.0000,  0.0000,  0.0000)
  19 Pt     4.320375    0.816336   14.613039    ( 0.0000,  0.0000,  0.0000)
  20 Ru     7.144265    0.918131   14.702206    ( 0.0000,  0.0000,  0.0000)
  21 Pt     2.831254    3.224549   14.674209    ( 0.0000,  0.0000,  0.0000)
  22 Pd     5.669505    3.253449   14.666412    ( 0.0000,  0.0000,  0.0000)
  23 Pt     8.531860    3.282380   14.648110    ( 0.0000,  0.0000,  0.0000)
  24 Ag     4.274318    5.722991   14.646070    ( 0.0000,  0.0000,  0.0000)
  25 Pt     7.164045    5.771726   14.621475    ( 0.0000,  0.0000,  0.0000)
  26 Ag     9.986908    5.738787   14.643456    ( 0.0000,  0.0000,  0.0000)
  27 Pt    -0.010030    1.649760   16.860047    ( 0.0000,  0.0000,  0.0000)
  28 Pd     2.846447    1.596866   16.907942    ( 0.0000,  0.0000,  0.0000)
  29 Pd     5.675289    1.629573   16.927321    ( 0.0000,  0.0000,  0.0000)
  30 Ir     1.434330    4.054121   16.976739    ( 0.0000,  0.0000,  0.0000)
  31 Pt     4.206017    4.046333   16.977057    ( 0.0000,  0.0000,  0.0000)
  32 Pd     7.080668    4.096815   16.929692    ( 0.0000,  0.0000,  0.0000)
  33 Pd     2.838049    6.583929   16.905471    ( 0.0000,  0.0000,  0.0000)
  34 Ag     5.672922    6.523405   16.970942    ( 0.0000,  0.0000,  0.0000)
  35 Pt     8.525101    6.536969   16.950374    ( 0.0000,  0.0000,  0.0000)
  36 Pt    -0.017716    0.053004   19.239954    ( 0.0000,  0.0000,  0.0000)
  37 Pt     2.857597    0.044181   19.266473    ( 0.0000,  0.0000,  0.0000)
  38 Pt     5.659519   -0.012970   19.233800    ( 0.0000,  0.0000,  0.0000)
  39 Pt     1.394642    2.415452   19.172426    ( 0.0000,  0.0000,  0.0000)
  40 Pd     4.249890    2.430035   19.273035    ( 0.0000,  0.0000,  0.0000)
  41 Pd     7.120027    2.427105   19.248801    ( 0.0000,  0.0000,  0.0000)
  42 Pt     2.796750    4.960022   19.159701    ( 0.0000,  0.0000,  0.0000)
  43 Ag     5.679377    4.925181   19.423236    ( 0.0000,  0.0000,  0.0000)
  44 Pt     8.558870    4.929592   19.192007    ( 0.0000,  0.0000,  0.0000)

Unit cell:
           periodic     x           y           z      points  spacing
  1. axis:    yes    8.517266    0.000000    0.000000    40     0.1844
  2. axis:    yes    4.258633    7.376169    0.000000    40     0.1844
  3. axis:    no     0.000000    0.000000   29.270571   140     0.2091

  Lengths:   8.517266   8.517266  29.270571
  Angles:   90.000000  90.000000  60.000000

Effective grid spacing dv^(1/3) = 0.2017

     iter     time        total  log10-change:
                         energy  eigst   dens
iter:   1 11:59:36  -198.090519  -4.02
iter:   2 12:00:45  -237.435458  -2.81  -2.14
iter:   3 12:01:54  -198.948626  -3.12  -1.48
iter:   4 12:03:03  -196.962407  -4.14  -2.10
iter:   5 12:04:11  -196.797446  -5.04  -2.59
iter:   6 12:05:21  -196.785638c -5.54  -3.20
iter:   7 12:06:31  -196.784347c -5.95  -3.41
iter:   8 12:07:40  -196.780350c -6.13  -3.47
iter:   9 12:08:48  -196.780796c -6.54  -3.73
iter:  10 12:09:57  -196.779860c -6.70  -3.66
iter:  11 12:11:05  -196.779382c -6.77  -3.92
iter:  12 12:12:13  -196.779469c -7.26  -3.97
iter:  13 12:13:21  -196.779068c -7.32  -4.13c
iter:  14 12:14:29  -196.779047c -7.52c -4.22c

Converged after 14 iterations.

Dipole moment: (28.391478, 10.924094, -0.009713) |e|*Ang

Energy contributions relative to reference atoms: (reference = -14172735.478951)

Kinetic:       -329.082705
Potential:     +183.178560
External:        +0.000000
XC:             -38.657875
Entropy (-ST):   -2.354826
Local:          -11.039614
--------------------------
Free energy:   -197.956460
Extrapolated:  -196.779047

Showing only first 2 kpts
 Kpt  Band  Eigenvalues  Occupancy
  0   361      0.65790    0.95780
  0   362      0.67578    0.86912
  0   363      0.71624    0.67793
  0   364      0.72502    0.63919

  1   361      0.55178    1.45291
  1   362      0.56542    1.39707
  1   363      0.60030    1.24094
  1   364      0.62851    1.10433


Fermi level: 0.64945

No gap

Forces in eV/Ang:
  0 Pd    0.01004   -0.00927   -0.25433
  1 Pt    0.30555   -0.52163    0.38571
  2 Pt   -0.34085   -0.14572    0.02118
  3 Pd   -0.41248    0.18146   -0.07772
  4 Pd    0.21992   -0.22194   -0.23772
  5 Pt    0.22588    0.31479   -0.18690
  6 Pd   -0.21713    0.22937   -0.09074
  7 Pt    0.55193    0.16437    0.08579
  8 Ru   -0.48965    0.06256    1.33910
  9 Pd   -0.22985    0.16693    0.17954
 10 Pt    0.29181    0.00996   -0.23640
 11 Pd    0.03975    0.03797   -0.07731
 12 Pd    0.07652    0.10172    0.00052
 13 Pt   -0.19175   -0.17077    0.15898
 14 Ag    0.05350   -0.12640    0.07280
 15 Ag   -0.01063   -0.06770   -0.10657
 16 Ag   -0.06320   -0.05651    0.07643
 17 Pt    0.03417    0.23058   -0.57661
 18 Pt    0.00347    0.02531    0.03599
 19 Pt    0.02719    0.01388   -0.00506
 20 Ru    0.00003   -0.04724   -0.08372
 21 Pt    0.03591   -0.00683   -0.00665
 22 Pd    0.05323   -0.02155   -0.00361
 23 Pt   -0.02702   -0.04046    0.01767
 24 Ag    0.03005   -0.00970   -0.00471
 25 Pt    0.00244   -0.01818    0.00370
 26 Ag    0.00775    0.01799   -0.04874
 27 Pt    0.01222    0.05641   -0.04470
 28 Pd    0.02015    0.00482   -0.02243
 29 Pd    0.02230    0.01230   -0.03005
 30 Ir    0.03014    0.01740   -0.01736
 31 Pt   -0.02276   -0.04225   -0.01556
 32 Pd    0.00602   -0.05725   -0.01051
 33 Pd   -0.00951    0.00474   -0.00269
 34 Ag   -0.00455   -0.03484    0.01406
 35 Pt    0.05101   -0.04600   -0.01272
 36 Pt   -0.02575   -0.04034    0.01320
 37 Pt    0.00266   -0.03794   -0.00598
 38 Pt   -0.02711   -0.03940   -0.02470
 39 Pt    0.03177    0.04383   -0.03211
 40 Pd   -0.03903    0.02617   -0.01101
 41 Pd   -0.01338    0.02907   -0.01568
 42 Pt   -0.05803    0.00156    0.01215
 43 Ag   -0.00890    0.01090    0.07432
 44 Pt    0.03668   -0.00343   -0.01633

Timing:                                      incl.     excl.
-------------------------------------------------------------------
Density initialized from wave functions:    22.398    22.397   0.2% |
 Symmetrize density:                         0.000     0.000   0.0% |
Forces:                                    117.562   117.562   1.1% |
Hamiltonian:                                12.489     0.095   0.0% |
 Atomic:                                     0.943     0.323   0.0% |
  XC Correction:                             0.620     0.620   0.0% |
 Calculate atomic Hamiltonians:              7.707     7.707   0.1% |
 Communicate:                                1.251     1.251   0.0% |
 Initialize Hamiltonian:                     0.000     0.000   0.0% |
 Poisson:                                    0.064     0.064   0.0% |
 XC 3D grid:                                 2.428     2.428   0.0% |
LCAO initialization:                       126.357     2.204   0.0% |
 LCAO eigensolver:                          13.813     0.001   0.0% |
  Blacs Orbital Layouts:                     0.321     0.000   0.0% |
   General diagonalize:                      0.317     0.317   0.0% |
   Redistribute coefs:                       0.002     0.002   0.0% |
   Send coefs to domains:                    0.002     0.002   0.0% |
  Calculate projections:                     0.003     0.003   0.0% |
  Distribute overlap matrix:                12.717     0.000   0.0% |
   Scalapack redistribute:                   0.008     0.008   0.0% |
   blocked summation:                       12.709    12.709   0.1% |
  Potential matrix:                          0.714     0.714   0.0% |
  SparseAtomicCorrection:                    0.005     0.005   0.0% |
  Sum over cells:                            0.053     0.053   0.0% |
 LCAO to grid:                             107.342   107.342   1.0% |
 Set positions (LCAO WFS):                   2.998     0.006   0.0% |
  Basic WFS set positions:                   0.002     0.002   0.0% |
  Basis functions set positions:             0.000     0.000   0.0% |
  P tci:                                     0.001     0.001   0.0% |
  ST tci:                                    0.266     0.266   0.0% |
  Scalapack redistribute:                    0.024     0.024   0.0% |
  blocked summation:                         2.589     2.589   0.0% |
  mktci:                                     0.110     0.110   0.0% |
PWDescriptor:                                0.565     0.565   0.0% |
Redistribute:                                0.009     0.009   0.0% |
SCF-cycle:                               10170.612   150.845   1.4% ||
 Davidson:                                9333.233  2141.286  20.4% |-------|
  Apply H:                                 972.053   956.603   9.1% |---|
   HMM T:                                   15.450    15.450   0.1% |
  Subspace diag:                          1064.880     0.034   0.0% |
   calc_h_matrix:                          680.791   200.594   1.9% ||
    Apply H:                               480.197   472.195   4.5% |-|
     HMM T:                                  8.002     8.002   0.1% |
   diagonalize:                             41.052    41.052   0.4% |
   rotate_psi:                             343.004   343.004   3.3% ||
  calc. matrices:                         3590.064  2175.473  20.7% |-------|
   Apply H:                               1414.591  1391.667  13.3% |----|
    HMM T:                                  22.924    22.924   0.2% |
  diagonalize:                             525.640   525.640   5.0% |-|
  rotate_psi:                             1039.310  1039.310   9.9% |---|
 Density:                                  428.744     0.007   0.0% |
  Atomic density matrices:                   3.396     3.396   0.0% |
  Mix:                                     158.485   158.485   1.5% ||
  Multipole moments:                         0.279     0.279   0.0% |
  Pseudo density:                          266.578   266.571   2.5% ||
   Symmetrize density:                       0.007     0.007   0.0% |
 Hamiltonian:                              222.536     1.264   0.0% |
  Atomic:                                   13.923     3.137   0.0% |
   XC Correction:                           10.786    10.786   0.1% |
  Calculate atomic Hamiltonians:           139.984   139.984   1.3% ||
  Communicate:                              27.752    27.752   0.3% |
  Poisson:                                   0.769     0.769   0.0% |
  XC 3D grid:                               38.845    38.845   0.4% |
 Orthonormalize:                            35.254     0.003   0.0% |
  calc_s_matrix:                             5.771     5.771   0.1% |
  inverse-cholesky:                          1.836     1.836   0.0% |
  projections:                              18.112    18.112   0.2% |
  rotate_psi_s:                              9.531     9.531   0.1% |
Set symmetry:                                0.002     0.002   0.0% |
Other:                                      42.784    42.784   0.4% |
-------------------------------------------------------------------
Total:                                             10492.778 100.0%

Memory usage: 843.04 MiB
Date: Fri Jun 14 12:14:43 2024
