
  ___ ___ ___ _ _ _  
 |   |   |_  | | | | 
 | | | | | . | | | | 
 |__ |  _|___|_____|  22.1.0
 |___|_|             

User:   clausen@node435.cluster
Date:   Fri Jun 14 09:19:52 2024
Arch:   x86_64
Pid:    4246
Python: 3.10.4
gpaw:   /groups/kemi/clausen/miniconda3/envs/gpaw22/lib/python3.10/site-packages/gpaw
_gpaw:  /groups/kemi/clausen/miniconda3/envs/gpaw22/lib/python3.10/site-packages/
        _gpaw.cpython-310-x86_64-linux-gnu.so
ase:    /groups/kemi/clausen/miniconda3/envs/gpaw22/lib/python3.10/site-packages/ase (version 3.22.1)
numpy:  /groups/kemi/clausen/miniconda3/envs/gpaw22/lib/python3.10/site-packages/numpy (version 1.23.1)
scipy:  /groups/kemi/clausen/miniconda3/envs/gpaw22/lib/python3.10/site-packages/scipy (version 1.8.1)
libxc:  5.2.3
units:  Angstrom and eV
cores: 24
OpenMP: True
OMP_NUM_THREADS: 1

Input parameters:
  eigensolver: {name: dav,
                niter: 3}
  kpts: [4 4 1]
  mode: {ecut: 400.0,
         name: pw}
  xc: RPBE

System changes: positions, numbers, cell, pbc, initial_charges, initial_magmoms 

Initialize ...

Pd-setup:
  name: Palladium
  id: 6da19bfba079f22767af9506641940b9
  Z: 46.0
  valence: 16
  core: 30
  charge: 0.0
  file: /groups/kemi/clausen/miniconda3/envs/gpaw22/share/gpaw/Pd.RPBE.gz
  compensation charges: gauss, rc=0.38, lmax=2
  cutoffs: 2.38(filt), 2.28(core),
  valence states:
                energy  radius
    5s(0.00)    -3.225   1.228
    4p(6.00)   -51.131   1.360
    5p(0.00)    -0.373   1.360
    4d(10.00)    -3.964   1.228
    *s          23.987   1.228
    *d          23.247   1.228

  Using partial waves for Pd as LCAO basis

Pt-setup:
  name: Platinum
  id: f04f522592575c47ad794f6b4a415b4b
  Z: 78.0
  valence: 16
  core: 62
  charge: 0.0
  file: /groups/kemi/clausen/miniconda3/envs/gpaw22/share/gpaw/Pt.RPBE.gz
  compensation charges: gauss, rc=0.41, lmax=2
  cutoffs: 2.26(filt), 2.26(core),
  valence states:
                energy  radius
    6s(1.00)    -5.516   1.307
    5p(6.00)   -55.971   1.371
    6p(0.00)    -0.856   1.371
    5d(9.00)    -6.087   1.307
    *s          21.695   1.307
    *d          21.125   1.307

  Using partial waves for Pt as LCAO basis

Ag-setup:
  name: Silver
  id: c05e55bab2c3858b3f9398f6d75cb77c
  Z: 47.0
  valence: 17
  core: 30
  charge: 0.0
  file: /groups/kemi/clausen/miniconda3/envs/gpaw22/share/gpaw/Ag.RPBE.gz
  compensation charges: gauss, rc=0.40, lmax=2
  cutoffs: 2.35(filt), 2.19(core),
  valence states:
                energy  radius
    5s(1.00)    -4.277   1.286
    4p(6.00)   -58.523   1.328
    5p(0.00)    -0.755   1.328
    4d(10.00)    -7.386   1.180
    *s          22.934   1.286
    *d          19.826   1.180

  Using partial waves for Ag as LCAO basis

Ir-setup:
  name: Iridium
  id: 73b603359d1d5397a85ae3c2440f9033
  Z: 77.0
  valence: 15
  core: 62
  charge: 0.0
  file: /groups/kemi/clausen/miniconda3/envs/gpaw22/share/gpaw/Ir.RPBE.gz
  compensation charges: gauss, rc=0.40, lmax=2
  cutoffs: 2.40(filt), 2.36(core),
  valence states:
                energy  radius
    6s(2.00)    -6.219   1.296
    5p(6.00)   -54.684   1.328
    6p(0.00)    -1.215   1.328
    5d(7.00)    -7.118   1.286
    *s          20.992   1.296
    *d          20.093   1.286

  Using partial waves for Ir as LCAO basis

Ru-setup:
  name: Ruthenium
  id: 76477906e28f51dc1b29884d53556fe9
  Z: 44.0
  valence: 16
  core: 28
  charge: 0.0
  file: /groups/kemi/clausen/miniconda3/envs/gpaw22/share/gpaw/Ru.RPBE.gz
  compensation charges: gauss, rc=0.39, lmax=2
  cutoffs: 2.16(filt), 1.30(core),
  valence states:
                energy  radius
    4s(2.00)   -76.255   1.281
    5s(1.00)    -4.126   1.281
    4p(6.00)   -46.371   1.286
    5p(0.00)    -0.913   1.286
    4d(7.00)    -5.146   1.254
    *d          22.066   1.254

  Using partial waves for Ru as LCAO basis

Reference energy: -12371315.354956

Spin-paired calculation

Convergence criteria:
 Maximum [total energy] change in last 3 cyles: 0.0005 eV / electron
 Maximum integral of absolute [dens]ity change: 0.0001 electrons / valence electron
 Maximum integral of absolute [eigenst]ate change: 4e-08 eV^2 / valence electron
 Maximum number of scf [iter]ations: 333
 (Square brackets indicate name in SCF output, whereas a 'c' in
 the SCF output indicates the quantity has converged.)

Symmetries present (total): 1

  ( 1  0  0)
  ( 0  1  0)
  ( 0  0  1)

16 k-points: 4 x 4 x 1 Monkhorst-Pack grid
8 k-points in the irreducible part of the Brillouin zone
       k-points in crystal coordinates                weights
   0:     0.12500000   -0.37500000    0.00000000          2/16
   1:     0.12500000   -0.12500000    0.00000000          2/16
   2:     0.12500000    0.12500000    0.00000000          2/16
   3:     0.12500000    0.37500000    0.00000000          2/16
   4:     0.37500000   -0.37500000    0.00000000          2/16
   5:     0.37500000   -0.12500000    0.00000000          2/16
   6:     0.37500000    0.12500000    0.00000000          2/16
   7:     0.37500000    0.37500000    0.00000000          2/16

Wave functions: Plane wave expansion
  Cutoff energy: 400.000 eV
  Number of coefficients (min, max): 33288, 33380
  Pulay-stress correction: 0.000000 eV/Ang^3 (de/decut=0.000000)
  Using FFTW library
  ScaLapack parameters: grid=3x1, blocksize=64
  Wavefunction extrapolation:
    Improved wavefunction reuse through dual PAW basis 

Occupation numbers: Fermi-Dirac: width=0.1000 eV
 

Eigensolver
   Davidson(niter=3) 

Densities:
  Coarse grid: 40*40*140 grid
  Fine grid: 80*80*280 grid
  Total Charge: 0.000000 

Density mixing:
  Method: separate
  Backend: pulay
  Linear mixing parameter: 0.05
  Mixing with 5 old densities
  Damping of long wave oscillations: 50 

Hamiltonian:
  XC and Coulomb potentials evaluated on a 80*80*280 grid
  Using the RPBE Exchange-Correlation functional
  External potential:
    NoExternalPotential
 

XC parameters: RPBE with 2 nearest neighbor stencil

Memory estimate:
  Process memory now: 194.92 MiB
  Calculator: 552.59 MiB
    Density: 44.40 MiB
      Arrays: 14.92 MiB
      Localized functions: 23.74 MiB
      Mixer: 5.74 MiB
    Hamiltonian: 10.47 MiB
      Arrays: 9.75 MiB
      XC: 0.00 MiB
      Poisson: 0.00 MiB
      vbar: 0.72 MiB
    Wavefunctions: 497.71 MiB
      Arrays psit_nG: 225.64 MiB
      Eigensolver: 258.14 MiB
      Projections: 1.83 MiB
      Projectors: 3.31 MiB
      PW-descriptor: 8.80 MiB

Total number of cores used: 24
Parallelization over k-points: 8
Domain decomposition: 1 x 1 x 3
                      2 x 2 x 6 (xc only)

Number of atoms: 45
Number of atomic orbitals: 543
Number of bands in calculation: 443
Number of valence electrons: 731
Bands to converge: occupied

... initialized

Initializing position-dependent things.

Density initialized from atomic densities
Creating initial wave functions:
  443 bands from LCAO basis set

                                            
                                            
                                            
                                            
                 Ir     Pt     Ag           
                                            
            Pt    PRu    PPt    Pd          
       Pt     Pt     Ag                     
             Ag     Pd     Ru               
        Ag     Ag     Pt                    
                     Pt     Pt     Ag       
                Ru     Pd     Pt            
           Ag     Ag     Pt                 
                 Pt     Pd     Pd           
            Ir     Pt     Ag                
                  Ag     Pd     Pd          
       Pd    PPd    APt    Ag               
                                            
        Pd     Pt     Ag                    
                                            
                                            
                                            
                                            

Positions:
   0 Pd     0.000000    1.637674   10.000000    ( 0.0000,  0.0000,  0.0000)
   1 Pt     2.836535    1.637674   10.000000    ( 0.0000,  0.0000,  0.0000)
   2 Ag     5.673071    1.637674   10.000000    ( 0.0000,  0.0000,  0.0000)
   3 Pd     1.418268    4.094186   10.000000    ( 0.0000,  0.0000,  0.0000)
   4 Ag     4.254803    4.094186   10.000000    ( 0.0000,  0.0000,  0.0000)
   5 Ag     7.091338    4.094186   10.000000    ( 0.0000,  0.0000,  0.0000)
   6 Ag     2.836535    6.550698   10.000000    ( 0.0000,  0.0000,  0.0000)
   7 Pd     5.673071    6.550698   10.000000    ( 0.0000,  0.0000,  0.0000)
   8 Pd     8.509606    6.550698   10.000000    ( 0.0000,  0.0000,  0.0000)
   9 Pd     0.000000    0.000000   12.317643    ( 0.0000,  0.0000,  0.0000)
  10 Pd     2.836535    0.000000   12.317643    ( 0.0000,  0.0000,  0.0000)
  11 Pt     5.673071    0.000000   12.317643    ( 0.0000,  0.0000,  0.0000)
  12 Ir     1.418268    2.456512   12.317643    ( 0.0000,  0.0000,  0.0000)
  13 Pt     4.254803    2.456512   12.317643    ( 0.0000,  0.0000,  0.0000)
  14 Ag     7.091338    2.456512   12.317643    ( 0.0000,  0.0000,  0.0000)
  15 Pt     2.836535    4.913023   12.317643    ( 0.0000,  0.0000,  0.0000)
  16 Pd     5.673071    4.913023   12.317643    ( 0.0000,  0.0000,  0.0000)
  17 Pd     8.509606    4.913023   12.317643    ( 0.0000,  0.0000,  0.0000)
  18 Ag     1.418268    0.818837   14.635286    ( 0.0000,  0.0000,  0.0000)
  19 Ag     4.254803    0.818837   14.635286    ( 0.0000,  0.0000,  0.0000)
  20 Pt     7.091338    0.818837   14.635286    ( 0.0000,  0.0000,  0.0000)
  21 Ru     2.836535    3.275349   14.635286    ( 0.0000,  0.0000,  0.0000)
  22 Pd     5.673071    3.275349   14.635286    ( 0.0000,  0.0000,  0.0000)
  23 Pt     8.509606    3.275349   14.635286    ( 0.0000,  0.0000,  0.0000)
  24 Pt     4.254803    5.731860   14.635286    ( 0.0000,  0.0000,  0.0000)
  25 Pt     7.091338    5.731860   14.635286    ( 0.0000,  0.0000,  0.0000)
  26 Ag     9.927873    5.731860   14.635286    ( 0.0000,  0.0000,  0.0000)
  27 Ag     0.000000    1.637674   16.952928    ( 0.0000,  0.0000,  0.0000)
  28 Ag     2.836535    1.637674   16.952928    ( 0.0000,  0.0000,  0.0000)
  29 Pt     5.673071    1.637674   16.952928    ( 0.0000,  0.0000,  0.0000)
  30 Ag     1.418268    4.094186   16.952928    ( 0.0000,  0.0000,  0.0000)
  31 Pd     4.254803    4.094186   16.952928    ( 0.0000,  0.0000,  0.0000)
  32 Ru     7.091338    4.094186   16.952928    ( 0.0000,  0.0000,  0.0000)
  33 Pd     2.836535    6.550698   16.952928    ( 0.0000,  0.0000,  0.0000)
  34 Pt     5.673071    6.550698   16.952928    ( 0.0000,  0.0000,  0.0000)
  35 Pd     8.509606    6.550698   16.952928    ( 0.0000,  0.0000,  0.0000)
  36 Pt     0.000000    0.000000   19.270571    ( 0.0000,  0.0000,  0.0000)
  37 Pt     2.836535    0.000000   19.270571    ( 0.0000,  0.0000,  0.0000)
  38 Ag     5.673071    0.000000   19.270571    ( 0.0000,  0.0000,  0.0000)
  39 Pt     1.418268    2.456512   19.270571    ( 0.0000,  0.0000,  0.0000)
  40 Ru     4.254803    2.456512   19.270571    ( 0.0000,  0.0000,  0.0000)
  41 Pt     7.091338    2.456512   19.270571    ( 0.0000,  0.0000,  0.0000)
  42 Ir     2.836535    4.913023   19.270571    ( 0.0000,  0.0000,  0.0000)
  43 Pt     5.673071    4.913023   19.270571    ( 0.0000,  0.0000,  0.0000)
  44 Ag     8.509606    4.913023   19.270571    ( 0.0000,  0.0000,  0.0000)

Unit cell:
           periodic     x           y           z      points  spacing
  1. axis:    yes    8.509606    0.000000    0.000000    40     0.1842
  2. axis:    yes    4.254803    7.369535    0.000000    40     0.1842
  3. axis:    no     0.000000    0.000000   29.270571   140     0.2091

  Lengths:   8.509606   8.509606  29.270571
  Angles:   90.000000  90.000000  60.000000

Effective grid spacing dv^(1/3) = 0.2016

     iter     time        total  log10-change:
                         energy  eigst   dens
iter:   1 09:23:08  -241.334381
iter:   2 09:24:04  -362.204975  -1.38  -1.22
iter:   3 09:25:02  -207.340024  -1.98  -1.06
iter:   4 09:25:59  -198.682714  -2.46  -1.39
iter:   5 09:26:57  -195.967894  -2.60  -1.44
iter:   6 09:27:54  -191.423807  -2.88  -1.51
iter:   7 09:28:53  -188.498966  -3.16  -1.58
iter:   8 09:29:51  -197.140255  -2.51  -1.68
iter:   9 09:30:49  -186.405617  -2.78  -1.62
iter:  10 09:31:48  -185.758357  -3.73  -2.00
iter:  11 09:32:45  -185.923937  -3.96  -2.10
iter:  12 09:33:44  -185.627411c -4.20  -2.10
iter:  13 09:34:42  -185.632877c -4.23  -2.19
iter:  14 09:35:39  -185.966194c -4.22  -2.27
iter:  15 09:36:38  -185.597287  -4.23  -2.18
iter:  16 09:37:37  -185.510934  -4.35  -2.35
iter:  17 09:38:36  -185.415858c -4.56  -2.42
iter:  18 09:39:34  -185.338823c -4.54  -2.50
iter:  19 09:40:33  -185.366467c -4.62  -2.63
iter:  20 09:41:31  -185.292195c -4.71  -2.60
iter:  21 09:42:30  -185.315365c -5.20  -2.72
iter:  22 09:43:28  -185.279330c -5.21  -2.71
iter:  23 09:44:27  -185.288839c -5.28  -2.84
iter:  24 09:45:25  -185.260124c -5.08  -2.87
iter:  25 09:46:23  -185.267023c -5.87  -3.03
iter:  26 09:47:21  -185.261240c -5.84  -3.05
iter:  27 09:48:19  -185.263539c -6.36  -3.10
iter:  28 09:49:17  -185.259737c -5.98  -3.14
iter:  29 09:50:14  -185.264388c -6.15  -3.20
iter:  30 09:51:12  -185.257754c -6.16  -3.28
iter:  31 09:52:10  -185.261250c -6.48  -3.29
iter:  32 09:53:08  -185.258115c -6.27  -3.41
iter:  33 09:54:06  -185.258792c -6.85  -3.39
iter:  34 09:55:04  -185.257006c -6.69  -3.51
iter:  35 09:56:02  -185.258424c -6.85  -3.58
iter:  36 09:57:00  -185.256117c -7.00  -3.65
iter:  37 09:57:58  -185.258938c -6.88  -3.60
iter:  38 09:58:56  -185.257472c -7.03  -3.70
iter:  39 09:59:54  -185.256996c -7.42c -3.78
iter:  40 10:00:53  -185.257154c -6.99  -3.82
iter:  41 10:01:51  -185.257931c -7.50c -3.88
iter:  42 10:02:49  -185.256520c -7.77c -3.91
iter:  43 10:03:47  -185.257493c -7.70c -3.93
iter:  44 10:04:45  -185.257007c -7.82c -4.05c

Converged after 44 iterations.

Dipole moment: (21.425289, 13.498698, -0.250222) |e|*Ang

Energy contributions relative to reference atoms: (reference = -12371315.354956)

Kinetic:       -255.239899
Potential:     +127.714960
External:        +0.000000
XC:             -49.789925
Entropy (-ST):   -2.069632
Local:           -6.907328
--------------------------
Free energy:   -186.291823
Extrapolated:  -185.257007

Showing only first 2 kpts
 Kpt  Band  Eigenvalues  Occupancy
  0   363      0.72572    1.02053
  0   364      0.76381    0.83172
  0   365      0.77950    0.75661
  0   366      0.80352    0.64734

  1   363      0.59895    1.57462
  1   364      0.63249    1.45157
  1   365      0.66957    1.29247
  1   366      0.69213    1.18627


Fermi level: 0.72983

No gap

Forces in eV/Ang:
  0 Pd    0.70660    0.05813    0.12981
  1 Pt   -0.58504   -0.15914    0.63913
  2 Ag   -0.10614   -0.08182   -0.53438
  3 Pd   -0.03846   -0.35391    0.29351
  4 Ag   -0.02765    0.01975   -0.53310
  5 Ag    0.15313    0.16893   -0.50048
  6 Ag    0.03831   -0.00155   -0.44818
  7 Pd    0.24119    0.36914    0.05930
  8 Pd   -0.13784    0.13438    0.20330
  9 Pd    0.05525    0.10601    0.03720
 10 Pd   -0.01164    0.11642   -0.15332
 11 Pt    0.00228   -0.13060   -0.00322
 12 Ir    0.92890    0.37333    0.23854
 13 Pt   -0.87712    0.02516    0.53586
 14 Ag    0.10546   -0.02015   -0.02204
 15 Pt   -0.14437   -0.46184    0.69962
 16 Pd   -0.10260    0.27095    0.21808
 17 Pd    0.19080   -0.03120    0.09644
 18 Ag   -0.00541    0.09552   -0.18631
 19 Ag    0.03377    0.10635   -0.00536
 20 Pt   -0.08903   -0.07138    0.05860
 21 Ru    0.02678    0.60843   -1.68994
 22 Pd   -0.21859    0.16744    0.41103
 23 Pt    0.26816    0.21053    0.12008
 24 Pt   -0.15731   -0.57125    0.07551
 25 Pt   -0.24730   -0.74464    0.49837
 26 Ag    0.02648   -0.02668    0.04474
 27 Ag   -0.13892    0.01917    0.04316
 28 Ag    0.19493    0.03834    0.08568
 29 Pt    0.12646    0.54163    0.29923
 30 Ag    0.03492    0.05923    0.01442
 31 Pd    0.04709   -0.19795    0.17036
 32 Ru   -1.06323    0.26005   -0.52039
 33 Pd    0.06021    0.00096    0.15648
 34 Pt    0.34605   -0.87161    0.03100
 35 Pd   -0.40215   -0.17940   -0.01936
 36 Pt    0.31568   -0.31416    0.02527
 37 Pt   -0.54536    0.67774   -0.11156
 38 Ag    0.11879    0.00152    0.61921
 39 Pt    0.63136   -0.10360    0.63593
 40 Ru   -0.28491    1.06622   -0.80209
 41 Pt   -0.34738    0.25689   -0.38749
 42 Ir    1.41029   -0.92648   -0.75733
 43 Pt   -0.56875   -0.35598   -0.38699
 44 Ag    0.05171   -0.14003    0.75172

System changes: positions 

Initializing position-dependent things.

Density initialized from wave functions
                                            
                                            
                                            
                                            
                        Pt     Ag           
                 Ir                         
            Pt    PRu    PPt    Pd          
       Pt     Pt     Ag                     
             Ag     Pd     Ru               
        Ag     Ag     Pt                    
                     Pt     Pt     Ag       
                Ru     Pd     Pt            
           Ag     Ag     Pt                 
                 Pt     Pd     Pd           
            Ir     Pt     Ag                
                  Ag     Pd     Pd          
       Pd    PPd    APt    Ag               
                                            
        Pd     Pt     Ag                    
                                            
                                            
                                            
                                            

Positions:
   0 Pd     0.000000    1.637674   10.000000    ( 0.0000,  0.0000,  0.0000)
   1 Pt     2.836535    1.637674   10.000000    ( 0.0000,  0.0000,  0.0000)
   2 Ag     5.673071    1.637674   10.000000    ( 0.0000,  0.0000,  0.0000)
   3 Pd     1.418268    4.094186   10.000000    ( 0.0000,  0.0000,  0.0000)
   4 Ag     4.254803    4.094186   10.000000    ( 0.0000,  0.0000,  0.0000)
   5 Ag     7.091338    4.094186   10.000000    ( 0.0000,  0.0000,  0.0000)
   6 Ag     2.836535    6.550698   10.000000    ( 0.0000,  0.0000,  0.0000)
   7 Pd     5.673071    6.550698   10.000000    ( 0.0000,  0.0000,  0.0000)
   8 Pd     8.509606    6.550698   10.000000    ( 0.0000,  0.0000,  0.0000)
   9 Pd     0.000000    0.000000   12.317643    ( 0.0000,  0.0000,  0.0000)
  10 Pd     2.836535    0.000000   12.317643    ( 0.0000,  0.0000,  0.0000)
  11 Pt     5.673071    0.000000   12.317643    ( 0.0000,  0.0000,  0.0000)
  12 Ir     1.418268    2.456512   12.317643    ( 0.0000,  0.0000,  0.0000)
  13 Pt     4.254803    2.456512   12.317643    ( 0.0000,  0.0000,  0.0000)
  14 Ag     7.091338    2.456512   12.317643    ( 0.0000,  0.0000,  0.0000)
  15 Pt     2.836535    4.913023   12.317643    ( 0.0000,  0.0000,  0.0000)
  16 Pd     5.673071    4.913023   12.317643    ( 0.0000,  0.0000,  0.0000)
  17 Pd     8.509606    4.913023   12.317643    ( 0.0000,  0.0000,  0.0000)
  18 Ag     1.418190    0.820202   14.632624    ( 0.0000,  0.0000,  0.0000)
  19 Ag     4.255285    0.820356   14.635209    ( 0.0000,  0.0000,  0.0000)
  20 Pt     7.090066    0.817818   14.636123    ( 0.0000,  0.0000,  0.0000)
  21 Ru     2.836918    3.284041   14.611144    ( 0.0000,  0.0000,  0.0000)
  22 Pd     5.669948    3.277741   14.641157    ( 0.0000,  0.0000,  0.0000)
  23 Pt     8.513437    3.278356   14.637001    ( 0.0000,  0.0000,  0.0000)
  24 Pt     4.252556    5.723700   14.636364    ( 0.0000,  0.0000,  0.0000)
  25 Pt     7.087805    5.721223   14.642405    ( 0.0000,  0.0000,  0.0000)
  26 Ag     9.928252    5.731479   14.635925    ( 0.0000,  0.0000,  0.0000)
  27 Ag    -0.001985    1.637948   16.953545    ( 0.0000,  0.0000,  0.0000)
  28 Ag     2.839320    1.638222   16.954152    ( 0.0000,  0.0000,  0.0000)
  29 Pt     5.674877    1.645412   16.957203    ( 0.0000,  0.0000,  0.0000)
  30 Ag     1.418767    4.095032   16.953134    ( 0.0000,  0.0000,  0.0000)
  31 Pd     4.255476    4.091358   16.955362    ( 0.0000,  0.0000,  0.0000)
  32 Ru     7.076149    4.097901   16.945494    ( 0.0000,  0.0000,  0.0000)
  33 Pd     2.837395    6.550711   16.955164    ( 0.0000,  0.0000,  0.0000)
  34 Pt     5.678014    6.538246   16.953371    ( 0.0000,  0.0000,  0.0000)
  35 Pd     8.503861    6.548135   16.952652    ( 0.0000,  0.0000,  0.0000)
  36 Pt     0.004510   -0.004488   19.270932    ( 0.0000,  0.0000,  0.0000)
  37 Pt     2.828744    0.009682   19.268977    ( 0.0000,  0.0000,  0.0000)
  38 Ag     5.674768    0.000022   19.279417    ( 0.0000,  0.0000,  0.0000)
  39 Pt     1.427287    2.455032   19.279656    ( 0.0000,  0.0000,  0.0000)
  40 Ru     4.250733    2.471743   19.259113    ( 0.0000,  0.0000,  0.0000)
  41 Pt     7.086376    2.460181   19.265035    ( 0.0000,  0.0000,  0.0000)
  42 Ir     2.856682    4.899788   19.259752    ( 0.0000,  0.0000,  0.0000)
  43 Pt     5.664946    4.907938   19.265043    ( 0.0000,  0.0000,  0.0000)
  44 Ag     8.510345    4.911023   19.281310    ( 0.0000,  0.0000,  0.0000)

Unit cell:
           periodic     x           y           z      points  spacing
  1. axis:    yes    8.509606    0.000000    0.000000    40     0.1842
  2. axis:    yes    4.254803    7.369535    0.000000    40     0.1842
  3. axis:    no     0.000000    0.000000   29.270571   140     0.2091

  Lengths:   8.509606   8.509606  29.270571
  Angles:   90.000000  90.000000  60.000000

Effective grid spacing dv^(1/3) = 0.2016

     iter     time        total  log10-change:
                         energy  eigst   dens
iter:   1 10:06:02  -185.843414  -3.61
iter:   2 10:06:59  -186.649598  -3.97  -2.53
iter:   3 10:07:57  -186.912000  -4.05  -2.19
iter:   4 10:08:55  -185.541870  -4.63  -2.15
iter:   5 10:09:53  -185.501152  -5.53  -2.88
iter:   6 10:10:51  -185.506429c -5.80  -3.09
iter:   7 10:11:49  -185.494160c -6.00  -3.17
iter:   8 10:12:47  -185.496171c -5.87  -3.39
iter:   9 10:13:45  -185.491713c -6.53  -3.45
iter:  10 10:14:43  -185.492692c -6.75  -3.66
iter:  11 10:15:41  -185.490400c -6.46  -3.66
iter:  12 10:16:39  -185.493169c -7.03  -3.83
iter:  13 10:17:38  -185.490355c -6.84  -3.69
iter:  14 10:18:36  -185.492497c -7.18  -4.04c
iter:  15 10:19:34  -185.490152c -7.36  -3.88
iter:  16 10:20:32  -185.490683c -7.88c -4.10c

Converged after 16 iterations.

Dipole moment: (19.069805, 13.060494, -0.248262) |e|*Ang

Energy contributions relative to reference atoms: (reference = -12371315.354956)

Kinetic:       -246.655235
Potential:     +119.373098
External:        +0.000000
XC:             -50.280818
Entropy (-ST):   -2.056577
Local:           -6.899439
--------------------------
Free energy:   -186.518971
Extrapolated:  -185.490683

Showing only first 2 kpts
 Kpt  Band  Eigenvalues  Occupancy
  0   363      0.72854    1.02098
  0   364      0.76654    0.83254
  0   365      0.78151    0.76083
  0   366      0.80662    0.64648

  1   363      0.60177    1.57490
  1   364      0.63352    1.45900
  1   365      0.67362    1.28726
  1   366      0.69585    1.18234


Fermi level: 0.73273

No gap

Forces in eV/Ang:
  0 Pd    0.69737    0.05377    0.12559
  1 Pt   -0.59086   -0.16919    0.63584
  2 Ag   -0.09374   -0.07794   -0.55321
  3 Pd   -0.04213   -0.34104    0.27538
  4 Ag   -0.01729    0.03009   -0.55187
  5 Ag    0.14684    0.16703   -0.49942
  6 Ag    0.04196   -0.00041   -0.46911
  7 Pd    0.23590    0.36263    0.06254
  8 Pd   -0.13676    0.12756    0.19425
  9 Pd    0.07201    0.10622    0.03150
 10 Pd   -0.02159    0.07620   -0.13917
 11 Pt   -0.00467   -0.13525   -0.00330
 12 Ir    0.89423    0.35134    0.19338
 13 Pt   -0.82881    0.01138    0.49758
 14 Ag    0.10502   -0.00179   -0.00736
 15 Pt   -0.14425   -0.40827    0.63236
 16 Pd   -0.07187    0.27905    0.19938
 17 Pd    0.15719   -0.01827    0.08769
 18 Ag    0.00478    0.04983   -0.12840
 19 Ag    0.00884    0.07133    0.02897
 20 Pt   -0.07215   -0.05989    0.06157
 21 Ru    0.00661    0.50345   -1.47366
 22 Pd   -0.19922    0.08696    0.32217
 23 Pt    0.22089    0.15863    0.10200
 24 Pt   -0.15529   -0.47202    0.06528
 25 Pt   -0.19124   -0.61325    0.37370
 26 Ag   -0.01088    0.03069    0.06748
 27 Ag   -0.06860    0.01226    0.06451
 28 Ag    0.12559    0.03487   -0.02692
 29 Pt    0.10592    0.39600    0.25926
 30 Ag   -0.00633    0.04119    0.01917
 31 Pd   -0.03354   -0.18413    0.04126
 32 Ru   -0.86881    0.21805   -0.43538
 33 Pd    0.01804    0.02208    0.14706
 34 Pt    0.27078   -0.70173    0.01264
 35 Pd   -0.29578   -0.14727    0.03738
 36 Pt    0.26847   -0.24538    0.00859
 37 Pt   -0.44634    0.56738   -0.09619
 38 Ag    0.09016   -0.02998    0.57772
 39 Pt    0.51955   -0.09354    0.57137
 40 Ru   -0.25590    0.96420   -0.68659
 41 Pt   -0.25964    0.21521   -0.34053
 42 Ir    1.22074   -0.81890   -0.65773
 43 Pt   -0.43658   -0.29490   -0.30932
 44 Ag    0.06373   -0.10725    0.67353

System changes: positions 

Initializing position-dependent things.

Density initialized from wave functions
                                            
                                            
                                            
                                            
                               Ag           
                 Ir     Pt                  
            Pt    PRu    PPt   Pd           
       Pt     Pt     Ag                     
             Ag     Pd    Ru                
        Ag     Ag     Pt                    
                     Pt     Pt     Ag       
                Ru     Pd     Pt            
           Ag     Ag     Pt                 
                 Pt     Pd     Pd           
            Ir     Pt     Ag                
                  Ag     Pd     Pd          
       Pd    PPd    APt    Ag               
                                            
        Pd     Pt     Ag                    
                                            
                                            
                                            
                                            

Positions:
   0 Pd     0.000000    1.637674   10.000000    ( 0.0000,  0.0000,  0.0000)
   1 Pt     2.836535    1.637674   10.000000    ( 0.0000,  0.0000,  0.0000)
   2 Ag     5.673071    1.637674   10.000000    ( 0.0000,  0.0000,  0.0000)
   3 Pd     1.418268    4.094186   10.000000    ( 0.0000,  0.0000,  0.0000)
   4 Ag     4.254803    4.094186   10.000000    ( 0.0000,  0.0000,  0.0000)
   5 Ag     7.091338    4.094186   10.000000    ( 0.0000,  0.0000,  0.0000)
   6 Ag     2.836535    6.550698   10.000000    ( 0.0000,  0.0000,  0.0000)
   7 Pd     5.673071    6.550698   10.000000    ( 0.0000,  0.0000,  0.0000)
   8 Pd     8.509606    6.550698   10.000000    ( 0.0000,  0.0000,  0.0000)
   9 Pd     0.000000    0.000000   12.317643    ( 0.0000,  0.0000,  0.0000)
  10 Pd     2.836535    0.000000   12.317643    ( 0.0000,  0.0000,  0.0000)
  11 Pt     5.673071    0.000000   12.317643    ( 0.0000,  0.0000,  0.0000)
  12 Ir     1.418268    2.456512   12.317643    ( 0.0000,  0.0000,  0.0000)
  13 Pt     4.254803    2.456512   12.317643    ( 0.0000,  0.0000,  0.0000)
  14 Ag     7.091338    2.456512   12.317643    ( 0.0000,  0.0000,  0.0000)
  15 Pt     2.836535    4.913023   12.317643    ( 0.0000,  0.0000,  0.0000)
  16 Pd     5.673071    4.913023   12.317643    ( 0.0000,  0.0000,  0.0000)
  17 Pd     8.509606    4.913023   12.317643    ( 0.0000,  0.0000,  0.0000)
  18 Ag     1.418617    0.825095   14.620189    ( 0.0000,  0.0000,  0.0000)
  19 Ag     4.256203    0.827272   14.637876    ( 0.0000,  0.0000,  0.0000)
  20 Pt     7.083125    0.812063   14.641996    ( 0.0000,  0.0000,  0.0000)
  21 Ru     2.837608    3.332441   14.469738    ( 0.0000,  0.0000,  0.0000)
  22 Pd     5.650861    3.286283   14.672193    ( 0.0000,  0.0000,  0.0000)
  23 Pt     8.534676    3.293661   14.646798    ( 0.0000,  0.0000,  0.0000)
  24 Pt     4.237716    5.678319   14.642630    ( 0.0000,  0.0000,  0.0000)
  25 Pt     7.069373    5.662257   14.678468    ( 0.0000,  0.0000,  0.0000)
  26 Ag     9.927322    5.734243   14.642305    ( 0.0000,  0.0000,  0.0000)
  27 Ag    -0.008743    1.639140   16.959645    ( 0.0000,  0.0000,  0.0000)
  28 Ag     2.851520    1.641563   16.951910    ( 0.0000,  0.0000,  0.0000)
  29 Pt     5.685055    1.683666   16.982086    ( 0.0000,  0.0000,  0.0000)
  30 Ag     1.418282    4.099019   16.954951    ( 0.0000,  0.0000,  0.0000)
  31 Pd     4.252508    4.073729   16.959681    ( 0.0000,  0.0000,  0.0000)
  32 Ru     6.992586    4.118853   16.903655    ( 0.0000,  0.0000,  0.0000)
  33 Pd     2.839242    6.552758   16.969240    ( 0.0000,  0.0000,  0.0000)
  34 Pt     5.704101    6.470716   16.954633    ( 0.0000,  0.0000,  0.0000)
  35 Pd     8.475295    6.533972   16.956057    ( 0.0000,  0.0000,  0.0000)
  36 Pt     0.030294   -0.028129   19.271802    ( 0.0000,  0.0000,  0.0000)
  37 Pt     2.785818    0.064204   19.259744    ( 0.0000,  0.0000,  0.0000)
  38 Ag     5.683464   -0.002750   19.334726    ( 0.0000,  0.0000,  0.0000)
  39 Pt     1.477245    2.446067   19.334425    ( 0.0000,  0.0000,  0.0000)
  40 Ru     4.226202    2.564148   19.193188    ( 0.0000,  0.0000,  0.0000)
  41 Pt     7.061316    2.480862   19.232368    ( 0.0000,  0.0000,  0.0000)
  42 Ir     2.973850    4.821247   19.196630    ( 0.0000,  0.0000,  0.0000)
  43 Pt     5.622854    4.879589   19.235267    ( 0.0000,  0.0000,  0.0000)
  44 Ag     8.516397    4.900682   19.345879    ( 0.0000,  0.0000,  0.0000)

Unit cell:
           periodic     x           y           z      points  spacing
  1. axis:    yes    8.509606    0.000000    0.000000    40     0.1842
  2. axis:    yes    4.254803    7.369535    0.000000    40     0.1842
  3. axis:    no     0.000000    0.000000   29.270571   140     0.2091

  Lengths:   8.509606   8.509606  29.270571
  Angles:   90.000000  90.000000  60.000000

Effective grid spacing dv^(1/3) = 0.2016

     iter     time        total  log10-change:
                         energy  eigst   dens
iter:   1 10:21:50  -193.802589  -2.11
iter:   2 10:22:49  -192.439521  -2.74  -1.84
iter:   3 10:23:47  -206.631794  -2.85  -1.81
iter:   4 10:24:46  -190.184331  -3.54  -1.60
iter:   5 10:25:44  -187.491796  -3.91  -1.97
iter:   6 10:26:43  -186.571842  -4.32  -2.20
iter:   7 10:27:41  -186.438379  -4.29  -2.49
iter:   8 10:28:39  -186.739043c -4.55  -2.52
iter:   9 10:29:38  -186.330895  -4.33  -2.39
iter:  10 10:30:36  -186.339375  -5.05  -2.81
iter:  11 10:31:34  -186.299198c -5.01  -2.80
iter:  12 10:32:33  -186.305192c -4.99  -3.01
iter:  13 10:33:32  -186.287367c -5.46  -3.05
iter:  14 10:34:30  -186.288105c -5.27  -3.14
iter:  15 10:35:30  -186.301048c -5.97  -3.35
iter:  16 10:36:29  -186.289537c -6.06  -3.23
iter:  17 10:37:29  -186.291108c -6.36  -3.49
iter:  18 10:38:28  -186.287845c -6.43  -3.44
iter:  19 10:39:28  -186.283504c -6.04  -3.67
iter:  20 10:40:26  -186.285617c -6.94  -3.72
iter:  21 10:41:25  -186.286108c -7.13  -3.93
iter:  22 10:42:23  -186.284141c -7.20  -3.96
iter:  23 10:43:22  -186.284445c -7.34  -3.87
iter:  24 10:44:20  -186.284869c -7.67c -4.08c

Converged after 24 iterations.

Dipole moment: (6.393648, 10.777811, -0.241698) |e|*Ang

Energy contributions relative to reference atoms: (reference = -12371315.354956)

Kinetic:       -232.188987
Potential:     +106.298059
External:        +0.000000
XC:             -52.527693
Entropy (-ST):   -1.967516
Local:           -6.882489
--------------------------
Free energy:   -187.268627
Extrapolated:  -186.284869

Showing only first 2 kpts
 Kpt  Band  Eigenvalues  Occupancy
  0   363      0.74474    1.01735
  0   364      0.77976    0.84355
  0   365      0.79955    0.74883
  0   366      0.82454    0.63589

  1   363      0.62387    1.55232
  1   364      0.63634    1.50751
  1   365      0.68869    1.28912
  1   366      0.69973    1.23780


Fermi level: 0.74821

No gap

Forces in eV/Ang:
  0 Pd    0.71573    0.06932    0.12316
  1 Pt   -0.60434   -0.16638    0.58773
  2 Ag   -0.09910   -0.07848   -0.55500
  3 Pd   -0.05402   -0.33510    0.23343
  4 Ag   -0.00868    0.03405   -0.56534
  5 Ag    0.14781    0.16642   -0.49847
  6 Ag    0.04270   -0.00611   -0.47093
  7 Pd    0.23006    0.35584    0.06354
  8 Pd   -0.13600    0.12537    0.19239
  9 Pd    0.06967    0.09611    0.06062
 10 Pd   -0.01063    0.00018   -0.06647
 11 Pt   -0.01325   -0.12605    0.01653
 12 Ir    0.85105    0.33258    0.14167
 13 Pt   -0.67544   -0.05846    0.38252
 14 Ag    0.09555    0.01778    0.10499
 15 Pt   -0.15451   -0.16035    0.35900
 16 Pd   -0.05016    0.27289    0.20844
 17 Pd    0.11764    0.01892    0.10972
 18 Ag    0.00476   -0.10267    0.06220
 19 Ag   -0.06839   -0.00937    0.07176
 20 Pt    0.01828    0.00187    0.05592
 21 Ru   -0.17899   -0.03396   -0.56092
 22 Pd   -0.17160   -0.22198   -0.05815
 23 Pt    0.06318   -0.07769    0.00431
 24 Pt   -0.13064   -0.07126    0.00863
 25 Pt   -0.01760   -0.08327   -0.07313
 26 Ag   -0.11476    0.18655    0.08163
 27 Ag    0.14614   -0.01367    0.11251
 28 Ag   -0.14277    0.00453   -0.36465
 29 Pt    0.05358   -0.12056    0.07774
 30 Ag   -0.12728   -0.05919    0.05871
 31 Pd   -0.27457   -0.08468   -0.56373
 32 Ru   -0.02507   -0.07817   -0.09120
 33 Pd   -0.02734    0.08060    0.13878
 34 Pt   -0.08213   -0.05895   -0.08456
 35 Pd   -0.03281   -0.04238    0.26233
 36 Pt    0.09223   -0.02758   -0.04956
 37 Pt   -0.00528    0.04296   -0.02104
 38 Ag   -0.01412   -0.05550    0.28479
 39 Pt    0.14990    0.05513    0.26648
 40 Ru   -0.09235    0.32702   -0.18080
 41 Pt    0.04181    0.09781   -0.11422
 42 Ir    0.07882   -0.22481   -0.13449
 43 Pt    0.34166   -0.02159    0.04636
 44 Ag    0.03198   -0.01737    0.33296

System changes: positions 

Initializing position-dependent things.

Density initialized from wave functions
                                             
                                             
                                             
                                             
                                             
                  Ir    Pt     Ag            
             Pt                              
                   Ru    PPt    Pd           
       Pt    APt    PAg    Ru                
                                             
        Ag     Ag    PPt    Pt     Ag        
                       Pd                    
                Ru            Pt             
           Ag    PAg    PPt    Pd            
                                             
            Ir    APt    PAg    Pd           
       Pd     Pd     Pt                      
             Pd     Ag     Ag                
        Pd     Pt     Ag                     
                                             
                                             
                                             
                                             
                                             

Positions:
   0 Pd     0.000000    1.637674   10.000000    ( 0.0000,  0.0000,  0.0000)
   1 Pt     2.836535    1.637674   10.000000    ( 0.0000,  0.0000,  0.0000)
   2 Ag     5.673071    1.637674   10.000000    ( 0.0000,  0.0000,  0.0000)
   3 Pd     1.418268    4.094186   10.000000    ( 0.0000,  0.0000,  0.0000)
   4 Ag     4.254803    4.094186   10.000000    ( 0.0000,  0.0000,  0.0000)
   5 Ag     7.091338    4.094186   10.000000    ( 0.0000,  0.0000,  0.0000)
   6 Ag     2.836535    6.550698   10.000000    ( 0.0000,  0.0000,  0.0000)
   7 Pd     5.673071    6.550698   10.000000    ( 0.0000,  0.0000,  0.0000)
   8 Pd     8.509606    6.550698   10.000000    ( 0.0000,  0.0000,  0.0000)
   9 Pd     0.000000    0.000000   12.317643    ( 0.0000,  0.0000,  0.0000)
  10 Pd     2.836535    0.000000   12.317643    ( 0.0000,  0.0000,  0.0000)
  11 Pt     5.673071    0.000000   12.317643    ( 0.0000,  0.0000,  0.0000)
  12 Ir     1.418268    2.456512   12.317643    ( 0.0000,  0.0000,  0.0000)
  13 Pt     4.254803    2.456512   12.317643    ( 0.0000,  0.0000,  0.0000)
  14 Ag     7.091338    2.456512   12.317643    ( 0.0000,  0.0000,  0.0000)
  15 Pt     2.836535    4.913023   12.317643    ( 0.0000,  0.0000,  0.0000)
  16 Pd     5.673071    4.913023   12.317643    ( 0.0000,  0.0000,  0.0000)
  17 Pd     8.509606    4.913023   12.317643    ( 0.0000,  0.0000,  0.0000)
  18 Ag     1.418776    0.824487   14.618343    ( 0.0000,  0.0000,  0.0000)
  19 Ag     4.255255    0.828752   14.639677    ( 0.0000,  0.0000,  0.0000)
  20 Pt     7.081837    0.810765   14.644312    ( 0.0000,  0.0000,  0.0000)
  21 Ru     2.834641    3.343052   14.427248    ( 0.0000,  0.0000,  0.0000)
  22 Pd     5.643450    3.284467   14.678400    ( 0.0000,  0.0000,  0.0000)
  23 Pt     8.540717    3.295872   14.649137    ( 0.0000,  0.0000,  0.0000)
  24 Pt     4.232031    5.666544   14.644227    ( 0.0000,  0.0000,  0.0000)
  25 Pt     7.064757    5.647116   14.685628    ( 0.0000,  0.0000,  0.0000)
  26 Ag     9.925160    5.738048   14.645148    ( 0.0000,  0.0000,  0.0000)
  27 Ag    -0.007842    1.639183   16.962975    ( 0.0000,  0.0000,  0.0000)
  28 Ag     2.851911    1.642409   16.945190    ( 0.0000,  0.0000,  0.0000)
  29 Pt     5.688358    1.690529   16.989196    ( 0.0000,  0.0000,  0.0000)
  30 Ag     1.416008    4.098916   16.956393    ( 0.0000,  0.0000,  0.0000)
  31 Pd     4.247148    4.068198   16.950963    ( 0.0000,  0.0000,  0.0000)
  32 Ru     6.972757    4.122316   16.892361    ( 0.0000,  0.0000,  0.0000)
  33 Pd     2.839268    6.554604   16.974911    ( 0.0000,  0.0000,  0.0000)
  34 Pt     5.708731    6.453979   16.953462    ( 0.0000,  0.0000,  0.0000)
  35 Pd     8.468002    6.529938   16.961350    ( 0.0000,  0.0000,  0.0000)
  36 Pt     0.037880   -0.034132   19.271158    ( 0.0000,  0.0000,  0.0000)
  37 Pt     2.775767    0.077578   19.257242    ( 0.0000,  0.0000,  0.0000)
  38 Ag     5.685250   -0.004293   19.352409    ( 0.0000,  0.0000,  0.0000)
  39 Pt     1.491478    2.444986   19.351712    ( 0.0000,  0.0000,  0.0000)
  40 Ru     4.218938    2.591130   19.174775    ( 0.0000,  0.0000,  0.0000)
  41 Pt     7.056179    2.487376   19.222831    ( 0.0000,  0.0000,  0.0000)
  42 Ir     3.002249    4.799209   19.179708    ( 0.0000,  0.0000,  0.0000)
  43 Pt     5.619062    4.872640   19.229162    ( 0.0000,  0.0000,  0.0000)
  44 Ag     8.518311    4.897957   19.366596    ( 0.0000,  0.0000,  0.0000)

Unit cell:
           periodic     x           y           z      points  spacing
  1. axis:    yes    8.509606    0.000000    0.000000    40     0.1842
  2. axis:    yes    4.254803    7.369535    0.000000    40     0.1842
  3. axis:    no     0.000000    0.000000   29.270571   140     0.2091

  Lengths:   8.509606   8.509606  29.270571
  Angles:   90.000000  90.000000  60.000000

Effective grid spacing dv^(1/3) = 0.2016

     iter     time        total  log10-change:
                         energy  eigst   dens
iter:   1 10:45:38  -188.218735  -3.22
iter:   2 10:46:37  -214.157726  -2.87  -2.13
iter:   3 10:47:36  -187.635916  -3.05  -1.56
iter:   4 10:48:34  -186.553794  -4.18  -2.25
iter:   5 10:49:33  -186.390289  -4.89  -2.65
iter:   6 10:50:32  -186.381828c -5.18  -2.90
iter:   7 10:51:31  -186.366158c -5.70  -2.95
iter:   8 10:52:30  -186.352993c -5.38  -3.09
iter:   9 10:53:28  -186.345955c -5.69  -3.24
iter:  10 10:54:27  -186.353901c -5.98  -3.18
iter:  11 10:55:25  -186.343505c -6.14  -3.30
iter:  12 10:56:23  -186.343845c -6.62  -3.52
iter:  13 10:57:20  -186.343705c -6.56  -3.59
iter:  14 10:58:18  -186.341443c -6.51  -3.63
iter:  15 10:59:16  -186.341656c -6.68  -3.72
iter:  16 11:00:16  -186.347374c -6.94  -3.74
iter:  17 11:01:15  -186.342004c -6.96  -3.57
iter:  18 11:02:13  -186.342233c -7.29  -3.90
iter:  19 11:03:12  -186.342697c -7.63c -4.00c

Converged after 19 iterations.

Dipole moment: (3.486014, 10.274414, -0.238274) |e|*Ang

Energy contributions relative to reference atoms: (reference = -12371315.354956)

Kinetic:       -223.975694
Potential:      +99.032322
External:        +0.000000
XC:             -53.536256
Entropy (-ST):   -1.936211
Local:           -6.894963
--------------------------
Free energy:   -187.310802
Extrapolated:  -186.342697

Showing only first 2 kpts
 Kpt  Band  Eigenvalues  Occupancy
  0   363      0.75356    1.00609
  0   364      0.78546    0.84776
  0   365      0.80857    0.73731
  0   366      0.83215    0.63134

  1   363      0.62379    1.57498
  1   364      0.64933    1.48324
  1   365      0.69358    1.29676
  1   366      0.70839    1.22786


Fermi level: 0.75478

No gap

Forces in eV/Ang:
  0 Pd    0.70619    0.06998    0.11057
  1 Pt   -0.59884   -0.15427    0.57173
  2 Ag   -0.09548   -0.07904   -0.56380
  3 Pd   -0.05239   -0.33532    0.21857
  4 Ag   -0.00666    0.03339   -0.57598
  5 Ag    0.14468    0.16373   -0.49782
  6 Ag    0.04300   -0.00109   -0.48447
  7 Pd    0.22451    0.34591    0.06548
  8 Pd   -0.13307    0.12437    0.19447
  9 Pd    0.06800    0.09809    0.07652
 10 Pd   -0.00820   -0.03161   -0.05440
 11 Pt   -0.01372   -0.12334    0.02908
 12 Ir    0.78261    0.29625    0.06757
 13 Pt   -0.59315   -0.11600    0.28296
 14 Ag    0.10249    0.02119    0.13308
 15 Pt   -0.15942   -0.00542    0.18598
 16 Pd   -0.02900    0.28601    0.20111
 17 Pd    0.09416    0.03045    0.11444
 18 Ag   -0.01489   -0.14861    0.09536
 19 Ag   -0.07210   -0.04675    0.08066
 20 Pt    0.04461    0.01167    0.04644
 21 Ru   -0.22704   -0.20250   -0.13611
 22 Pd   -0.13087   -0.32450   -0.19105
 23 Pt    0.00275   -0.14204   -0.01942
 24 Pt   -0.11982    0.10959   -0.02076
 25 Pt    0.05265    0.09334   -0.24613
 26 Ag   -0.13800    0.21805    0.09572
 27 Ag    0.17921   -0.01669    0.12537
 28 Ag   -0.19227   -0.04748   -0.39168
 29 Pt    0.02477   -0.30488    0.00947
 30 Ag   -0.19089   -0.05404    0.06770
 31 Pd   -0.30270   -0.03362   -0.76946
 32 Ru    0.26513   -0.19348    0.04807
 33 Pd   -0.06618    0.10413    0.12777
 34 Pt   -0.19099    0.18208   -0.06880
 35 Pd    0.05799   -0.00425    0.30871
 36 Pt    0.01328    0.03692   -0.06973
 37 Pt    0.13550   -0.10732   -0.03387
 38 Ag   -0.02224   -0.04982    0.19153
 39 Pt   -0.04278    0.08623    0.16679
 40 Ru    0.06911   -0.16839    0.00923
 41 Pt    0.15000    0.02661   -0.02516
 42 Ir   -0.44373    0.22280    0.08550
 43 Pt    0.65262    0.14413    0.14599
 44 Ag    0.04726    0.00170    0.21705

System changes: positions 

Initializing position-dependent things.

Density initialized from wave functions
                                             
                                             
                                             
                                             
                                             
                  Ir    Pt     Ag            
            Pt                               
                   Ru    PPt    Pd           
       Pt    APt    PAg    Ru                
                                             
        Ag     Ag    PPt    Pt     Ag        
                       Pd                    
                Ru            Pt             
           Ag    PAg    PPt    Pd            
                                             
            Ir    APt    PAg    Pd           
       Pd     Pd     Pt                      
             Pd     Ag     Ag                
        Pd     Pt     Ag                     
                                             
                                             
                                             
                                             
                                             

Positions:
   0 Pd     0.000000    1.637674   10.000000    ( 0.0000,  0.0000,  0.0000)
   1 Pt     2.836535    1.637674   10.000000    ( 0.0000,  0.0000,  0.0000)
   2 Ag     5.673071    1.637674   10.000000    ( 0.0000,  0.0000,  0.0000)
   3 Pd     1.418268    4.094186   10.000000    ( 0.0000,  0.0000,  0.0000)
   4 Ag     4.254803    4.094186   10.000000    ( 0.0000,  0.0000,  0.0000)
   5 Ag     7.091338    4.094186   10.000000    ( 0.0000,  0.0000,  0.0000)
   6 Ag     2.836535    6.550698   10.000000    ( 0.0000,  0.0000,  0.0000)
   7 Pd     5.673071    6.550698   10.000000    ( 0.0000,  0.0000,  0.0000)
   8 Pd     8.509606    6.550698   10.000000    ( 0.0000,  0.0000,  0.0000)
   9 Pd     0.000000    0.000000   12.317643    ( 0.0000,  0.0000,  0.0000)
  10 Pd     2.836535    0.000000   12.317643    ( 0.0000,  0.0000,  0.0000)
  11 Pt     5.673071    0.000000   12.317643    ( 0.0000,  0.0000,  0.0000)
  12 Ir     1.418268    2.456512   12.317643    ( 0.0000,  0.0000,  0.0000)
  13 Pt     4.254803    2.456512   12.317643    ( 0.0000,  0.0000,  0.0000)
  14 Ag     7.091338    2.456512   12.317643    ( 0.0000,  0.0000,  0.0000)
  15 Pt     2.836535    4.913023   12.317643    ( 0.0000,  0.0000,  0.0000)
  16 Pd     5.673071    4.913023   12.317643    ( 0.0000,  0.0000,  0.0000)
  17 Pd     8.509606    4.913023   12.317643    ( 0.0000,  0.0000,  0.0000)
  18 Ag     1.418597    0.822129   14.619924    ( 0.0000,  0.0000,  0.0000)
  19 Ag     4.254029    0.828106   14.640943    ( 0.0000,  0.0000,  0.0000)
  20 Pt     7.082553    0.810984   14.645096    ( 0.0000,  0.0000,  0.0000)
  21 Ru     2.830902    3.339879   14.424110    ( 0.0000,  0.0000,  0.0000)
  22 Pd     5.641136    3.279321   14.675470    ( 0.0000,  0.0000,  0.0000)
  23 Pt     8.540885    3.293583   14.648810    ( 0.0000,  0.0000,  0.0000)
  24 Pt     4.230064    5.667943   14.643952    ( 0.0000,  0.0000,  0.0000)
  25 Pt     7.065453    5.648402   14.681952    ( 0.0000,  0.0000,  0.0000)
  26 Ag     9.922932    5.741582   14.646618    ( 0.0000,  0.0000,  0.0000)
  27 Ag    -0.004884    1.638898   16.964990    ( 0.0000,  0.0000,  0.0000)
  28 Ag     2.848725    1.641825   16.938640    ( 0.0000,  0.0000,  0.0000)
  29 Pt     5.688852    1.685882   16.989454    ( 0.0000,  0.0000,  0.0000)
  30 Ag     1.413079    4.097893   16.957509    ( 0.0000,  0.0000,  0.0000)
  31 Pd     4.242136    4.067551   16.938659    ( 0.0000,  0.0000,  0.0000)
  32 Ru     6.976697    4.119296   16.892883    ( 0.0000,  0.0000,  0.0000)
  33 Pd     2.838384    6.556243   16.977051    ( 0.0000,  0.0000,  0.0000)
  34 Pt     5.705708    6.456518   16.952157    ( 0.0000,  0.0000,  0.0000)
  35 Pd     8.468723    6.529795   16.966407    ( 0.0000,  0.0000,  0.0000)
  36 Pt     0.038273   -0.033624   19.270056    ( 0.0000,  0.0000,  0.0000)
  37 Pt     2.777831    0.075909   19.256832    ( 0.0000,  0.0000,  0.0000)
  38 Ag     5.684822   -0.005100   19.355573    ( 0.0000,  0.0000,  0.0000)
  39 Pt     1.491298    2.446468   19.354533    ( 0.0000,  0.0000,  0.0000)
  40 Ru     4.219543    2.589798   19.174628    ( 0.0000,  0.0000,  0.0000)
  41 Pt     7.058427    2.488033   19.222280    ( 0.0000,  0.0000,  0.0000)
  42 Ir     2.995942    4.801559   19.180734    ( 0.0000,  0.0000,  0.0000)
  43 Pt     5.629263    4.874552   19.231491    ( 0.0000,  0.0000,  0.0000)
  44 Ag     8.518937    4.897969   19.370283    ( 0.0000,  0.0000,  0.0000)

Unit cell:
           periodic     x           y           z      points  spacing
  1. axis:    yes    8.509606    0.000000    0.000000    40     0.1842
  2. axis:    yes    4.254803    7.369535    0.000000    40     0.1842
  3. axis:    no     0.000000    0.000000   29.270571   140     0.2091

  Lengths:   8.509606   8.509606  29.270571
  Angles:   90.000000  90.000000  60.000000

Effective grid spacing dv^(1/3) = 0.2016

     iter     time        total  log10-change:
                         energy  eigst   dens
iter:   1 11:04:29  -186.673660  -4.05
iter:   2 11:05:27  -195.311722  -3.46  -2.45
iter:   3 11:06:25  -186.549588  -3.78  -1.78
iter:   4 11:07:24  -186.387789  -5.00  -2.71
iter:   5 11:08:22  -186.384338c -5.89  -3.22
iter:   6 11:09:21  -186.380613c -6.25  -3.48
iter:   7 11:10:19  -186.378333c -6.32  -3.52
iter:   8 11:11:18  -186.378347c -6.88  -3.44
iter:   9 11:12:18  -186.379202c -6.97  -3.72
iter:  10 11:13:18  -186.377130c -6.95  -3.79
iter:  11 11:14:18  -186.377881c -7.42c -3.68
iter:  12 11:15:17  -186.377853c -7.69c -3.90
iter:  13 11:16:16  -186.377774c -7.64c -3.94
iter:  14 11:17:14  -186.378604c -7.11  -4.05c
iter:  15 11:18:12  -186.378883c -7.89c -4.09c

Converged after 15 iterations.

Dipole moment: (3.743560, 10.370431, -0.242062) |e|*Ang

Energy contributions relative to reference atoms: (reference = -12371315.354956)

Kinetic:       -227.210668
Potential:     +101.944497
External:        +0.000000
XC:             -53.226471
Entropy (-ST):   -1.935881
Local:           -6.918300
--------------------------
Free energy:   -187.346823
Extrapolated:  -186.378883

Showing only first 2 kpts
 Kpt  Band  Eigenvalues  Occupancy
  0   363      0.75195    1.00847
  0   364      0.78426    0.84810
  0   365      0.80680    0.74029
  0   366      0.83069    0.63274

  1   363      0.62271    1.57480
  1   364      0.64814    1.48349
  1   365      0.69185    1.29951
  1   366      0.70784    1.22508


Fermi level: 0.75364

No gap

Forces in eV/Ang:
  0 Pd    0.71278    0.06888    0.11826
  1 Pt   -0.60161   -0.16166    0.57392
  2 Ag   -0.09793   -0.07716   -0.55553
  3 Pd   -0.05342   -0.33690    0.22200
  4 Ag   -0.00578    0.03466   -0.56947
  5 Ag    0.14539    0.16602   -0.49324
  6 Ag    0.04413   -0.00629   -0.47336
  7 Pd    0.22922    0.35085    0.07474
  8 Pd   -0.13843    0.12339    0.20130
  9 Pd    0.06711    0.10181    0.06830
 10 Pd   -0.00949   -0.02115   -0.06122
 11 Pt   -0.01206   -0.12001    0.02785
 12 Ir    0.79608    0.29300    0.08017
 13 Pt   -0.60574   -0.11053    0.29545
 14 Ag    0.10034    0.01779    0.12458
 15 Pt   -0.16190   -0.01966    0.22183
 16 Pd   -0.04303    0.27635    0.20714
 17 Pd    0.10650    0.02413    0.11526
 18 Ag   -0.02538   -0.13613    0.05878
 19 Ag   -0.05924   -0.04586    0.06148
 20 Pt    0.03162    0.01150    0.04198
 21 Ru   -0.20874   -0.13582   -0.17172
 22 Pd   -0.10668   -0.22157   -0.12752
 23 Pt   -0.00373   -0.09402   -0.00463
 24 Pt   -0.10664    0.03834   -0.02016
 25 Pt    0.01507    0.01225   -0.12754
 26 Ag   -0.11553    0.15958    0.09430
 27 Ag    0.14568   -0.01613    0.11230
 28 Ag   -0.15204   -0.01366   -0.28872
 29 Pt    0.00764   -0.19420    0.04527
 30 Ag   -0.14389   -0.04184    0.05770
 31 Pd   -0.22404   -0.03450   -0.50414
 32 Ru    0.11681   -0.13554   -0.01318
 33 Pd   -0.05279    0.05743    0.12175
 34 Pt   -0.14026    0.05133   -0.06453
 35 Pd    0.00304   -0.02586    0.24614
 36 Pt    0.03892   -0.00059   -0.04267
 37 Pt    0.08984   -0.04450   -0.02454
 38 Ag   -0.01147   -0.02419    0.20212
 39 Pt    0.05478    0.06204    0.15468
 40 Ru    0.01707    0.02834   -0.08816
 41 Pt    0.09344    0.03466   -0.02446
 42 Ir   -0.14956    0.06166   -0.00905
 43 Pt    0.38136    0.05067    0.03425
 44 Ag    0.04002   -0.00023    0.23408

System changes: positions 

Initializing position-dependent things.

Density initialized from wave functions
                                             
                                             
                                             
                                             
                                             
                  Ir    Pt     Ag            
             Pt                              
                  PRu    PPt    Pd           
       Pt    APt    PAg    Ru                
                                             
        Ag     Ag    PPt    Pt     Ag        
                                             
                Ru     Pd     Pt             
           Ag    PAg    PPt    Pd            
                                             
            Ir    APt    PAg    Pd           
                                             
       Pd    PPd    APt    Ag                
        Pd     Pt     Ag                     
                                             
                                             
                                             
                                             
                                             

Positions:
   0 Pd     0.000000    1.637674   10.000000    ( 0.0000,  0.0000,  0.0000)
   1 Pt     2.836535    1.637674   10.000000    ( 0.0000,  0.0000,  0.0000)
   2 Ag     5.673071    1.637674   10.000000    ( 0.0000,  0.0000,  0.0000)
   3 Pd     1.418268    4.094186   10.000000    ( 0.0000,  0.0000,  0.0000)
   4 Ag     4.254803    4.094186   10.000000    ( 0.0000,  0.0000,  0.0000)
   5 Ag     7.091338    4.094186   10.000000    ( 0.0000,  0.0000,  0.0000)
   6 Ag     2.836535    6.550698   10.000000    ( 0.0000,  0.0000,  0.0000)
   7 Pd     5.673071    6.550698   10.000000    ( 0.0000,  0.0000,  0.0000)
   8 Pd     8.509606    6.550698   10.000000    ( 0.0000,  0.0000,  0.0000)
   9 Pd     0.000000    0.000000   12.317643    ( 0.0000,  0.0000,  0.0000)
  10 Pd     2.836535    0.000000   12.317643    ( 0.0000,  0.0000,  0.0000)
  11 Pt     5.673071    0.000000   12.317643    ( 0.0000,  0.0000,  0.0000)
  12 Ir     1.418268    2.456512   12.317643    ( 0.0000,  0.0000,  0.0000)
  13 Pt     4.254803    2.456512   12.317643    ( 0.0000,  0.0000,  0.0000)
  14 Ag     7.091338    2.456512   12.317643    ( 0.0000,  0.0000,  0.0000)
  15 Pt     2.836535    4.913023   12.317643    ( 0.0000,  0.0000,  0.0000)
  16 Pd     5.673071    4.913023   12.317643    ( 0.0000,  0.0000,  0.0000)
  17 Pd     8.509606    4.913023   12.317643    ( 0.0000,  0.0000,  0.0000)
  18 Ag     1.417207    0.810722   14.624420    ( 0.0000,  0.0000,  0.0000)
  19 Ag     4.248109    0.825956   14.647657    ( 0.0000,  0.0000,  0.0000)
  20 Pt     7.084498    0.810947   14.650389    ( 0.0000,  0.0000,  0.0000)
  21 Ru     2.811393    3.335250   14.376893    ( 0.0000,  0.0000,  0.0000)
  22 Pd     5.625673    3.257088   14.668370    ( 0.0000,  0.0000,  0.0000)
  23 Pt     8.545859    3.286217   14.649688    ( 0.0000,  0.0000,  0.0000)
  24 Pt     4.216779    5.663560   14.643716    ( 0.0000,  0.0000,  0.0000)
  25 Pt     7.064014    5.640009   14.673960    ( 0.0000,  0.0000,  0.0000)
  26 Ag     9.911480    5.759064   14.655993    ( 0.0000,  0.0000,  0.0000)
  27 Ag     0.008435    1.637630   16.976755    ( 0.0000,  0.0000,  0.0000)
  28 Ag     2.835579    1.640531   16.906819    ( 0.0000,  0.0000,  0.0000)
  29 Pt     5.692891    1.672733   16.997428    ( 0.0000,  0.0000,  0.0000)
  30 Ag     1.398736    4.093776   16.963566    ( 0.0000,  0.0000,  0.0000)
  31 Pd     4.217467    4.060404   16.883005    ( 0.0000,  0.0000,  0.0000)
  32 Ru     6.975057    4.109400   16.884738    ( 0.0000,  0.0000,  0.0000)
  33 Pd     2.834323    6.563755   16.991383    ( 0.0000,  0.0000,  0.0000)
  34 Pt     5.696630    6.451325   16.945646    ( 0.0000,  0.0000,  0.0000)
  35 Pd     8.464626    6.525231   16.992146    ( 0.0000,  0.0000,  0.0000)
  36 Pt     0.046685   -0.037251   19.265297    ( 0.0000,  0.0000,  0.0000)
  37 Pt     2.778412    0.080668   19.252907    ( 0.0000,  0.0000,  0.0000)
  38 Ag     5.684811   -0.009018   19.384775    ( 0.0000,  0.0000,  0.0000)
  39 Pt     1.504268    2.451641   19.380778    ( 0.0000,  0.0000,  0.0000)
  40 Ru     4.216116    2.608457   19.156350    ( 0.0000,  0.0000,  0.0000)
  41 Pt     7.063331    2.496059   19.212624    ( 0.0000,  0.0000,  0.0000)
  42 Ir     2.997061    4.792676   19.169659    ( 0.0000,  0.0000,  0.0000)
  43 Pt     5.665527    4.875674   19.233458    ( 0.0000,  0.0000,  0.0000)
  44 Ag     8.523446    4.895803   19.404458    ( 0.0000,  0.0000,  0.0000)

Unit cell:
           periodic     x           y           z      points  spacing
  1. axis:    yes    8.509606    0.000000    0.000000    40     0.1842
  2. axis:    yes    4.254803    7.369535    0.000000    40     0.1842
  3. axis:    no     0.000000    0.000000   29.270571   140     0.2091

  Lengths:   8.509606   8.509606  29.270571
  Angles:   90.000000  90.000000  60.000000

Effective grid spacing dv^(1/3) = 0.2016

     iter     time        total  log10-change:
                         energy  eigst   dens
iter:   1 11:19:30  -191.660915  -2.80
iter:   2 11:20:28  -274.268123  -2.27  -1.87
iter:   3 11:21:27  -190.677056  -2.74  -1.28
iter:   4 11:22:25  -187.141503  -3.79  -2.04
iter:   5 11:23:24  -186.581232  -4.50  -2.43
iter:   6 11:24:22  -186.520940  -4.91  -2.81
iter:   7 11:25:20  -186.522065c -5.34  -2.89
iter:   8 11:26:18  -186.513860c -5.32  -2.96
iter:   9 11:27:16  -186.498793c -5.36  -3.02
iter:  10 11:28:15  -186.491132c -5.80  -2.98
iter:  11 11:29:13  -186.485588c -5.67  -3.12
iter:  12 11:30:11  -186.485935c -6.19  -3.40
iter:  13 11:31:09  -186.490405c -5.96  -3.54
iter:  14 11:32:08  -186.485274c -6.66  -3.54
iter:  15 11:33:06  -186.488051c -6.61  -3.74
iter:  16 11:34:05  -186.485856c -6.75  -3.72
iter:  17 11:35:03  -186.485285c -7.05  -3.93
iter:  18 11:36:02  -186.485944c -7.25  -4.06c
iter:  19 11:37:02  -186.485618c -7.46c -4.18c

Converged after 19 iterations.

Dipole moment: (2.133709, 10.267195, -0.238795) |e|*Ang

Energy contributions relative to reference atoms: (reference = -12371315.354956)

Kinetic:       -227.002844
Potential:     +101.611239
External:        +0.000000
XC:             -53.223083
Entropy (-ST):   -1.913689
Local:           -6.914085
--------------------------
Free energy:   -187.442463
Extrapolated:  -186.485618

Showing only first 2 kpts
 Kpt  Band  Eigenvalues  Occupancy
  0   363      0.75128    1.01362
  0   364      0.78288    0.85658
  0   365      0.80639    0.74388
  0   366      0.83004    0.63710

  1   363      0.61744    1.59334
  1   364      0.65234    1.46861
  1   365      0.68942    1.31212
  1   366      0.70927    1.22000


Fermi level: 0.75400

No gap

Forces in eV/Ang:
  0 Pd    0.71632    0.06936    0.08968
  1 Pt   -0.61008   -0.16485    0.53507
  2 Ag   -0.09679   -0.08043   -0.56981
  3 Pd   -0.06084   -0.33557    0.19319
  4 Ag   -0.00253    0.03816   -0.58272
  5 Ag    0.14774    0.16821   -0.50320
  6 Ag    0.04319   -0.00544   -0.48736
  7 Pd    0.22889    0.35083    0.05906
  8 Pd   -0.13669    0.12237    0.18765
  9 Pd    0.07124    0.10479    0.07660
 10 Pd   -0.00887   -0.02013   -0.05389
 11 Pt   -0.01883   -0.11000    0.04444
 12 Ir    0.74122    0.22113    0.02229
 13 Pt   -0.55595   -0.17661    0.20759
 14 Ag    0.10453    0.01358    0.12616
 15 Pt   -0.18291    0.11897    0.09044
 16 Pd   -0.05127    0.27742    0.20920
 17 Pd    0.11312    0.02333    0.11984
 18 Ag   -0.07055   -0.13946   -0.03204
 19 Ag   -0.05016   -0.09386    0.00344
 20 Pt    0.03587    0.01731    0.03729
 21 Ru   -0.20582   -0.16454    0.19561
 22 Pd    0.01427   -0.11282   -0.14490
 23 Pt   -0.05465   -0.06857   -0.00783
 24 Pt   -0.06109    0.09989   -0.10654
 25 Pt   -0.01821    0.00173   -0.05738
 26 Ag   -0.08427    0.03823    0.09145
 27 Ag    0.06919   -0.02601    0.06405
 28 Ag   -0.08097   -0.01343   -0.06658
 29 Pt   -0.05287   -0.12307    0.03019
 30 Ag   -0.13359    0.00566    0.06155
 31 Pd   -0.10207   -0.02925   -0.12094
 32 Ru    0.04922   -0.11826    0.00415
 33 Pd   -0.08005    0.02058    0.09336
 34 Pt   -0.10613   -0.00728   -0.05145
 35 Pd   -0.02513   -0.02234    0.18411
 36 Pt    0.01296    0.00109   -0.00036
 37 Pt    0.10852   -0.05591   -0.02812
 38 Ag    0.00845    0.01403    0.15312
 39 Pt    0.02066    0.04773    0.04716
 40 Ru    0.08296   -0.09804   -0.13064
 41 Pt    0.12037   -0.01324    0.03742
 42 Ir   -0.00063    0.18015   -0.03780
 43 Pt    0.10131    0.04370   -0.13523
 44 Ag    0.08151    0.00302    0.19029

System changes: positions 

Initializing position-dependent things.

Density initialized from wave functions
                                             
                                             
                                             
                                             
                                             
                  Ir    Pt     Ag            
             Pt                              
                  PRu    PPt    Pd           
       Pt    APt    PAg    Ru                
                                             
        Ag     Ag    PPt    Pt     Ag        
                                             
                Ru     Pd     Pt             
           Ag    PAg    PPt    Pd            
                                             
            Ir    APt    PAg    Pd           
                                             
       Pd    PPd    APt    Ag                
        Pd     Pt     Ag                     
                                             
                                             
                                             
                                             
                                             

Positions:
   0 Pd     0.000000    1.637674   10.000000    ( 0.0000,  0.0000,  0.0000)
   1 Pt     2.836535    1.637674   10.000000    ( 0.0000,  0.0000,  0.0000)
   2 Ag     5.673071    1.637674   10.000000    ( 0.0000,  0.0000,  0.0000)
   3 Pd     1.418268    4.094186   10.000000    ( 0.0000,  0.0000,  0.0000)
   4 Ag     4.254803    4.094186   10.000000    ( 0.0000,  0.0000,  0.0000)
   5 Ag     7.091338    4.094186   10.000000    ( 0.0000,  0.0000,  0.0000)
   6 Ag     2.836535    6.550698   10.000000    ( 0.0000,  0.0000,  0.0000)
   7 Pd     5.673071    6.550698   10.000000    ( 0.0000,  0.0000,  0.0000)
   8 Pd     8.509606    6.550698   10.000000    ( 0.0000,  0.0000,  0.0000)
   9 Pd     0.000000    0.000000   12.317643    ( 0.0000,  0.0000,  0.0000)
  10 Pd     2.836535    0.000000   12.317643    ( 0.0000,  0.0000,  0.0000)
  11 Pt     5.673071    0.000000   12.317643    ( 0.0000,  0.0000,  0.0000)
  12 Ir     1.418268    2.456512   12.317643    ( 0.0000,  0.0000,  0.0000)
  13 Pt     4.254803    2.456512   12.317643    ( 0.0000,  0.0000,  0.0000)
  14 Ag     7.091338    2.456512   12.317643    ( 0.0000,  0.0000,  0.0000)
  15 Pt     2.836535    4.913023   12.317643    ( 0.0000,  0.0000,  0.0000)
  16 Pd     5.673071    4.913023   12.317643    ( 0.0000,  0.0000,  0.0000)
  17 Pd     8.509606    4.913023   12.317643    ( 0.0000,  0.0000,  0.0000)
  18 Ag     1.414863    0.801086   14.626428    ( 0.0000,  0.0000,  0.0000)
  19 Ag     4.243587    0.822600   14.651503    ( 0.0000,  0.0000,  0.0000)
  20 Pt     7.086487    0.811393   14.654172    ( 0.0000,  0.0000,  0.0000)
  21 Ru     2.795677    3.328395   14.355758    ( 0.0000,  0.0000,  0.0000)
  22 Pd     5.617353    3.241859   14.660782    ( 0.0000,  0.0000,  0.0000)
  23 Pt     8.547262    3.280312   14.649886    ( 0.0000,  0.0000,  0.0000)
  24 Pt     4.208033    5.663707   14.641150    ( 0.0000,  0.0000,  0.0000)
  25 Pt     7.062954    5.635910   14.667809    ( 0.0000,  0.0000,  0.0000)
  26 Ag     9.903102    5.769828   14.663252    ( 0.0000,  0.0000,  0.0000)
  27 Ag     0.017655    1.636308   16.984791    ( 0.0000,  0.0000,  0.0000)
  28 Ag     2.826120    1.639524   16.887177    ( 0.0000,  0.0000,  0.0000)
  29 Pt     5.693925    1.662154   17.002368    ( 0.0000,  0.0000,  0.0000)
  30 Ag     1.387665    4.091453   16.968370    ( 0.0000,  0.0000,  0.0000)
  31 Pd     4.201147    4.055858   16.848648    ( 0.0000,  0.0000,  0.0000)
  32 Ru     6.976110    4.100920   16.880612    ( 0.0000,  0.0000,  0.0000)
  33 Pd     2.830280    6.568449   17.001471    ( 0.0000,  0.0000,  0.0000)
  34 Pt     5.688809    6.448880   16.940704    ( 0.0000,  0.0000,  0.0000)
  35 Pd     8.462002    6.522283   17.010876    ( 0.0000,  0.0000,  0.0000)
  36 Pt     0.051512   -0.039033   19.262581    ( 0.0000,  0.0000,  0.0000)
  37 Pt     2.781635    0.081485   19.250214    ( 0.0000,  0.0000,  0.0000)
  38 Ag     5.684860   -0.010902   19.404145    ( 0.0000,  0.0000,  0.0000)
  39 Pt     1.511686    2.455794   19.396136    ( 0.0000,  0.0000,  0.0000)
  40 Ru     4.216118    2.616288   19.143736    ( 0.0000,  0.0000,  0.0000)
  41 Pt     7.069043    2.500166   19.208306    ( 0.0000,  0.0000,  0.0000)
  42 Ir     2.996580    4.792114   19.163151    ( 0.0000,  0.0000,  0.0000)
  43 Pt     5.688799    4.877474   19.231919    ( 0.0000,  0.0000,  0.0000)
  44 Ag     8.527702    4.894758   19.427416    ( 0.0000,  0.0000,  0.0000)

Unit cell:
           periodic     x           y           z      points  spacing
  1. axis:    yes    8.509606    0.000000    0.000000    40     0.1842
  2. axis:    yes    4.254803    7.369535    0.000000    40     0.1842
  3. axis:    no     0.000000    0.000000   29.270571   140     0.2091

  Lengths:   8.509606   8.509606  29.270571
  Angles:   90.000000  90.000000  60.000000

Effective grid spacing dv^(1/3) = 0.2016

     iter     time        total  log10-change:
                         energy  eigst   dens
iter:   1 11:38:20  -187.400816  -3.20
iter:   2 11:39:19  -207.018203  -3.02  -2.22
iter:   3 11:40:17  -186.865915  -3.35  -1.60
iter:   4 11:41:16  -186.537358  -4.56  -2.55
iter:   5 11:42:15  -186.533789c -5.44  -3.06
iter:   6 11:43:13  -186.525040c -5.70  -3.16
iter:   7 11:44:12  -186.527528c -6.11  -3.11
iter:   8 11:45:11  -186.516828c -5.64  -3.30
iter:   9 11:46:10  -186.518481c -6.26  -3.27
iter:  10 11:47:09  -186.516455c -6.43  -3.63
iter:  11 11:48:08  -186.518137c -6.51  -3.51
iter:  12 11:49:06  -186.519087c -6.79  -3.72
iter:  13 11:50:05  -186.517040c -7.07  -3.78
iter:  14 11:51:04  -186.517937c -7.07  -3.96
iter:  15 11:52:03  -186.518512c -7.24  -3.94
iter:  16 11:53:03  -186.517501c -7.48c -3.92
iter:  17 11:54:02  -186.517259c -7.62c -4.14c

Converged after 17 iterations.

Dipole moment: (1.250494, 10.203884, -0.241141) |e|*Ang

Energy contributions relative to reference atoms: (reference = -12371315.354956)

Kinetic:       -227.820771
Potential:     +102.327446
External:        +0.000000
XC:             -53.151371
Entropy (-ST):   -1.901778
Local:           -6.921675
--------------------------
Free energy:   -187.468148
Extrapolated:  -186.517259

Showing only first 2 kpts
 Kpt  Band  Eigenvalues  Occupancy
  0   363      0.75177    1.01435
  0   364      0.78225    0.86284
  0   365      0.80572    0.75003
  0   366      0.82991    0.64049

  1   363      0.61635    1.59893
  1   364      0.65438    1.46314
  1   365      0.68774    1.32257
  1   366      0.70830    1.22764


Fermi level: 0.75464

No gap

Forces in eV/Ang:
  0 Pd    0.70868    0.06593    0.08895
  1 Pt   -0.60589   -0.16084    0.53498
  2 Ag   -0.09556   -0.08028   -0.56594
  3 Pd   -0.05603   -0.33464    0.19316
  4 Ag   -0.00223    0.03777   -0.58124
  5 Ag    0.14392    0.16640   -0.49713
  6 Ag    0.04302   -0.00554   -0.48401
  7 Pd    0.22579    0.34703    0.06686
  8 Pd   -0.13320    0.12477    0.19391
  9 Pd    0.06415    0.11167    0.06645
 10 Pd   -0.00953   -0.02488   -0.06806
 11 Pt   -0.01353   -0.10514    0.04885
 12 Ir    0.67906    0.16196   -0.05477
 13 Pt   -0.52185   -0.20891    0.14714
 14 Ag    0.10847    0.00563    0.11449
 15 Pt   -0.19111    0.19545    0.02955
 16 Pd   -0.05810    0.27213    0.20090
 17 Pd    0.11494    0.02083    0.11825
 18 Ag   -0.09761   -0.14223   -0.08378
 19 Ag   -0.03294   -0.11112   -0.02322
 20 Pt    0.01860    0.01663    0.01654
 21 Ru   -0.13996   -0.10402    0.38789
 22 Pd    0.06334   -0.01552   -0.10417
 23 Pt   -0.09880   -0.02502    0.01426
 24 Pt   -0.04134    0.07366   -0.13061
 25 Pt   -0.04916   -0.04304    0.03222
 26 Ag   -0.05084   -0.05426    0.09045
 27 Ag    0.01336   -0.02738    0.03896
 28 Ag   -0.01835   -0.00248    0.09341
 29 Pt   -0.09904   -0.03434    0.04580
 30 Ag   -0.10551    0.03799    0.06041
 31 Pd   -0.03509   -0.04244    0.09013
 32 Ru   -0.03801   -0.06965   -0.02036
 33 Pd   -0.09007   -0.02935    0.08079
 34 Pt   -0.05250   -0.08761   -0.04732
 35 Pd   -0.06235   -0.03351    0.13576
 36 Pt    0.00028   -0.01658    0.03934
 37 Pt    0.09922    0.00059   -0.02983
 38 Ag    0.03051    0.05713    0.13255
 39 Pt    0.04319    0.00388   -0.02299
 40 Ru    0.11327   -0.11563   -0.14079
 41 Pt    0.08754   -0.06216    0.07328
 42 Ir    0.15074    0.20637   -0.04339
 43 Pt   -0.11988    0.00924   -0.21278
 44 Ag    0.11183    0.01015    0.15743

System changes: positions 

Initializing position-dependent things.

Density initialized from wave functions
                                             
                                             
                                             
                                             
                                             
                  Ir    Pt     Ag            
                                             
             Pt   PRu    PPt    Pd           
       Pt     Pt     Ag                      
             Ag     Pd     Ru                
        Ag     Ag     Pt           Ag        
                     Pt     Pt               
                Ru     Pd     Pt             
                                             
           Ag    PAg    PPt    Pd            
                                             
            Ir    APt    PAg    Pd           
       Pd    PPd    APt    Ag                
                                             
        Pd     Pt     Ag                     
                                             
                                             
                                             
                                             
                                             

Positions:
   0 Pd     0.000000    1.637674   10.000000    ( 0.0000,  0.0000,  0.0000)
   1 Pt     2.836535    1.637674   10.000000    ( 0.0000,  0.0000,  0.0000)
   2 Ag     5.673071    1.637674   10.000000    ( 0.0000,  0.0000,  0.0000)
   3 Pd     1.418268    4.094186   10.000000    ( 0.0000,  0.0000,  0.0000)
   4 Ag     4.254803    4.094186   10.000000    ( 0.0000,  0.0000,  0.0000)
   5 Ag     7.091338    4.094186   10.000000    ( 0.0000,  0.0000,  0.0000)
   6 Ag     2.836535    6.550698   10.000000    ( 0.0000,  0.0000,  0.0000)
   7 Pd     5.673071    6.550698   10.000000    ( 0.0000,  0.0000,  0.0000)
   8 Pd     8.509606    6.550698   10.000000    ( 0.0000,  0.0000,  0.0000)
   9 Pd     0.000000    0.000000   12.317643    ( 0.0000,  0.0000,  0.0000)
  10 Pd     2.836535    0.000000   12.317643    ( 0.0000,  0.0000,  0.0000)
  11 Pt     5.673071    0.000000   12.317643    ( 0.0000,  0.0000,  0.0000)
  12 Ir     1.418268    2.456512   12.317643    ( 0.0000,  0.0000,  0.0000)
  13 Pt     4.254803    2.456512   12.317643    ( 0.0000,  0.0000,  0.0000)
  14 Ag     7.091338    2.456512   12.317643    ( 0.0000,  0.0000,  0.0000)
  15 Pt     2.836535    4.913023   12.317643    ( 0.0000,  0.0000,  0.0000)
  16 Pd     5.673071    4.913023   12.317643    ( 0.0000,  0.0000,  0.0000)
  17 Pd     8.509606    4.913023   12.317643    ( 0.0000,  0.0000,  0.0000)
  18 Ag     1.412488    0.795637   14.625841    ( 0.0000,  0.0000,  0.0000)
  19 Ag     4.241639    0.819593   14.652259    ( 0.0000,  0.0000,  0.0000)
  20 Pt     7.087504    0.811907   14.655505    ( 0.0000,  0.0000,  0.0000)
  21 Ru     2.788504    3.323834   14.358000    ( 0.0000,  0.0000,  0.0000)
  22 Pd     5.616152    3.236863   14.656270    ( 0.0000,  0.0000,  0.0000)
  23 Pt     8.545661    3.277875   14.650056    ( 0.0000,  0.0000,  0.0000)
  24 Pt     4.204883    5.665616   14.638100    ( 0.0000,  0.0000,  0.0000)
  25 Pt     7.062072    5.634803   14.665996    ( 0.0000,  0.0000,  0.0000)
  26 Ag     9.899695    5.772150   14.666916    ( 0.0000,  0.0000,  0.0000)
  27 Ag     0.020831    1.635424   16.987835    ( 0.0000,  0.0000,  0.0000)
  28 Ag     2.822710    1.639171   16.882787    ( 0.0000,  0.0000,  0.0000)
  29 Pt     5.692389    1.657793   17.004313    ( 0.0000,  0.0000,  0.0000)
  30 Ag     1.382547    4.091307   16.970824    ( 0.0000,  0.0000,  0.0000)
  31 Pd     4.195621    4.054032   16.839691    ( 0.0000,  0.0000,  0.0000)
  32 Ru     6.977030    4.096860   16.879601    ( 0.0000,  0.0000,  0.0000)
  33 Pd     2.827510    6.569298   17.005715    ( 0.0000,  0.0000,  0.0000)
  34 Pt     5.685128    6.447626   16.938356    ( 0.0000,  0.0000,  0.0000)
  35 Pd     8.460557    6.521010   17.018827    ( 0.0000,  0.0000,  0.0000)
  36 Pt     0.052612   -0.039520   19.262419    ( 0.0000,  0.0000,  0.0000)
  37 Pt     2.784966    0.080935   19.249053    ( 0.0000,  0.0000,  0.0000)
  38 Ag     5.685252   -0.010441   19.411457    ( 0.0000,  0.0000,  0.0000)
  39 Pt     1.514027    2.457247   19.399571    ( 0.0000,  0.0000,  0.0000)
  40 Ru     4.218344    2.615539   19.138485    ( 0.0000,  0.0000,  0.0000)
  41 Pt     7.072599    2.500047   19.208751    ( 0.0000,  0.0000,  0.0000)
  42 Ir     2.997355    4.796470   19.161380    ( 0.0000,  0.0000,  0.0000)
  43 Pt     5.694385    4.878524   19.228287    ( 0.0000,  0.0000,  0.0000)
  44 Ag     8.530774    4.894786   19.436092    ( 0.0000,  0.0000,  0.0000)

Unit cell:
           periodic     x           y           z      points  spacing
  1. axis:    yes    8.509606    0.000000    0.000000    40     0.1842
  2. axis:    yes    4.254803    7.369535    0.000000    40     0.1842
  3. axis:    no     0.000000    0.000000   29.270571   140     0.2091

  Lengths:   8.509606   8.509606  29.270571
  Angles:   90.000000  90.000000  60.000000

Effective grid spacing dv^(1/3) = 0.2016

     iter     time        total  log10-change:
                         energy  eigst   dens
iter:   1 11:55:20  -187.124018  -4.03
iter:   2 11:56:18  -202.372271  -3.20  -2.30
iter:   3 11:57:17  -186.759066  -3.51  -1.66
iter:   4 11:58:16  -186.540251  -4.84  -2.65
iter:   5 11:59:14  -186.543977c -5.67  -3.30
iter:   6 12:00:13  -186.533403c -5.99  -3.35
iter:   7 12:01:11  -186.531519c -6.34  -3.55
iter:   8 12:02:10  -186.536068c -6.44  -3.61
iter:   9 12:03:09  -186.530210c -6.63  -3.55
iter:  10 12:04:08  -186.528954c -6.90  -3.79
iter:  11 12:05:07  -186.530925c -7.30  -3.82
iter:  12 12:06:06  -186.529997c -7.39  -4.01c
iter:  13 12:07:05  -186.529944c -7.51c -4.11c

Converged after 13 iterations.

Dipole moment: (0.924457, 10.096757, -0.239732) |e|*Ang

Energy contributions relative to reference atoms: (reference = -12371315.354956)

Kinetic:       -228.074931
Potential:     +102.499731
External:        +0.000000
XC:             -53.077426
Entropy (-ST):   -1.901501
Local:           -6.926568
--------------------------
Free energy:   -187.480694
Extrapolated:  -186.529944

Showing only first 2 kpts
 Kpt  Band  Eigenvalues  Occupancy
  0   363      0.75412    1.01351
  0   364      0.78431    0.86343
  0   365      0.80683    0.75506
  0   366      0.83188    0.64141

  1   363      0.61873    1.59828
  1   364      0.65535    1.46790
  1   365      0.68898    1.32679
  1   366      0.70998    1.23005


Fermi level: 0.75682

No gap

Forces in eV/Ang:
  0 Pd    0.72242    0.06458    0.10383
  1 Pt   -0.61631   -0.16686    0.54883
  2 Ag   -0.09917   -0.08290   -0.55461
  3 Pd   -0.05595   -0.33948    0.20659
  4 Ag   -0.00738    0.03618   -0.56657
  5 Ag    0.14848    0.16976   -0.48746
  6 Ag    0.04267   -0.00703   -0.46925
  7 Pd    0.23283    0.35862    0.08038
  8 Pd   -0.14040    0.12576    0.20842
  9 Pd    0.05327    0.10679    0.04337
 10 Pd    0.00074   -0.02448   -0.08507
 11 Pt   -0.01577   -0.11132    0.06635
 12 Ir    0.69356    0.17338   -0.06608
 13 Pt   -0.55112   -0.19732    0.16558
 14 Ag    0.10543    0.00215    0.10711
 15 Pt   -0.20393    0.16214    0.07295
 16 Pd   -0.06621    0.26729    0.19884
 17 Pd    0.13012    0.02434    0.12650
 18 Ag   -0.08293   -0.10554   -0.09238
 19 Ag   -0.01626   -0.09401   -0.02924
 20 Pt   -0.02460   -0.00005    0.00906
 21 Ru   -0.08377   -0.03628    0.31406
 22 Pd    0.05709    0.05081   -0.05475
 23 Pt   -0.08915    0.00970    0.01190
 24 Pt   -0.04912    0.00516   -0.11749
 25 Pt   -0.04543   -0.07512    0.05937
 26 Ag   -0.02130   -0.08955    0.07280
 27 Ag   -0.02459   -0.03369    0.01894
 28 Ag    0.00315   -0.00261    0.12174
 29 Pt   -0.08775    0.01057    0.01136
 30 Ag   -0.07782    0.04337    0.04487
 31 Pd    0.01990   -0.02937    0.16505
 32 Ru   -0.08820   -0.04649   -0.03651
 33 Pd   -0.06953   -0.04364    0.01183
 34 Pt   -0.02740   -0.11431   -0.03717
 35 Pd   -0.06762   -0.03119    0.04742
 36 Pt    0.03556   -0.00555    0.04413
 37 Pt    0.03059    0.03383   -0.02830
 38 Ag    0.03969    0.06859    0.11837
 39 Pt    0.07651   -0.01380   -0.04445
 40 Ru    0.06671   -0.04792   -0.14345
 41 Pt    0.06447   -0.04654    0.05641
 42 Ir    0.21381    0.11252   -0.07297
 43 Pt   -0.16616   -0.02151   -0.22239
 44 Ag    0.09473   -0.00376    0.13701

System changes: positions 

Initializing position-dependent things.

Density initialized from wave functions
                                             
                                             
                                             
                                             
                                             
                  Ir    Pt     Ag            
                                             
             Pt   PRu    PPt    Pd           
       Pt     Pt     Ag                      
             Ag     Pd     Ru                
        Ag     Ag     Pt           Ag        
                     Pt     Pt               
                Ru     Pd     Pt             
                                             
           Ag    PAg    PPt    Pd            
                                             
            Ir     Pt    PAg    Pd           
       Pd    PPd    APt    Ag                
                                             
        Pd     Pt     Ag                     
                                             
                                             
                                             
                                             
                                             

Positions:
   0 Pd     0.000000    1.637674   10.000000    ( 0.0000,  0.0000,  0.0000)
   1 Pt     2.836535    1.637674   10.000000    ( 0.0000,  0.0000,  0.0000)
   2 Ag     5.673071    1.637674   10.000000    ( 0.0000,  0.0000,  0.0000)
   3 Pd     1.418268    4.094186   10.000000    ( 0.0000,  0.0000,  0.0000)
   4 Ag     4.254803    4.094186   10.000000    ( 0.0000,  0.0000,  0.0000)
   5 Ag     7.091338    4.094186   10.000000    ( 0.0000,  0.0000,  0.0000)
   6 Ag     2.836535    6.550698   10.000000    ( 0.0000,  0.0000,  0.0000)
   7 Pd     5.673071    6.550698   10.000000    ( 0.0000,  0.0000,  0.0000)
   8 Pd     8.509606    6.550698   10.000000    ( 0.0000,  0.0000,  0.0000)
   9 Pd     0.000000    0.000000   12.317643    ( 0.0000,  0.0000,  0.0000)
  10 Pd     2.836535    0.000000   12.317643    ( 0.0000,  0.0000,  0.0000)
  11 Pt     5.673071    0.000000   12.317643    ( 0.0000,  0.0000,  0.0000)
  12 Ir     1.418268    2.456512   12.317643    ( 0.0000,  0.0000,  0.0000)
  13 Pt     4.254803    2.456512   12.317643    ( 0.0000,  0.0000,  0.0000)
  14 Ag     7.091338    2.456512   12.317643    ( 0.0000,  0.0000,  0.0000)
  15 Pt     2.836535    4.913023   12.317643    ( 0.0000,  0.0000,  0.0000)
  16 Pd     5.673071    4.913023   12.317643    ( 0.0000,  0.0000,  0.0000)
  17 Pd     8.509606    4.913023   12.317643    ( 0.0000,  0.0000,  0.0000)
  18 Ag     1.407623    0.787387   14.622339    ( 0.0000,  0.0000,  0.0000)
  19 Ag     4.239411    0.813696   14.651820    ( 0.0000,  0.0000,  0.0000)
  20 Pt     7.087818    0.812474   14.656890    ( 0.0000,  0.0000,  0.0000)
  21 Ru     2.779421    3.317736   14.373189    ( 0.0000,  0.0000,  0.0000)
  22 Pd     5.617586    3.234113   14.649946    ( 0.0000,  0.0000,  0.0000)
  23 Pt     8.540981    3.275825   14.650419    ( 0.0000,  0.0000,  0.0000)
  24 Pt     4.200931    5.668511   14.631340    ( 0.0000,  0.0000,  0.0000)
  25 Pt     7.060077    5.632388   14.665813    ( 0.0000,  0.0000,  0.0000)
  26 Ag     9.896069    5.771072   14.672382    ( 0.0000,  0.0000,  0.0000)
  27 Ag     0.022785    1.633554   16.990922    ( 0.0000,  0.0000,  0.0000)
  28 Ag     2.819809    1.638681   16.883401    ( 0.0000,  0.0000,  0.0000)
  29 Pt     5.687937    1.653784   17.006001    ( 0.0000,  0.0000,  0.0000)
  30 Ag     1.375539    4.092648   16.974392    ( 0.0000,  0.0000,  0.0000)
[...]
  10 Pd     2.836535    0.000000   12.317643    ( 0.0000,  0.0000,  0.0000)
  11 Pt     5.673071    0.000000   12.317643    ( 0.0000,  0.0000,  0.0000)
  12 Ir     1.418268    2.456512   12.317643    ( 0.0000,  0.0000,  0.0000)
  13 Pt     4.254803    2.456512   12.317643    ( 0.0000,  0.0000,  0.0000)
  14 Ag     7.091338    2.456512   12.317643    ( 0.0000,  0.0000,  0.0000)
  15 Pt     2.836535    4.913023   12.317643    ( 0.0000,  0.0000,  0.0000)
  16 Pd     5.673071    4.913023   12.317643    ( 0.0000,  0.0000,  0.0000)
  17 Pd     8.509606    4.913023   12.317643    ( 0.0000,  0.0000,  0.0000)
  18 Ag     1.386519    0.764607   14.613454    ( 0.0000,  0.0000,  0.0000)
  19 Ag     4.215622    0.786181   14.657351    ( 0.0000,  0.0000,  0.0000)
  20 Pt     7.059866    0.795766   14.661496    ( 0.0000,  0.0000,  0.0000)
  21 Ru     2.751721    3.304023   14.389526    ( 0.0000,  0.0000,  0.0000)
  22 Pd     5.600908    3.217559   14.639844    ( 0.0000,  0.0000,  0.0000)
  23 Pt     8.521686    3.250598   14.665892    ( 0.0000,  0.0000,  0.0000)
  24 Pt     4.168586    5.651776   14.616744    ( 0.0000,  0.0000,  0.0000)
  25 Pt     7.046608    5.607425   14.666490    ( 0.0000,  0.0000,  0.0000)
  26 Ag     9.873568    5.742616   14.696862    ( 0.0000,  0.0000,  0.0000)
  27 Ag     0.006299    1.604818   16.988971    ( 0.0000,  0.0000,  0.0000)
  28 Ag     2.789885    1.617402   16.880706    ( 0.0000,  0.0000,  0.0000)
  29 Pt     5.666287    1.636699   17.009288    ( 0.0000,  0.0000,  0.0000)
  30 Ag     1.335359    4.089084   17.019798    ( 0.0000,  0.0000,  0.0000)
  31 Pd     4.154462    4.033898   16.810427    ( 0.0000,  0.0000,  0.0000)
  32 Ru     6.952257    4.057929   16.871154    ( 0.0000,  0.0000,  0.0000)
  33 Pd     2.788166    6.567037   17.026726    ( 0.0000,  0.0000,  0.0000)
  34 Pt     5.650710    6.425550   16.904883    ( 0.0000,  0.0000,  0.0000)
  35 Pd     8.427316    6.499979   17.070069    ( 0.0000,  0.0000,  0.0000)
  36 Pt     0.077692   -0.040450   19.274701    ( 0.0000,  0.0000,  0.0000)
  37 Pt     2.813617    0.087826   19.256784    ( 0.0000,  0.0000,  0.0000)
  38 Ag     5.712309    0.011764   19.491159    ( 0.0000,  0.0000,  0.0000)
  39 Pt     1.555809    2.471426   19.389211    ( 0.0000,  0.0000,  0.0000)
  40 Ru     4.240812    2.598399   19.105748    ( 0.0000,  0.0000,  0.0000)
  41 Pt     7.120846    2.492009   19.220289    ( 0.0000,  0.0000,  0.0000)
  42 Ir     3.041169    4.829862   19.149280    ( 0.0000,  0.0000,  0.0000)
  43 Pt     5.727444    4.859972   19.160285    ( 0.0000,  0.0000,  0.0000)
  44 Ag     8.574316    4.899052   19.532538    ( 0.0000,  0.0000,  0.0000)

Unit cell:
           periodic     x           y           z      points  spacing
  1. axis:    yes    8.509606    0.000000    0.000000    40     0.1842
  2. axis:    yes    4.254803    7.369535    0.000000    40     0.1842
  3. axis:    no     0.000000    0.000000   29.270571   140     0.2091

  Lengths:   8.509606   8.509606  29.270571
  Angles:   90.000000  90.000000  60.000000

Effective grid spacing dv^(1/3) = 0.2016

     iter     time        total  log10-change:
                         energy  eigst   dens
iter:   1 13:36:24  -186.769671  -3.62
iter:   2 13:37:23  -190.951572  -3.78  -2.59
iter:   3 13:38:21  -186.648404  -4.02  -1.92
iter:   4 13:39:19  -186.624151  -5.27  -3.02
iter:   5 13:40:18  -186.617664c -5.76  -2.96
iter:   6 13:41:16  -186.611241c -6.26  -3.36
iter:   7 13:42:15  -186.609016c -6.27  -3.43
iter:   8 13:43:13  -186.609800c -6.59  -3.38
iter:   9 13:44:12  -186.610728c -6.69  -3.63
iter:  10 13:45:10  -186.609709c -6.85  -3.82
iter:  11 13:46:08  -186.610943c -6.90  -3.85
iter:  12 13:47:06  -186.610504c -7.22  -4.00c
iter:  13 13:48:04  -186.609741c -7.44c -4.17c

Converged after 13 iterations.

Dipole moment: (-6.033217, 7.085731, -0.225682) |e|*Ang

Energy contributions relative to reference atoms: (reference = -12371315.354956)

Kinetic:       -232.052331
Potential:     +105.924862
External:        +0.000000
XC:             -52.611093
Entropy (-ST):   -1.895598
Local:           -6.923380
--------------------------
Free energy:   -187.557540
Extrapolated:  -186.609741

Showing only first 2 kpts
 Kpt  Band  Eigenvalues  Occupancy
  0   363      0.75621    1.00912
  0   364      0.78836    0.84951
  0   365      0.80232    0.78212
  0   366      0.82842    0.66194

  1   363      0.62223    1.59090
  1   364      0.65213    1.48503
  1   365      0.68210    1.36244
  1   366      0.71041    1.23372


Fermi level: 0.75804

No gap

Forces in eV/Ang:
  0 Pd    0.70874    0.06455    0.08853
  1 Pt   -0.60882   -0.16239    0.54318
  2 Ag   -0.09643   -0.08044   -0.56425
  3 Pd   -0.05167   -0.33059    0.20006
  4 Ag   -0.00382    0.03585   -0.57571
  5 Ag    0.14413    0.16682   -0.49991
  6 Ag    0.04146   -0.00561   -0.48159
  7 Pd    0.23359    0.35012    0.05982
  8 Pd   -0.13256    0.13031    0.18837
  9 Pd    0.00807    0.08891   -0.00141
 10 Pd   -0.00919   -0.04315   -0.10049
 11 Pt   -0.04370   -0.15464    0.13888
 12 Ir    0.67836    0.15174   -0.01110
 13 Pt   -0.66110   -0.19983    0.25465
 14 Ag    0.11399   -0.01544    0.10111
 15 Pt   -0.28947    0.02443    0.15764
 16 Pd   -0.06954    0.26629    0.16581
 17 Pd    0.13771   -0.00639    0.17371
 18 Ag   -0.04354   -0.02286   -0.05929
 19 Ag    0.00023   -0.02232   -0.00980
 20 Pt    0.01566   -0.02088   -0.03733
 21 Ru   -0.00947   -0.01532   -0.04071
 22 Pd    0.02256    0.01594    0.02721
 23 Pt   -0.00261    0.02840   -0.02530
 24 Pt    0.03661    0.03992   -0.01075
 25 Pt   -0.04666   -0.04003    0.05302
 26 Ag   -0.03169   -0.01574    0.00851
 27 Ag   -0.03205   -0.00750   -0.00838
 28 Ag    0.03399    0.01179    0.04767
 29 Pt   -0.04496    0.03617    0.08355
 30 Ag   -0.01705   -0.00724   -0.03507
 31 Pd    0.00217   -0.04086    0.13412
 32 Ru   -0.05509    0.06352   -0.04948
 33 Pd   -0.02318   -0.06105    0.03573
 34 Pt    0.04149   -0.10493    0.04578
 35 Pd   -0.03296   -0.02843   -0.00610
 36 Pt    0.03611   -0.05172   -0.02872
 37 Pt   -0.00495    0.01030    0.01925
 38 Ag    0.02320   -0.00048   -0.01584
 39 Pt    0.00110   -0.05422    0.06577
 40 Ru   -0.00272    0.10875   -0.05193
 41 Pt    0.00149   -0.01450   -0.02594
 42 Ir    0.17426   -0.06376   -0.00788
 43 Pt   -0.11100   -0.00561    0.01855
 44 Ag    0.01305    0.02906    0.02790

System changes: positions 

Initializing position-dependent things.

Density initialized from wave functions
                                             
                                             
                                             
                                             
                                             
                  Ir    Pt     Ag            
                                             
             Pt   PRu    PPt    Pd           
              Pt     Ag                      
       Pt    Ag     Pd     Ru                
        Ag     Ag     Pt           Ag        
                     Pt     Pt               
                Ru     Pd     Pt             
                                             
           Ag    PAg    PPt    Pd            
                                             
            Ir     Pt    PAg    Pd           
       Pd    PPd    APt    Ag                
                                             
        Pd     Pt     Ag                     
                                             
                                             
                                             
                                             
                                             

Positions:
   0 Pd     0.000000    1.637674   10.000000    ( 0.0000,  0.0000,  0.0000)
   1 Pt     2.836535    1.637674   10.000000    ( 0.0000,  0.0000,  0.0000)
   2 Ag     5.673071    1.637674   10.000000    ( 0.0000,  0.0000,  0.0000)
   3 Pd     1.418268    4.094186   10.000000    ( 0.0000,  0.0000,  0.0000)
   4 Ag     4.254803    4.094186   10.000000    ( 0.0000,  0.0000,  0.0000)
   5 Ag     7.091338    4.094186   10.000000    ( 0.0000,  0.0000,  0.0000)
   6 Ag     2.836535    6.550698   10.000000    ( 0.0000,  0.0000,  0.0000)
   7 Pd     5.673071    6.550698   10.000000    ( 0.0000,  0.0000,  0.0000)
   8 Pd     8.509606    6.550698   10.000000    ( 0.0000,  0.0000,  0.0000)
   9 Pd     0.000000    0.000000   12.317643    ( 0.0000,  0.0000,  0.0000)
  10 Pd     2.836535    0.000000   12.317643    ( 0.0000,  0.0000,  0.0000)
  11 Pt     5.673071    0.000000   12.317643    ( 0.0000,  0.0000,  0.0000)
  12 Ir     1.418268    2.456512   12.317643    ( 0.0000,  0.0000,  0.0000)
  13 Pt     4.254803    2.456512   12.317643    ( 0.0000,  0.0000,  0.0000)
  14 Ag     7.091338    2.456512   12.317643    ( 0.0000,  0.0000,  0.0000)
  15 Pt     2.836535    4.913023   12.317643    ( 0.0000,  0.0000,  0.0000)
  16 Pd     5.673071    4.913023   12.317643    ( 0.0000,  0.0000,  0.0000)
  17 Pd     8.509606    4.913023   12.317643    ( 0.0000,  0.0000,  0.0000)
  18 Ag     1.386531    0.763556   14.612127    ( 0.0000,  0.0000,  0.0000)
  19 Ag     4.217140    0.786897   14.656625    ( 0.0000,  0.0000,  0.0000)
  20 Pt     7.062906    0.797650   14.661830    ( 0.0000,  0.0000,  0.0000)
  21 Ru     2.750963    3.304886   14.388561    ( 0.0000,  0.0000,  0.0000)
  22 Pd     5.602551    3.218685   14.639951    ( 0.0000,  0.0000,  0.0000)
  23 Pt     8.522404    3.252925   14.664528    ( 0.0000,  0.0000,  0.0000)
  24 Pt     4.170018    5.653000   14.615813    ( 0.0000,  0.0000,  0.0000)
  25 Pt     7.045875    5.606680   14.668177    ( 0.0000,  0.0000,  0.0000)
  26 Ag     9.874604    5.745082   14.696712    ( 0.0000,  0.0000,  0.0000)
  27 Ag     0.008271    1.607036   16.990555    ( 0.0000,  0.0000,  0.0000)
  28 Ag     2.792579    1.619369   16.881405    ( 0.0000,  0.0000,  0.0000)
  29 Pt     5.667100    1.638371   17.010896    ( 0.0000,  0.0000,  0.0000)
  30 Ag     1.336657    4.090436   17.016493    ( 0.0000,  0.0000,  0.0000)
  31 Pd     4.156889    4.034058   16.812256    ( 0.0000,  0.0000,  0.0000)
  32 Ru     6.950997    4.060452   16.869499    ( 0.0000,  0.0000,  0.0000)
  33 Pd     2.789491    6.566972   17.027197    ( 0.0000,  0.0000,  0.0000)
  34 Pt     5.653668    6.422911   16.906578    ( 0.0000,  0.0000,  0.0000)
  35 Pd     8.427941    6.500649   17.069490    ( 0.0000,  0.0000,  0.0000)
  36 Pt     0.076782   -0.041353   19.274293    ( 0.0000,  0.0000,  0.0000)
  37 Pt     2.811452    0.089084   19.254665    ( 0.0000,  0.0000,  0.0000)
  38 Ag     5.710723    0.010761   19.489412    ( 0.0000,  0.0000,  0.0000)
  39 Pt     1.555073    2.469759   19.393081    ( 0.0000,  0.0000,  0.0000)
  40 Ru     4.240188    2.601647   19.102653    ( 0.0000,  0.0000,  0.0000)
  41 Pt     7.117679    2.492363   19.219346    ( 0.0000,  0.0000,  0.0000)
  42 Ir     3.044217    4.828007   19.146959    ( 0.0000,  0.0000,  0.0000)
  43 Pt     5.722064    4.861267   19.161462    ( 0.0000,  0.0000,  0.0000)
  44 Ag     8.573183    4.898414   19.530449    ( 0.0000,  0.0000,  0.0000)

Unit cell:
           periodic     x           y           z      points  spacing
  1. axis:    yes    8.509606    0.000000    0.000000    40     0.1842
  2. axis:    yes    4.254803    7.369535    0.000000    40     0.1842
  3. axis:    no     0.000000    0.000000   29.270571   140     0.2091

  Lengths:   8.509606   8.509606  29.270571
  Angles:   90.000000  90.000000  60.000000

Effective grid spacing dv^(1/3) = 0.2016

     iter     time        total  log10-change:
                         energy  eigst   dens
iter:   1 13:49:22  -187.111342  -4.40
iter:   2 13:50:21  -197.711404  -3.42  -2.42
iter:   3 13:51:19  -186.733130  -3.60  -1.73
iter:   4 13:52:18  -186.638259  -5.11  -2.85
iter:   5 13:53:16  -186.621191c -5.79  -3.25
iter:   6 13:54:15  -186.617561c -6.20  -3.49
iter:   7 13:55:14  -186.615025c -6.54  -3.68
iter:   8 13:56:13  -186.611913c -6.79  -3.83
iter:   9 13:57:12  -186.614101c -6.98  -3.59
iter:  10 13:58:12  -186.612733c -7.14  -4.02c
iter:  11 13:59:12  -186.613088c -7.69c -4.20c

Converged after 11 iterations.

Dipole moment: (-6.069631, 7.128937, -0.225822) |e|*Ang

Energy contributions relative to reference atoms: (reference = -12371315.354956)

Kinetic:       -231.076462
Potential:     +105.051687
External:        +0.000000
XC:             -52.725192
Entropy (-ST):   -1.891828
Local:           -6.917208
--------------------------
Free energy:   -187.559002
Extrapolated:  -186.613088

Showing only first 2 kpts
 Kpt  Band  Eigenvalues  Occupancy
  0   363      0.75872    1.00786
  0   364      0.79017    0.85171
  0   365      0.80533    0.77856
  0   366      0.83080    0.66140

  1   363      0.62353    1.59398
  1   364      0.65451    1.48456
  1   365      0.68471    1.36091
  1   366      0.71278    1.23322


Fermi level: 0.76029

No gap

Forces in eV/Ang:
  0 Pd    0.71676    0.06227    0.09474
  1 Pt   -0.61435   -0.16848    0.55247
  2 Ag   -0.09832   -0.08027   -0.55692
  3 Pd   -0.05410   -0.33349    0.20596
  4 Ag   -0.00416    0.03593   -0.56876
  5 Ag    0.14616    0.16907   -0.49257
  6 Ag    0.04190   -0.00541   -0.47579
  7 Pd    0.23932    0.35810    0.07067
  8 Pd   -0.13863    0.13060    0.19975
  9 Pd    0.00079    0.09068   -0.01576
 10 Pd   -0.00423   -0.04342   -0.10869
 11 Pt   -0.03864   -0.14972    0.14471
 12 Ir    0.68176    0.14754   -0.02130
 13 Pt   -0.66023   -0.19777    0.25916
 14 Ag    0.10906   -0.01901    0.09619
 15 Pt   -0.28629    0.02692    0.15722
 16 Pd   -0.06643    0.26501    0.15863
 17 Pd    0.13572    0.00214    0.16922
 18 Ag   -0.02705   -0.00331   -0.01744
 19 Ag   -0.00871   -0.01973    0.00039
 20 Pt   -0.02811   -0.04002   -0.02141
 21 Ru    0.01240   -0.02576   -0.01188
 22 Pd   -0.03029   -0.02251    0.02283
 23 Pt   -0.01160   -0.00515    0.00932
 24 Pt    0.00140    0.00983    0.01614
 25 Pt   -0.01330   -0.00837    0.01101
 26 Ag   -0.03388   -0.01931    0.00511
 27 Ag   -0.03095   -0.01814   -0.01421
 28 Ag   -0.00451   -0.00842    0.02200
 29 Pt   -0.03130   -0.00201    0.03535
 30 Ag   -0.03267   -0.02983    0.00084
 31 Pd   -0.04324   -0.03381    0.05067
 32 Ru   -0.01358    0.00546    0.00692
 33 Pd   -0.03592   -0.03664    0.00774
 34 Pt   -0.02153   -0.02443    0.02099
 35 Pd   -0.02338   -0.02738   -0.00652
 36 Pt    0.02825   -0.01521   -0.03103
 37 Pt    0.03125   -0.00399    0.03435
 38 Ag    0.02097   -0.00019   -0.00018
 39 Pt   -0.00412   -0.01370    0.01799
 40 Ru   -0.00953    0.01470   -0.00325
 41 Pt    0.05379   -0.00536   -0.01766
 42 Ir    0.06352   -0.02825    0.02086
 43 Pt    0.01968   -0.02041    0.01758
 44 Ag    0.01416    0.02501    0.02831

Timing:                                      incl.     excl.
-------------------------------------------------------------------
Density initialized from wave functions:    40.099    40.098   0.2% |
 Symmetrize density:                         0.001     0.001   0.0% |
Forces:                                    203.196   203.196   1.2% |
Hamiltonian:                                21.189     0.123   0.0% |
 Atomic:                                     1.914     0.679   0.0% |
  XC Correction:                             1.235     1.235   0.0% |
 Calculate atomic Hamiltonians:             14.215    14.215   0.1% |
 Communicate:                                1.771     1.771   0.0% |
 Initialize Hamiltonian:                     0.000     0.000   0.0% |
 Poisson:                                    0.071     0.071   0.0% |
 XC 3D grid:                                 3.095     3.095   0.0% |
LCAO initialization:                       129.301     2.295   0.0% |
 LCAO eigensolver:                          15.281     0.001   0.0% |
  Blacs Orbital Layouts:                     0.293     0.000   0.0% |
   General diagonalize:                      0.289     0.289   0.0% |
   Redistribute coefs:                       0.002     0.002   0.0% |
   Send coefs to domains:                    0.002     0.002   0.0% |
  Calculate projections:                     0.004     0.004   0.0% |
  Distribute overlap matrix:                14.214     0.000   0.0% |
   Scalapack redistribute:                   0.007     0.007   0.0% |
   blocked summation:                       14.208    14.208   0.1% |
  Potential matrix:                          0.732     0.732   0.0% |
  SparseAtomicCorrection:                    0.004     0.004   0.0% |
  Sum over cells:                            0.034     0.034   0.0% |
 LCAO to grid:                             108.363   108.363   0.6% |
 Set positions (LCAO WFS):                   3.362     0.005   0.0% |
  Basic WFS set positions:                   0.003     0.003   0.0% |
  Basis functions set positions:             0.000     0.000   0.0% |
  P tci:                                     0.001     0.001   0.0% |
  ST tci:                                    0.286     0.286   0.0% |
  Scalapack redistribute:                    0.007     0.007   0.0% |
  blocked summation:                         2.944     2.944   0.0% |
  mktci:                                     0.116     0.116   0.0% |
PWDescriptor:                                0.588     0.588   0.0% |
Redistribute:                                0.013     0.013   0.0% |
SCF-cycle:                               16306.945   379.895   2.3% ||
 Davidson:                               14883.695  3465.242  20.7% |-------|
  Apply H:                                1487.765  1464.767   8.7% |--|
   HMM T:                                   22.998    22.998   0.1% |
  Subspace diag:                          1707.158     0.048   0.0% |
   calc_h_matrix:                         1096.086   332.288   2.0% ||
    Apply H:                               763.797   751.168   4.5% |-|
     HMM T:                                 12.629    12.629   0.1% |
   diagonalize:                             59.426    59.426   0.4% |
   rotate_psi:                             551.599   551.599   3.3% ||
  calc. matrices:                         5699.555  3498.485  20.9% |-------|
   Apply H:                               2201.070  2166.521  12.9% |----|
    HMM T:                                  34.549    34.549   0.2% |
  diagonalize:                             832.647   832.647   5.0% |-|
  rotate_psi:                             1691.327  1691.327  10.1% |---|
 Density:                                  649.838     0.009   0.0% |
  Atomic density matrices:                   5.000     5.000   0.0% |
  Mix:                                     240.873   240.873   1.4% ||
  Multipole moments:                         0.471     0.471   0.0% |
  Pseudo density:                          403.485   403.475   2.4% ||
   Symmetrize density:                       0.010     0.010   0.0% |
 Hamiltonian:                              331.566     1.928   0.0% |
  Atomic:                                   28.532     9.657   0.1% |
   XC Correction:                           18.875    18.875   0.1% |
  Calculate atomic Hamiltonians:           217.327   217.327   1.3% ||
  Communicate:                              32.067    32.067   0.2% |
  Poisson:                                   1.053     1.053   0.0% |
  XC 3D grid:                               50.658    50.658   0.3% |
 Orthonormalize:                            61.952     0.005   0.0% |
  calc_s_matrix:                            10.183    10.183   0.1% |
  inverse-cholesky:                          3.072     3.072   0.0% |
  projections:                              31.825    31.825   0.2% |
  rotate_psi_s:                             16.868    16.868   0.1% |
Set symmetry:                                0.003     0.003   0.0% |
Other:                                      70.983    70.983   0.4% |
-------------------------------------------------------------------
Total:                                             16772.317 100.0%

Memory usage: 846.52 MiB
Date: Fri Jun 14 13:59:24 2024
