
  ___ ___ ___ _ _ _  
 |   |   |_  | | | | 
 | | | | | . | | | | 
 |__ |  _|___|_____|  22.1.0
 |___|_|             

User:   clausen@node424.cluster
Date:   Fri Jun 14 12:15:30 2024
Arch:   x86_64
Pid:    86038
Python: 3.10.4
gpaw:   /groups/kemi/clausen/miniconda3/envs/gpaw22/lib/python3.10/site-packages/gpaw
_gpaw:  /groups/kemi/clausen/miniconda3/envs/gpaw22/lib/python3.10/site-packages/
        _gpaw.cpython-310-x86_64-linux-gnu.so
ase:    /groups/kemi/clausen/miniconda3/envs/gpaw22/lib/python3.10/site-packages/ase (version 3.22.1)
numpy:  /groups/kemi/clausen/miniconda3/envs/gpaw22/lib/python3.10/site-packages/numpy (version 1.23.1)
scipy:  /groups/kemi/clausen/miniconda3/envs/gpaw22/lib/python3.10/site-packages/scipy (version 1.8.1)
libxc:  5.2.3
units:  Angstrom and eV
cores: 24
OpenMP: True
OMP_NUM_THREADS: 1

Input parameters:
  eigensolver: {name: dav,
                niter: 3}
  kpts: [4 4 1]
  mode: {ecut: 400.0,
         name: pw}
  xc: RPBE

System changes: positions, numbers, cell, pbc, initial_charges, initial_magmoms 

Initialize ...

Pd-setup:
  name: Palladium
  id: 6da19bfba079f22767af9506641940b9
  Z: 46.0
  valence: 16
  core: 30
  charge: 0.0
  file: /groups/kemi/clausen/miniconda3/envs/gpaw22/share/gpaw/Pd.RPBE.gz
  compensation charges: gauss, rc=0.38, lmax=2
  cutoffs: 2.38(filt), 2.28(core),
  valence states:
                energy  radius
    5s(0.00)    -3.225   1.228
    4p(6.00)   -51.131   1.360
    5p(0.00)    -0.373   1.360
    4d(10.00)    -3.964   1.228
    *s          23.987   1.228
    *d          23.247   1.228

  Using partial waves for Pd as LCAO basis

Pt-setup:
  name: Platinum
  id: f04f522592575c47ad794f6b4a415b4b
  Z: 78.0
  valence: 16
  core: 62
  charge: 0.0
  file: /groups/kemi/clausen/miniconda3/envs/gpaw22/share/gpaw/Pt.RPBE.gz
  compensation charges: gauss, rc=0.41, lmax=2
  cutoffs: 2.26(filt), 2.26(core),
  valence states:
                energy  radius
    6s(1.00)    -5.516   1.307
    5p(6.00)   -55.971   1.371
    6p(0.00)    -0.856   1.371
    5d(9.00)    -6.087   1.307
    *s          21.695   1.307
    *d          21.125   1.307

  Using partial waves for Pt as LCAO basis

Ru-setup:
  name: Ruthenium
  id: 76477906e28f51dc1b29884d53556fe9
  Z: 44.0
  valence: 16
  core: 28
  charge: 0.0
  file: /groups/kemi/clausen/miniconda3/envs/gpaw22/share/gpaw/Ru.RPBE.gz
  compensation charges: gauss, rc=0.39, lmax=2
  cutoffs: 2.16(filt), 1.30(core),
  valence states:
                energy  radius
    4s(2.00)   -76.255   1.281
    5s(1.00)    -4.126   1.281
    4p(6.00)   -46.371   1.286
    5p(0.00)    -0.913   1.286
    4d(7.00)    -5.146   1.254
    *d          22.066   1.254

  Using partial waves for Ru as LCAO basis

Ag-setup:
  name: Silver
  id: c05e55bab2c3858b3f9398f6d75cb77c
  Z: 47.0
  valence: 17
  core: 30
  charge: 0.0
  file: /groups/kemi/clausen/miniconda3/envs/gpaw22/share/gpaw/Ag.RPBE.gz
  compensation charges: gauss, rc=0.40, lmax=2
  cutoffs: 2.35(filt), 2.19(core),
  valence states:
                energy  radius
    5s(1.00)    -4.277   1.286
    4p(6.00)   -58.523   1.328
    5p(0.00)    -0.755   1.328
    4d(10.00)    -7.386   1.180
    *s          22.934   1.286
    *d          19.826   1.180

  Using partial waves for Ag as LCAO basis

Ir-setup:
  name: Iridium
  id: 73b603359d1d5397a85ae3c2440f9033
  Z: 77.0
  valence: 15
  core: 62
  charge: 0.0
  file: /groups/kemi/clausen/miniconda3/envs/gpaw22/share/gpaw/Ir.RPBE.gz
  compensation charges: gauss, rc=0.40, lmax=2
  cutoffs: 2.40(filt), 2.36(core),
  valence states:
                energy  radius
    6s(2.00)    -6.219   1.296
    5p(6.00)   -54.684   1.328
    6p(0.00)    -1.215   1.328
    5d(7.00)    -7.118   1.286
    *s          20.992   1.296
    *d          20.093   1.286

  Using partial waves for Ir as LCAO basis

O-setup:
  name: Oxygen
  id: 08071ca1eed670e7821b24b7eb4d558c
  Z: 8.0
  valence: 6
  core: 2
  charge: 0.0
  file: /groups/kemi/clausen/miniconda3/envs/gpaw22/share/gpaw/O.RPBE.gz
  compensation charges: gauss, rc=0.21, lmax=2
  cutoffs: 1.17(filt), 0.83(core),
  valence states:
                energy  radius
    2s(2.00)   -24.041   0.688
    2p(4.00)    -8.984   0.598
    *s           3.170   0.688
    *p          18.228   0.598
    *d           0.000   0.619

  Using partial waves for O as LCAO basis

H-setup:
  name: Hydrogen
  id: ea3f9156a1dc40d47a60fdce8f8bd75d
  Z: 1.0
  valence: 1
  core: 0
  charge: 0.0
  file: /groups/kemi/clausen/miniconda3/envs/gpaw22/share/gpaw/H.RPBE.gz
  compensation charges: gauss, rc=0.15, lmax=2
  cutoffs: 0.85(filt), 0.53(core),
  valence states:
                energy  radius
    1s(1.00)    -6.572   0.476
    *s          20.639   0.476
    *p           0.000   0.476

  Using partial waves for H as LCAO basis

Reference energy: -14174791.127075

Spin-paired calculation

Convergence criteria:
 Maximum [total energy] change in last 3 cyles: 0.0005 eV / electron
 Maximum integral of absolute [dens]ity change: 0.0001 electrons / valence electron
 Maximum integral of absolute [eigenst]ate change: 4e-08 eV^2 / valence electron
 Maximum number of scf [iter]ations: 333
 (Square brackets indicate name in SCF output, whereas a 'c' in
 the SCF output indicates the quantity has converged.)

Symmetries present (total): 1

  ( 1  0  0)
  ( 0  1  0)
  ( 0  0  1)

16 k-points: 4 x 4 x 1 Monkhorst-Pack grid
8 k-points in the irreducible part of the Brillouin zone
       k-points in crystal coordinates                weights
   0:     0.12500000   -0.37500000    0.00000000          2/16
   1:     0.12500000   -0.12500000    0.00000000          2/16
   2:     0.12500000    0.12500000    0.00000000          2/16
   3:     0.12500000    0.37500000    0.00000000          2/16
   4:     0.37500000   -0.37500000    0.00000000          2/16
   5:     0.37500000   -0.12500000    0.00000000          2/16
   6:     0.37500000    0.12500000    0.00000000          2/16
   7:     0.37500000    0.37500000    0.00000000          2/16

Wave functions: Plane wave expansion
  Cutoff energy: 400.000 eV
  Number of coefficients (min, max): 33332, 33436
  Pulay-stress correction: 0.000000 eV/Ang^3 (de/decut=0.000000)
  Using FFTW library
  ScaLapack parameters: grid=3x1, blocksize=64
  Wavefunction extrapolation:
    Improved wavefunction reuse through dual PAW basis 

Occupation numbers: Fermi-Dirac: width=0.1000 eV
 

Eigensolver
   Davidson(niter=3) 

Densities:
  Coarse grid: 40*40*140 grid
  Fine grid: 80*80*280 grid
  Total Charge: 0.000000 

Density mixing:
  Method: separate
  Backend: pulay
  Linear mixing parameter: 0.05
  Mixing with 5 old densities
  Damping of long wave oscillations: 50 

Hamiltonian:
  XC and Coulomb potentials evaluated on a 80*80*280 grid
  Using the RPBE Exchange-Correlation functional
  External potential:
    NoExternalPotential
 

XC parameters: RPBE with 2 nearest neighbor stencil

Memory estimate:
  Process memory now: 192.85 MiB
  Calculator: 561.53 MiB
    Density: 50.45 MiB
      Arrays: 14.92 MiB
      Localized functions: 29.79 MiB
      Mixer: 5.74 MiB
    Hamiltonian: 10.71 MiB
      Arrays: 9.75 MiB
      XC: 0.00 MiB
      Poisson: 0.00 MiB
      vbar: 0.96 MiB
    Wavefunctions: 500.36 MiB
      Arrays psit_nG: 226.53 MiB
      Eigensolver: 259.17 MiB
      Projections: 1.87 MiB
      Projectors: 4.00 MiB
      PW-descriptor: 8.80 MiB

Total number of cores used: 24
Parallelization over k-points: 8
Domain decomposition: 1 x 1 x 3
                      2 x 2 x 6 (xc only)

Number of atoms: 47
Number of atomic orbitals: 547
Number of bands in calculation: 444
Number of valence electrons: 733
Bands to converge: occupied

... initialized

Initializing position-dependent things.

Density initialized from atomic densities
Creating initial wave functions:
  444 bands from LCAO basis set

                                             
                                             
                                             
                                             
                                             
                                             
                     H                       
                   O                         
                 Pt     Ag     Pt            
                                             
            Pt    PPd    APd    Pt           
       Pt    IPt    PPt    Pd                
                                             
        Pt     Pd    APd    Pt     Ag        
                                             
                Pt     Pd     Pt             
           Pt    APt    ARu    Pt            
                                             
            Pd    PPt    PAg    Ru           
       Pd     Pt     Pd                      
             Pd     Pd     Pt                
        Pd     Pt     Pt                     
                                             
                                             
                                             
                                             
                                             

Positions:
   0 Pd     0.000000    1.639149   10.000000    ( 0.0000,  0.0000,  0.0000)
   1 Pt     2.839089    1.639149   10.000000    ( 0.0000,  0.0000,  0.0000)
   2 Pt     5.678177    1.639149   10.000000    ( 0.0000,  0.0000,  0.0000)
   3 Pd     1.419544    4.097872   10.000000    ( 0.0000,  0.0000,  0.0000)
   4 Pd     4.258633    4.097872   10.000000    ( 0.0000,  0.0000,  0.0000)
   5 Pt     7.097722    4.097872   10.000000    ( 0.0000,  0.0000,  0.0000)
   6 Pd     2.839089    6.556595   10.000000    ( 0.0000,  0.0000,  0.0000)
   7 Pt     5.678177    6.556595   10.000000    ( 0.0000,  0.0000,  0.0000)
   8 Ru     8.517266    6.556595   10.000000    ( 0.0000,  0.0000,  0.0000)
   9 Pd     0.000000    0.000000   12.317643    ( 0.0000,  0.0000,  0.0000)
  10 Pt     2.839089    0.000000   12.317643    ( 0.0000,  0.0000,  0.0000)
  11 Pd     5.678177    0.000000   12.317643    ( 0.0000,  0.0000,  0.0000)
  12 Pd     1.419544    2.458723   12.317643    ( 0.0000,  0.0000,  0.0000)
  13 Pt     4.258633    2.458723   12.317643    ( 0.0000,  0.0000,  0.0000)
  14 Ag     7.097722    2.458723   12.317643    ( 0.0000,  0.0000,  0.0000)
  15 Ag     2.839089    4.917446   12.317643    ( 0.0000,  0.0000,  0.0000)
  16 Ag     5.678177    4.917446   12.317643    ( 0.0000,  0.0000,  0.0000)
  17 Pt     8.517266    4.917446   12.317643    ( 0.0000,  0.0000,  0.0000)
  18 Pt     1.382601    0.802015   14.574458    ( 0.0000,  0.0000,  0.0000)
  19 Pt     4.320375    0.816336   14.613039    ( 0.0000,  0.0000,  0.0000)
  20 Ru     7.144265    0.918131   14.702206    ( 0.0000,  0.0000,  0.0000)
  21 Pt     2.831254    3.224549   14.674209    ( 0.0000,  0.0000,  0.0000)
  22 Pd     5.669505    3.253449   14.666412    ( 0.0000,  0.0000,  0.0000)
  23 Pt     8.531860    3.282380   14.648110    ( 0.0000,  0.0000,  0.0000)
  24 Ag     4.274318    5.722991   14.646070    ( 0.0000,  0.0000,  0.0000)
  25 Pt     7.164045    5.771726   14.621475    ( 0.0000,  0.0000,  0.0000)
  26 Ag     9.986908    5.738787   14.643456    ( 0.0000,  0.0000,  0.0000)
  27 Pt    -0.010030    1.649760   16.860047    ( 0.0000,  0.0000,  0.0000)
  28 Pd     2.846447    1.596866   16.907942    ( 0.0000,  0.0000,  0.0000)
  29 Pd     5.675289    1.629573   16.927321    ( 0.0000,  0.0000,  0.0000)
  30 Ir     1.434330    4.054121   16.976739    ( 0.0000,  0.0000,  0.0000)
  31 Pt     4.206017    4.046333   16.977057    ( 0.0000,  0.0000,  0.0000)
  32 Pd     7.080668    4.096815   16.929692    ( 0.0000,  0.0000,  0.0000)
  33 Pd     2.838049    6.583929   16.905471    ( 0.0000,  0.0000,  0.0000)
  34 Ag     5.672922    6.523405   16.970942    ( 0.0000,  0.0000,  0.0000)
  35 Pt     8.525101    6.536969   16.950374    ( 0.0000,  0.0000,  0.0000)
  36 Pt    -0.017716    0.053004   19.239954    ( 0.0000,  0.0000,  0.0000)
  37 Pt     2.857597    0.044181   19.266473    ( 0.0000,  0.0000,  0.0000)
  38 Pt     5.659519   -0.012970   19.233800    ( 0.0000,  0.0000,  0.0000)
  39 Pt     1.394642    2.415452   19.172426    ( 0.0000,  0.0000,  0.0000)
  40 Pd     4.249890    2.430035   19.273035    ( 0.0000,  0.0000,  0.0000)
  41 Pd     7.120027    2.427105   19.248801    ( 0.0000,  0.0000,  0.0000)
  42 Pt     2.796750    4.960022   19.159701    ( 0.0000,  0.0000,  0.0000)
  43 Ag     5.679377    4.925181   19.423236    ( 0.0000,  0.0000,  0.0000)
  44 Pt     8.558870    4.929592   19.192007    ( 0.0000,  0.0000,  0.0000)
  45 O      4.249890    2.430035   21.423236    ( 0.0000,  0.0000,  0.0000)
  46 H      4.899890    3.080035   21.823236    ( 0.0000,  0.0000,  0.0000)

Unit cell:
           periodic     x           y           z      points  spacing
  1. axis:    yes    8.517266    0.000000    0.000000    40     0.1844
  2. axis:    yes    4.258633    7.376169    0.000000    40     0.1844
  3. axis:    no     0.000000    0.000000   29.270571   140     0.2091

  Lengths:   8.517266   8.517266  29.270571
  Angles:   90.000000  90.000000  60.000000

Effective grid spacing dv^(1/3) = 0.2017

     iter     time        total  log10-change:
                         energy  eigst   dens
iter:   1 12:18:48  -261.633026
iter:   2 12:19:46  -226.387583  -1.64  -1.20
iter:   3 12:20:44  -259.132416  -2.15  -1.36
iter:   4 12:21:43  -230.388264  -2.33  -1.25
iter:   5 12:22:41  -230.177363  -2.21  -1.37
iter:   6 12:23:40  -211.966278  -2.71  -1.42
iter:   7 12:24:37  -207.040934  -2.92  -1.58
iter:   8 12:25:34  -206.034821  -3.47  -1.74
iter:   9 12:26:32  -208.733246  -2.99  -1.77
iter:  10 12:27:29  -208.666943  -3.76  -1.76
iter:  11 12:28:28  -207.817307  -2.93  -1.75
iter:  12 12:29:26  -204.965895  -3.51  -1.88
iter:  13 12:30:24  -204.752177  -3.80  -2.10
iter:  14 12:31:22  -204.667461c -4.31  -2.21
iter:  15 12:32:21  -204.682573c -4.15  -2.26
iter:  16 12:33:19  -204.506723c -4.09  -2.29
iter:  17 12:34:16  -205.556632  -3.96  -2.41
iter:  18 12:35:14  -204.589457  -4.01  -2.14
iter:  19 12:36:13  -204.376261  -4.28  -2.42
iter:  20 12:37:11  -204.343709c -4.44  -2.72
iter:  21 12:38:08  -204.321152c -5.31  -2.82
iter:  22 12:39:07  -204.327729c -5.55  -2.95
iter:  23 12:40:04  -204.317223c -5.35  -2.95
iter:  24 12:41:02  -204.317993c -5.63  -3.10
iter:  25 12:42:00  -204.317453c -5.91  -3.13
iter:  26 12:42:58  -204.315555c -5.54  -3.23
iter:  27 12:43:56  -204.317920c -5.76  -3.37
iter:  28 12:44:54  -204.316037c -6.47  -3.37
iter:  29 12:45:52  -204.315773c -6.89  -3.56
iter:  30 12:46:50  -204.315411c -6.50  -3.58
iter:  31 12:47:49  -204.316540c -6.71  -3.72
iter:  32 12:48:47  -204.315674c -7.27  -3.75
iter:  33 12:49:45  -204.315882c -7.15  -3.91
iter:  34 12:50:43  -204.315359c -6.90  -4.03c
iter:  35 12:51:41  -204.315728c -7.28  -4.18c
iter:  36 12:52:39  -204.315492c -7.69c -4.26c

Converged after 36 iterations.

Dipole moment: (28.692669, 11.143874, -0.257827) |e|*Ang

Energy contributions relative to reference atoms: (reference = -14174791.127075)

Kinetic:       -332.976515
Potential:     +186.327512
External:        +0.000000
XC:             -45.445423
Entropy (-ST):   -2.360278
Local:          -11.040927
--------------------------
Free energy:   -205.495631
Extrapolated:  -204.315492

Showing only first 2 kpts
 Kpt  Band  Eigenvalues  Occupancy
  0   364      0.56170    1.09251
  0   365      0.59912    0.90596
  0   366      0.64388    0.69220
  0   367      0.64805    0.67341

  1   364      0.46195    1.53098
  1   365      0.49408    1.40603
  1   366      0.51233    1.32715
  1   367      0.53988    1.19915


Fermi level: 0.58025

No gap

Forces in eV/Ang:
  0 Pd    0.01354   -0.00472   -0.26508
  1 Pt    0.30689   -0.53011    0.38488
  2 Pt   -0.34385   -0.14294    0.02050
  3 Pd   -0.41448    0.17825   -0.08968
  4 Pd    0.22139   -0.22607   -0.24524
  5 Pt    0.22725    0.31679   -0.19196
  6 Pd   -0.21659    0.23073   -0.10419
  7 Pt    0.55300    0.16871    0.07985
  8 Ru   -0.49153    0.06096    1.31901
  9 Pd   -0.22946    0.15758    0.14743
 10 Pt    0.29699    0.01407   -0.24436
 11 Pd    0.02436    0.04315   -0.07093
 12 Pd    0.08389    0.10341    0.00727
 13 Pt   -0.18716   -0.17808    0.15054
 14 Ag    0.04818   -0.12488    0.07530
 15 Ag   -0.01193   -0.06747   -0.10604
 16 Ag   -0.05994   -0.05745    0.07765
 17 Pt    0.03319    0.23398   -0.57117
 18 Pt    0.00572    0.02237    0.00279
 19 Pt    0.02850    0.02761    0.00987
 20 Ru    0.02811   -0.06521   -0.13358
 21 Pt    0.03421   -0.03637    0.00320
 22 Pd    0.06361   -0.02068    0.01453
 23 Pt   -0.03703   -0.04671    0.01771
 24 Ag    0.03445   -0.00372   -0.01781
 25 Pt   -0.01232   -0.02622    0.00748
 26 Ag    0.01132    0.01909   -0.04851
 27 Pt    0.02814    0.09555   -0.03052
 28 Pd    0.08363    0.03961    0.04360
 29 Pd    0.00427   -0.00633    0.01012
 30 Ir    0.01927    0.02712   -0.04959
 31 Pt   -0.06615   -0.05953   -0.08034
 32 Pd   -0.00192   -0.05505   -0.01994
 33 Pd   -0.03402   -0.00275   -0.00294
 34 Ag   -0.00196   -0.04835    0.02387
 35 Pt    0.06339   -0.06126   -0.02331
 36 Pt   -0.02000   -0.04732   -0.00440
 37 Pt   -0.09473   -0.19524   -0.10643
 38 Pt    0.03969   -0.16818   -0.06956
 39 Pt   -0.12587    0.03364   -0.10986
 40 Pd    0.07996    0.32093    1.22486
 41 Pd    0.04891    0.02847   -0.03337
 42 Pt   -0.06794    0.08942   -0.03983
 43 Ag    0.02590    0.08253    0.04492
 44 Pt    0.03104    0.01005   -0.03827
 45 O     0.30389    0.22370   -0.56176
 46 H    -0.31279   -0.34137   -0.46648

System changes: positions 

Initializing position-dependent things.

Density initialized from wave functions
                                             
                                             
                                             
                                             
                                             
                                             
                     H                       
                   O                         
                 Pt     Ag     Pt            
                   Pd                        
            Pt    Pd     APd    Pt           
       Pt    IPt    PPt    Pd                
                                             
        Pt     Pd    APd    Pt     Ag        
                                             
                Pt     Pd     Pt             
           Pt    APt    ARu    Pt            
                                             
            Pd    PPt    PAg    Ru           
       Pd     Pt     Pd                      
             Pd     Pd     Pt                
        Pd     Pt     Pt                     
                                             
                                             
                                             
                                             
                                             

Positions:
   0 Pd     0.000000    1.639149   10.000000    ( 0.0000,  0.0000,  0.0000)
   1 Pt     2.839089    1.639149   10.000000    ( 0.0000,  0.0000,  0.0000)
   2 Pt     5.678177    1.639149   10.000000    ( 0.0000,  0.0000,  0.0000)
   3 Pd     1.419544    4.097872   10.000000    ( 0.0000,  0.0000,  0.0000)
   4 Pd     4.258633    4.097872   10.000000    ( 0.0000,  0.0000,  0.0000)
   5 Pt     7.097722    4.097872   10.000000    ( 0.0000,  0.0000,  0.0000)
   6 Pd     2.839089    6.556595   10.000000    ( 0.0000,  0.0000,  0.0000)
   7 Pt     5.678177    6.556595   10.000000    ( 0.0000,  0.0000,  0.0000)
   8 Ru     8.517266    6.556595   10.000000    ( 0.0000,  0.0000,  0.0000)
   9 Pd     0.000000    0.000000   12.317643    ( 0.0000,  0.0000,  0.0000)
  10 Pt     2.839089    0.000000   12.317643    ( 0.0000,  0.0000,  0.0000)
  11 Pd     5.678177    0.000000   12.317643    ( 0.0000,  0.0000,  0.0000)
  12 Pd     1.419544    2.458723   12.317643    ( 0.0000,  0.0000,  0.0000)
  13 Pt     4.258633    2.458723   12.317643    ( 0.0000,  0.0000,  0.0000)
  14 Ag     7.097722    2.458723   12.317643    ( 0.0000,  0.0000,  0.0000)
  15 Ag     2.839089    4.917446   12.317643    ( 0.0000,  0.0000,  0.0000)
  16 Ag     5.678177    4.917446   12.317643    ( 0.0000,  0.0000,  0.0000)
  17 Pt     8.517266    4.917446   12.317643    ( 0.0000,  0.0000,  0.0000)
  18 Pt     1.382682    0.802335   14.574497    ( 0.0000,  0.0000,  0.0000)
  19 Pt     4.320782    0.816730   14.613180    ( 0.0000,  0.0000,  0.0000)
  20 Ru     7.144667    0.917200   14.700298    ( 0.0000,  0.0000,  0.0000)
  21 Pt     2.831742    3.224029   14.674255    ( 0.0000,  0.0000,  0.0000)
  22 Pd     5.670414    3.253153   14.666620    ( 0.0000,  0.0000,  0.0000)
  23 Pt     8.531331    3.281713   14.648363    ( 0.0000,  0.0000,  0.0000)
  24 Ag     4.274810    5.722938   14.645816    ( 0.0000,  0.0000,  0.0000)
  25 Pt     7.163869    5.771352   14.621582    ( 0.0000,  0.0000,  0.0000)
  26 Ag     9.987070    5.739059   14.642763    ( 0.0000,  0.0000,  0.0000)
  27 Pt    -0.009628    1.651125   16.859611    ( 0.0000,  0.0000,  0.0000)
  28 Pd     2.847642    1.597431   16.908565    ( 0.0000,  0.0000,  0.0000)
  29 Pd     5.675350    1.629483   16.927465    ( 0.0000,  0.0000,  0.0000)
  30 Ir     1.434606    4.054508   16.976031    ( 0.0000,  0.0000,  0.0000)
  31 Pt     4.205072    4.045483   16.975909    ( 0.0000,  0.0000,  0.0000)
  32 Pd     7.080641    4.096028   16.929408    ( 0.0000,  0.0000,  0.0000)
  33 Pd     2.837563    6.583890   16.905429    ( 0.0000,  0.0000,  0.0000)
  34 Ag     5.672894    6.522715   16.971284    ( 0.0000,  0.0000,  0.0000)
  35 Pt     8.526007    6.536094   16.950041    ( 0.0000,  0.0000,  0.0000)
  36 Pt    -0.018001    0.052328   19.239891    ( 0.0000,  0.0000,  0.0000)
  37 Pt     2.856243    0.041392   19.264952    ( 0.0000,  0.0000,  0.0000)
  38 Pt     5.660086   -0.015373   19.232807    ( 0.0000,  0.0000,  0.0000)
  39 Pt     1.392844    2.415933   19.170857    ( 0.0000,  0.0000,  0.0000)
  40 Pd     4.251032    2.434619   19.290533    ( 0.0000,  0.0000,  0.0000)
  41 Pd     7.120726    2.427512   19.248325    ( 0.0000,  0.0000,  0.0000)
  42 Pt     2.795779    4.961299   19.159132    ( 0.0000,  0.0000,  0.0000)
  43 Ag     5.679747    4.926360   19.423877    ( 0.0000,  0.0000,  0.0000)
  44 Pt     8.559314    4.929736   19.191460    ( 0.0000,  0.0000,  0.0000)
  45 O      4.254231    2.433230   21.415210    ( 0.0000,  0.0000,  0.0000)
  46 H      4.895421    3.075158   21.816572    ( 0.0000,  0.0000,  0.0000)

Unit cell:
           periodic     x           y           z      points  spacing
  1. axis:    yes    8.517266    0.000000    0.000000    40     0.1844
  2. axis:    yes    4.258633    7.376169    0.000000    40     0.1844
  3. axis:    no     0.000000    0.000000   29.270571   140     0.2091

  Lengths:   8.517266   8.517266  29.270571
  Angles:   90.000000  90.000000  60.000000

Effective grid spacing dv^(1/3) = 0.2017

     iter     time        total  log10-change:
                         energy  eigst   dens
iter:   1 12:53:58  -205.241022  -4.14
iter:   2 12:54:57  -236.590062  -2.99  -2.22
iter:   3 12:55:56  -205.410692  -3.22  -1.51
iter:   4 12:56:54  -204.404357  -4.23  -2.26
iter:   5 12:57:52  -204.376688  -5.18  -3.01
iter:   6 12:58:49  -204.384230c -5.33  -3.09
iter:   7 12:59:47  -204.360982c -5.77  -2.93
iter:   8 13:00:45  -204.353618c -6.17  -3.41
iter:   9 13:01:43  -204.353148c -6.72  -3.66
iter:  10 13:02:41  -204.352585c -6.70  -3.88
iter:  11 13:03:39  -204.352585c -6.67  -3.87
iter:  12 13:04:37  -204.352162c -7.29  -3.64
iter:  13 13:05:36  -204.351621c -7.60c -3.95
iter:  14 13:06:35  -204.351850c -7.82c -4.16c

Converged after 14 iterations.

Dipole moment: (28.990869, 11.377598, -0.242019) |e|*Ang

Energy contributions relative to reference atoms: (reference = -14174791.127075)

Kinetic:       -330.513865
Potential:     +184.098457
External:        +0.000000
XC:             -45.709714
Entropy (-ST):   -2.357926
Local:          -11.047765
--------------------------
Free energy:   -205.530813
Extrapolated:  -204.351850

Showing only first 2 kpts
 Kpt  Band  Eigenvalues  Occupancy
  0   364      0.57045    1.08761
  0   365      0.60688    0.90597
  0   366      0.65205    0.69036
  0   367      0.65626    0.67143

  1   364      0.46886    1.53405
  1   365      0.50199    1.40543
  1   366      0.52062    1.32480
  1   367      0.54768    1.19900


Fermi level: 0.58802

No gap

Forces in eV/Ang:
  0 Pd    0.01274   -0.00391   -0.26398
  1 Pt    0.30685   -0.53081    0.38504
  2 Pt   -0.34370   -0.14909    0.02183
  3 Pd   -0.41464    0.18406   -0.08569
  4 Pd    0.21790   -0.22191   -0.23612
  5 Pt    0.23237    0.32039   -0.19121
  6 Pd   -0.21993    0.22626   -0.09372
  7 Pt    0.55204    0.16627    0.08402
  8 Ru   -0.48909    0.05871    1.32835
  9 Pd   -0.23181    0.15480    0.14686
 10 Pt    0.29522    0.00828   -0.23610
 11 Pd    0.02792    0.04217   -0.07552
 12 Pd    0.08209    0.10991    0.00524
 13 Pt   -0.18515   -0.16702    0.15408
 14 Ag    0.04975   -0.12323    0.06711
 15 Ag   -0.00977   -0.06777   -0.11157
 16 Ag   -0.06242   -0.05913    0.07264
 17 Pt    0.03393    0.22906   -0.56894
 18 Pt    0.00136    0.01258    0.00425
 19 Pt    0.02971    0.01800    0.01861
 20 Ru    0.03520   -0.06283   -0.10159
 21 Pt    0.02654   -0.02422    0.00360
 22 Pd    0.05265   -0.01957    0.01608
 23 Pt   -0.02563   -0.03675    0.00770
 24 Ag    0.03155   -0.00452   -0.01397
 25 Pt   -0.00822   -0.01887    0.00425
 26 Ag    0.01053    0.01308   -0.04706
 27 Pt    0.01830    0.06561   -0.04128
 28 Pd    0.09290    0.03461    0.07282
 29 Pd   -0.01296   -0.00056    0.04459
 30 Ir    0.03321    0.01604   -0.05017
 31 Pt   -0.06335   -0.07484   -0.03896
 32 Pd   -0.01184   -0.05088   -0.01816
 33 Pd   -0.01782    0.01110   -0.01568
 34 Ag   -0.00403   -0.03804    0.01113
 35 Pt    0.04586   -0.03682   -0.02671
 36 Pt   -0.01509   -0.02432   -0.02365
 37 Pt   -0.06873   -0.13208   -0.12306
 38 Pt    0.01588   -0.12253   -0.08998
 39 Pt   -0.09423    0.01396   -0.12112
 40 Pd    0.04900    0.26184    0.96080
 41 Pd    0.04354    0.01191   -0.07933
 42 Pt   -0.04774    0.06309   -0.06964
 43 Ag    0.02569    0.08066   -0.01954
 44 Pt    0.02316    0.00372   -0.04619
 45 O     0.01042   -0.06509   -0.67119
 46 H    -0.03886   -0.06929   -0.31942

System changes: positions 

Initializing position-dependent things.

Density initialized from wave functions
                                             
                                             
                                             
                                             
                                             
                                             
                     H                       
                   O                         
                 Pt     Ag     Pt            
                   Pd                        
            Pt    Pd     APd    Pt           
       Pt    IPt    PPt    Pd                
                                             
        Pt     Pd    APd    Pt     Ag        
                       Pd     Pt             
                Pt                           
           Pt    APt    ARu    Pt            
                                             
            Pd    PPt    PAg    Ru           
       Pd     Pt     Pd                      
             Pd     Pd     Pt                
        Pd     Pt     Pt                     
                                             
                                             
                                             
                                             
                                             

Positions:
   0 Pd     0.000000    1.639149   10.000000    ( 0.0000,  0.0000,  0.0000)
   1 Pt     2.839089    1.639149   10.000000    ( 0.0000,  0.0000,  0.0000)
   2 Pt     5.678177    1.639149   10.000000    ( 0.0000,  0.0000,  0.0000)
   3 Pd     1.419544    4.097872   10.000000    ( 0.0000,  0.0000,  0.0000)
   4 Pd     4.258633    4.097872   10.000000    ( 0.0000,  0.0000,  0.0000)
   5 Pt     7.097722    4.097872   10.000000    ( 0.0000,  0.0000,  0.0000)
   6 Pd     2.839089    6.556595   10.000000    ( 0.0000,  0.0000,  0.0000)
   7 Pt     5.678177    6.556595   10.000000    ( 0.0000,  0.0000,  0.0000)
   8 Ru     8.517266    6.556595   10.000000    ( 0.0000,  0.0000,  0.0000)
   9 Pd     0.000000    0.000000   12.317643    ( 0.0000,  0.0000,  0.0000)
  10 Pt     2.839089    0.000000   12.317643    ( 0.0000,  0.0000,  0.0000)
  11 Pd     5.678177    0.000000   12.317643    ( 0.0000,  0.0000,  0.0000)
  12 Pd     1.419544    2.458723   12.317643    ( 0.0000,  0.0000,  0.0000)
  13 Pt     4.258633    2.458723   12.317643    ( 0.0000,  0.0000,  0.0000)
  14 Ag     7.097722    2.458723   12.317643    ( 0.0000,  0.0000,  0.0000)
  15 Ag     2.839089    4.917446   12.317643    ( 0.0000,  0.0000,  0.0000)
  16 Ag     5.678177    4.917446   12.317643    ( 0.0000,  0.0000,  0.0000)
  17 Pt     8.517266    4.917446   12.317643    ( 0.0000,  0.0000,  0.0000)
  18 Pt     1.382867    0.803447   14.574781    ( 0.0000,  0.0000,  0.0000)
  19 Pt     4.322937    0.818236   14.614374    ( 0.0000,  0.0000,  0.0000)
  20 Ru     7.147110    0.912547   14.692228    ( 0.0000,  0.0000,  0.0000)
  21 Pt     2.833837    3.222018   14.674511    ( 0.0000,  0.0000,  0.0000)
  22 Pd     5.674487    3.251697   14.667769    ( 0.0000,  0.0000,  0.0000)
  23 Pt     8.529230    3.278825   14.649122    ( 0.0000,  0.0000,  0.0000)
  24 Ag     4.277180    5.722622   14.644717    ( 0.0000,  0.0000,  0.0000)
  25 Pt     7.163186    5.769826   14.621956    ( 0.0000,  0.0000,  0.0000)
  26 Ag     9.987857    5.740135   14.639284    ( 0.0000,  0.0000,  0.0000)
  27 Pt    -0.008095    1.656517   16.856792    ( 0.0000,  0.0000,  0.0000)
  28 Pd     2.854274    1.600066   16.913337    ( 0.0000,  0.0000,  0.0000)
  29 Pd     5.674734    1.629330   16.930066    ( 0.0000,  0.0000,  0.0000)
  30 Ir     1.436770    4.055899   16.972363    ( 0.0000,  0.0000,  0.0000)
  31 Pt     4.200373    4.040292   16.972250    ( 0.0000,  0.0000,  0.0000)
  32 Pd     7.079965    4.092217   16.928042    ( 0.0000,  0.0000,  0.0000)
  33 Pd     2.835942    6.584436   16.904526    ( 0.0000,  0.0000,  0.0000)
  34 Ag     5.672639    6.519725   16.972347    ( 0.0000,  0.0000,  0.0000)
  35 Pt     8.529710    6.532920   16.948149    ( 0.0000,  0.0000,  0.0000)
  36 Pt    -0.019203    0.050099   19.238531    ( 0.0000,  0.0000,  0.0000)
  37 Pt     2.850700    0.030482   19.256252    ( 0.0000,  0.0000,  0.0000)
  38 Pt     5.661712   -0.025243   19.226605    ( 0.0000,  0.0000,  0.0000)
  39 Pt     1.385321    2.417338   19.162194    ( 0.0000,  0.0000,  0.0000)
  40 Pd     4.255226    2.454965   19.366106    ( 0.0000,  0.0000,  0.0000)
  41 Pd     7.124022    2.428706   19.243400    ( 0.0000,  0.0000,  0.0000)
  42 Pt     2.791887    4.966436   19.154604    ( 0.0000,  0.0000,  0.0000)
  43 Ag     5.681635    4.932310   19.423695    ( 0.0000,  0.0000,  0.0000)
  44 Pt     8.561165    4.930132   19.188227    ( 0.0000,  0.0000,  0.0000)
  45 O      4.260689    2.434062   21.368120    ( 0.0000,  0.0000,  0.0000)
  46 H      4.887257    3.064798   21.790297    ( 0.0000,  0.0000,  0.0000)

Unit cell:
           periodic     x           y           z      points  spacing
  1. axis:    yes    8.517266    0.000000    0.000000    40     0.1844
  2. axis:    yes    4.258633    7.376169    0.000000    40     0.1844
  3. axis:    no     0.000000    0.000000   29.270571   140     0.2091

  Lengths:   8.517266   8.517266  29.270571
  Angles:   90.000000  90.000000  60.000000

Effective grid spacing dv^(1/3) = 0.2017

     iter     time        total  log10-change:
                         energy  eigst   dens
iter:   1 13:07:53  -204.924473  -3.03
iter:   2 13:08:51  -216.735187  -3.30  -2.36
iter:   3 13:09:50  -208.289591  -3.26  -1.72
iter:   4 13:10:48  -204.606487  -4.09  -1.97
iter:   5 13:11:46  -204.470327  -4.93  -2.66
iter:   6 13:12:44  -204.465014c -5.40  -3.03
iter:   7 13:13:43  -204.499285c -5.32  -2.97
iter:   8 13:14:41  -204.441450c -5.32  -2.87
iter:   9 13:15:39  -204.440773c -5.85  -3.24
iter:  10 13:16:39  -204.463449c -5.76  -3.25
iter:  11 13:17:38  -204.435101c -5.90  -2.97
iter:  12 13:18:38  -204.435660c -6.04  -3.61
iter:  13 13:19:38  -204.434457c -6.48  -3.44
iter:  14 13:20:39  -204.433366c -6.80  -3.72
iter:  15 13:21:40  -204.433439c -7.01  -3.87
iter:  16 13:22:40  -204.433954c -6.93  -3.92
iter:  17 13:23:39  -204.433397c -7.02  -3.78
iter:  18 13:24:39  -204.433423c -7.24  -3.77
iter:  19 13:25:38  -204.432776c -7.10  -4.07c
iter:  20 13:26:37  -204.433176c -7.34  -4.23c
iter:  21 13:27:36  -204.432731c -7.51c -4.12c

Converged after 21 iterations.

Dipole moment: (30.180406, 12.263108, -0.170512) |e|*Ang

Energy contributions relative to reference atoms: (reference = -14174791.127075)

Kinetic:       -328.418984
Potential:     +182.461642
External:        +0.000000
XC:             -46.219222
Entropy (-ST):   -2.348990
Local:          -11.081671
--------------------------
Free energy:   -205.607226
Extrapolated:  -204.432731

Showing only first 2 kpts
 Kpt  Band  Eigenvalues  Occupancy
  0   364      0.60805    1.06700
  0   365      0.64048    0.90523
  0   366      0.68723    0.68257
  0   367      0.69002    0.67009

  1   364      0.49735    1.55155
  1   365      0.53651    1.40097
  1   366      0.55676    1.31274
  1   367      0.58191    1.19526


Fermi level: 0.62147

No gap

Forces in eV/Ang:
  0 Pd    0.01422   -0.00542   -0.26016
  1 Pt    0.30448   -0.52719    0.38953
  2 Pt   -0.34277   -0.14407    0.02328
  3 Pd   -0.41534    0.17953   -0.08425
  4 Pd    0.21885   -0.22614   -0.24139
  5 Pt    0.23268    0.31417   -0.19244
  6 Pd   -0.21398    0.22959   -0.09428
  7 Pt    0.54251    0.17266    0.08256
  8 Ru   -0.48817    0.06129    1.33588
  9 Pd   -0.23318    0.16244    0.15110
 10 Pt    0.29833    0.01183   -0.23077
 11 Pd    0.03030    0.05265   -0.07472
 12 Pd    0.08208    0.10573    0.00529
 13 Pt   -0.18183   -0.17485    0.15976
 14 Ag    0.04949   -0.12439    0.05472
 15 Ag   -0.00668   -0.06951   -0.11496
 16 Ag   -0.06024   -0.06245    0.07334
 17 Pt    0.02978    0.22620   -0.57371
 18 Pt    0.00961    0.00112   -0.01160
 19 Pt    0.02468    0.00388   -0.00127
 20 Ru    0.03768   -0.04253   -0.08531
 21 Pt    0.01218   -0.02343   -0.01136
 22 Pd    0.03280   -0.02003   -0.00529
 23 Pt   -0.00185   -0.00490   -0.02191
 24 Ag    0.02192   -0.01412   -0.00897
 25 Pt    0.00737   -0.01367    0.00474
 26 Ag    0.00822   -0.00401   -0.03443
 27 Pt    0.01746    0.00429   -0.05453
 28 Pd    0.06356    0.01765    0.09604
 29 Pd   -0.01540    0.00308    0.08331
 30 Ir   -0.00043    0.02116   -0.07325
 31 Pt   -0.03125   -0.05504    0.04791
 32 Pd    0.00118    0.00085   -0.00990
 33 Pd    0.01023    0.01354   -0.05336
 34 Ag   -0.01284   -0.03037   -0.01900
 35 Pt    0.01475   -0.06258   -0.05547
 36 Pt   -0.02130   -0.02610   -0.01737
 37 Pt   -0.02742   -0.08294   -0.07127
 38 Pt    0.01161   -0.05484   -0.02370
 39 Pt   -0.07518    0.00348   -0.07137
 40 Pd    0.07941    0.24049   -0.10757
 41 Pd   -0.00908    0.03324    0.00375
 42 Pt    0.02776    0.04695   -0.01415
 43 Ag    0.01557    0.03698    0.02842
 44 Pt   -0.02767   -0.01343   -0.03375
 45 O    -0.23007   -0.31385    0.14733
 46 H     0.18977    0.16212   -0.18364

System changes: positions 

Initializing position-dependent things.

Density initialized from wave functions
                                             
                                             
                                             
                                             
                                             
                                             
                     H                       
                   O                         
                 Pt     Ag     Pt            
                   Pd                        
            Pt    Pd     APd    Pt           
       Pt    IPt    PPt    Pd                
                                             
        Pt     Pd    APd    Pt     Ag        
                       Pd     Pt             
                Pt                           
           Pt    APt    ARu    Pt            
                                             
            Pd    PPt    PAg    Ru           
       Pd     Pt     Pd                      
             Pd     Pd     Pt                
        Pd     Pt     Pt                     
                                             
                                             
                                             
                                             
                                             

Positions:
   0 Pd     0.000000    1.639149   10.000000    ( 0.0000,  0.0000,  0.0000)
   1 Pt     2.839089    1.639149   10.000000    ( 0.0000,  0.0000,  0.0000)
   2 Pt     5.678177    1.639149   10.000000    ( 0.0000,  0.0000,  0.0000)
   3 Pd     1.419544    4.097872   10.000000    ( 0.0000,  0.0000,  0.0000)
   4 Pd     4.258633    4.097872   10.000000    ( 0.0000,  0.0000,  0.0000)
   5 Pt     7.097722    4.097872   10.000000    ( 0.0000,  0.0000,  0.0000)
   6 Pd     2.839089    6.556595   10.000000    ( 0.0000,  0.0000,  0.0000)
   7 Pt     5.678177    6.556595   10.000000    ( 0.0000,  0.0000,  0.0000)
   8 Ru     8.517266    6.556595   10.000000    ( 0.0000,  0.0000,  0.0000)
   9 Pd     0.000000    0.000000   12.317643    ( 0.0000,  0.0000,  0.0000)
  10 Pt     2.839089    0.000000   12.317643    ( 0.0000,  0.0000,  0.0000)
  11 Pd     5.678177    0.000000   12.317643    ( 0.0000,  0.0000,  0.0000)
  12 Pd     1.419544    2.458723   12.317643    ( 0.0000,  0.0000,  0.0000)
  13 Pt     4.258633    2.458723   12.317643    ( 0.0000,  0.0000,  0.0000)
  14 Ag     7.097722    2.458723   12.317643    ( 0.0000,  0.0000,  0.0000)
  15 Ag     2.839089    4.917446   12.317643    ( 0.0000,  0.0000,  0.0000)
  16 Ag     5.678177    4.917446   12.317643    ( 0.0000,  0.0000,  0.0000)
  17 Pt     8.517266    4.917446   12.317643    ( 0.0000,  0.0000,  0.0000)
  18 Pt     1.383016    0.803509   14.574620    ( 0.0000,  0.0000,  0.0000)
  19 Pt     4.323325    0.818344   14.614360    ( 0.0000,  0.0000,  0.0000)
  20 Ru     7.147673    0.911849   14.690788    ( 0.0000,  0.0000,  0.0000)
  21 Pt     2.834069    3.221618   14.674356    ( 0.0000,  0.0000,  0.0000)
  22 Pd     5.675057    3.251383   14.667714    ( 0.0000,  0.0000,  0.0000)
  23 Pt     8.529135    3.278674   14.648853    ( 0.0000,  0.0000,  0.0000)
  24 Ag     4.277543    5.722419   14.644559    ( 0.0000,  0.0000,  0.0000)
  25 Pt     7.163267    5.769585   14.622038    ( 0.0000,  0.0000,  0.0000)
  26 Ag     9.987991    5.740115   14.638726    ( 0.0000,  0.0000,  0.0000)
  27 Pt    -0.007795    1.656757   16.855994    ( 0.0000,  0.0000,  0.0000)
  28 Pd     2.855280    1.600380   16.914716    ( 0.0000,  0.0000,  0.0000)
  29 Pd     5.674546    1.629356   16.931209    ( 0.0000,  0.0000,  0.0000)
  30 Ir     1.436774    4.056251   16.971259    ( 0.0000,  0.0000,  0.0000)
  31 Pt     4.199832    4.039449   16.972752    ( 0.0000,  0.0000,  0.0000)
  32 Pd     7.079991    4.092142   16.927871    ( 0.0000,  0.0000,  0.0000)
  33 Pd     2.836015    6.584604   16.903787    ( 0.0000,  0.0000,  0.0000)
  34 Ag     5.672458    6.519213   16.972131    ( 0.0000,  0.0000,  0.0000)
  35 Pt     8.530033    6.531917   16.947338    ( 0.0000,  0.0000,  0.0000)
  36 Pt    -0.019539    0.049632   19.238304    ( 0.0000,  0.0000,  0.0000)
  37 Pt     2.850140    0.028945   19.255112    ( 0.0000,  0.0000,  0.0000)
  38 Pt     5.661965   -0.026322   19.226195    ( 0.0000,  0.0000,  0.0000)
  39 Pt     1.384035    2.417462   19.161042    ( 0.0000,  0.0000,  0.0000)
  40 Pd     4.256502    2.458901   19.366742    ( 0.0000,  0.0000,  0.0000)
  41 Pd     7.123974    2.429238   19.243463    ( 0.0000,  0.0000,  0.0000)
  42 Pt     2.792151    4.967263   19.154385    ( 0.0000,  0.0000,  0.0000)
  43 Ag     5.681893    4.932955   19.424245    ( 0.0000,  0.0000,  0.0000)
  44 Pt     8.560831    4.929966   19.187705    ( 0.0000,  0.0000,  0.0000)
  45 O      4.258278    2.430346   21.369505    ( 0.0000,  0.0000,  0.0000)
  46 H      4.889113    3.066225   21.786833    ( 0.0000,  0.0000,  0.0000)

Unit cell:
           periodic     x           y           z      points  spacing
  1. axis:    yes    8.517266    0.000000    0.000000    40     0.1844
  2. axis:    yes    4.258633    7.376169    0.000000    40     0.1844
  3. axis:    no     0.000000    0.000000   29.270571   140     0.2091

  Lengths:   8.517266   8.517266  29.270571
  Angles:   90.000000  90.000000  60.000000

Effective grid spacing dv^(1/3) = 0.2017

     iter     time        total  log10-change:
                         energy  eigst   dens
iter:   1 13:28:55  -205.200528  -4.63
iter:   2 13:29:55  -232.388164  -3.07  -2.27
iter:   3 13:30:54  -205.094220  -3.33  -1.54
iter:   4 13:31:53  -204.504953  -4.61  -2.34
iter:   5 13:32:53  -204.518327  -5.39  -2.88
iter:   6 13:33:53  -204.440835c -5.50  -2.76
iter:   7 13:34:54  -204.440038c -6.21  -3.89
iter:   8 13:35:53  -204.438794c -6.55  -3.88
iter:   9 13:36:53  -204.439226c -6.88  -4.03c
iter:  10 13:37:52  -204.438657c -7.05  -3.96
iter:  11 13:38:51  -204.438460c -7.39  -4.00c
iter:  12 13:39:50  -204.438184c -7.49c -4.14c

Converged after 12 iterations.

Dipole moment: (30.337006, 12.377848, -0.175279) |e|*Ang

Energy contributions relative to reference atoms: (reference = -14174791.127075)

Kinetic:       -328.613365
Potential:     +182.612938
External:        +0.000000
XC:             -46.145478
Entropy (-ST):   -2.348099
Local:          -11.118230
--------------------------
Free energy:   -205.612234
Extrapolated:  -204.438184

Showing only first 2 kpts
 Kpt  Band  Eigenvalues  Occupancy
  0   364      0.60754    1.06370
  0   365      0.63914    0.90603
  0   366      0.68564    0.68443
  0   367      0.68905    0.66914

  1   364      0.49657    1.55017
  1   365      0.53524    1.40137
  1   366      0.55564    1.31247
  1   367      0.58075    1.19521


Fermi level: 0.62030

No gap

Forces in eV/Ang:
  0 Pd    0.01432   -0.00476   -0.26291
  1 Pt    0.30488   -0.52974    0.38626
  2 Pt   -0.34332   -0.14584    0.02152
  3 Pd   -0.41566    0.18060   -0.08509
  4 Pd    0.21964   -0.22488   -0.23943
  5 Pt    0.23196    0.31699   -0.19275
  6 Pd   -0.21483    0.22879   -0.09680
  7 Pt    0.54478    0.17034    0.08221
  8 Ru   -0.48954    0.06215    1.33265
  9 Pd   -0.22731    0.15848    0.14812
 10 Pt    0.30077    0.00794   -0.22540
 11 Pd    0.02285    0.05006   -0.07745
 12 Pd    0.08485    0.11066    0.00761
 13 Pt   -0.18279   -0.17283    0.16110
 14 Ag    0.04788   -0.11807    0.05268
 15 Ag   -0.00686   -0.07345   -0.11391
 16 Ag   -0.05875   -0.06297    0.07338
 17 Pt    0.02826    0.22674   -0.57042
 18 Pt    0.01825   -0.00477    0.00801
 19 Pt    0.01702    0.00006    0.01945
 20 Ru    0.03379   -0.03555   -0.05076
 21 Pt    0.01061   -0.02261   -0.00201
 22 Pd    0.02875   -0.01911    0.01105
 23 Pt    0.00014   -0.00331   -0.01598
 24 Ag    0.02322   -0.01561   -0.00063
 25 Pt    0.00453   -0.00480    0.00704
 26 Ag    0.00852   -0.00660   -0.03192
 27 Pt    0.00705   -0.00921   -0.04675
 28 Pd    0.06333    0.00478    0.09849
 29 Pd   -0.01397   -0.00056    0.08479
 30 Ir    0.01587    0.00702   -0.06234
 31 Pt   -0.02353   -0.05779    0.05399
 32 Pd   -0.01518   -0.01501   -0.00664
 33 Pd    0.01414    0.02574   -0.05364
 34 Ag   -0.01227   -0.01952   -0.02608
 35 Pt    0.00745   -0.02356   -0.04696
 36 Pt   -0.01878   -0.00080   -0.00533
 37 Pt   -0.00661   -0.02887   -0.06002
 38 Pt   -0.00693   -0.02235   -0.01908
 39 Pt   -0.04233   -0.00462   -0.05034
 40 Pd    0.03901    0.17507   -0.09455
 41 Pd   -0.00635    0.01214   -0.00209
 42 Pt    0.02278    0.01730   -0.00300
 43 Ag    0.01196    0.03614    0.02332
 44 Pt   -0.01603   -0.01638   -0.00758
 45 O    -0.14330   -0.22860    0.17652
 46 H     0.07749    0.04824   -0.24664

System changes: positions 

Initializing position-dependent things.

Density initialized from wave functions
                                             
                                             
                                             
                                             
                                             
                                             
                     H                       
                   O                         
                 Pt     Ag     Pt            
                   Pd                        
            Pt    Pd     APd    Pt           
       Pt    IPt    PPt    Pd                
                                             
        Pt     Pd    APd    Pt     Ag        
                Pt     Pd     Pt             
                                             
           Pt    APt    ARu    Pt            
                                             
            Pd    PPt    PAg    Ru           
       Pd     Pt     Pd                      
             Pd     Pd     Pt                
        Pd     Pt     Pt                     
                                             
                                             
                                             
                                             
                                             

Positions:
   0 Pd     0.000000    1.639149   10.000000    ( 0.0000,  0.0000,  0.0000)
   1 Pt     2.839089    1.639149   10.000000    ( 0.0000,  0.0000,  0.0000)
   2 Pt     5.678177    1.639149   10.000000    ( 0.0000,  0.0000,  0.0000)
   3 Pd     1.419544    4.097872   10.000000    ( 0.0000,  0.0000,  0.0000)
   4 Pd     4.258633    4.097872   10.000000    ( 0.0000,  0.0000,  0.0000)
   5 Pt     7.097722    4.097872   10.000000    ( 0.0000,  0.0000,  0.0000)
   6 Pd     2.839089    6.556595   10.000000    ( 0.0000,  0.0000,  0.0000)
   7 Pt     5.678177    6.556595   10.000000    ( 0.0000,  0.0000,  0.0000)
   8 Ru     8.517266    6.556595   10.000000    ( 0.0000,  0.0000,  0.0000)
   9 Pd     0.000000    0.000000   12.317643    ( 0.0000,  0.0000,  0.0000)
  10 Pt     2.839089    0.000000   12.317643    ( 0.0000,  0.0000,  0.0000)
  11 Pd     5.678177    0.000000   12.317643    ( 0.0000,  0.0000,  0.0000)
  12 Pd     1.419544    2.458723   12.317643    ( 0.0000,  0.0000,  0.0000)
  13 Pt     4.258633    2.458723   12.317643    ( 0.0000,  0.0000,  0.0000)
  14 Ag     7.097722    2.458723   12.317643    ( 0.0000,  0.0000,  0.0000)
  15 Ag     2.839089    4.917446   12.317643    ( 0.0000,  0.0000,  0.0000)
  16 Ag     5.678177    4.917446   12.317643    ( 0.0000,  0.0000,  0.0000)
  17 Pt     8.517266    4.917446   12.317643    ( 0.0000,  0.0000,  0.0000)
  18 Pt     1.384338    0.803428   14.574879    ( 0.0000,  0.0000,  0.0000)
  19 Pt     4.325005    0.818637   14.615524    ( 0.0000,  0.0000,  0.0000)
  20 Ru     7.150582    0.908464   14.685112    ( 0.0000,  0.0000,  0.0000)
  21 Pt     2.835189    3.219538   14.674032    ( 0.0000,  0.0000,  0.0000)
  22 Pd     5.677863    3.249715   14.668355    ( 0.0000,  0.0000,  0.0000)
  23 Pt     8.528825    3.278041   14.647622    ( 0.0000,  0.0000,  0.0000)
  24 Ag     4.279589    5.721194   14.644215    ( 0.0000,  0.0000,  0.0000)
  25 Pt     7.163586    5.768834   14.622608    ( 0.0000,  0.0000,  0.0000)
  26 Ag     9.988735    5.739790   14.635830    ( 0.0000,  0.0000,  0.0000)
  27 Pt    -0.006815    1.657023   16.851979    ( 0.0000,  0.0000,  0.0000)
  28 Pd     2.860811    1.601290   16.922642    ( 0.0000,  0.0000,  0.0000)
  29 Pd     5.673497    1.629324   16.937834    ( 0.0000,  0.0000,  0.0000)
  30 Ir     1.437789    4.057299   16.965794    ( 0.0000,  0.0000,  0.0000)
  31 Pt     4.197374    4.034594   16.976234    ( 0.0000,  0.0000,  0.0000)
  32 Pd     7.079134    4.090892   16.927144    ( 0.0000,  0.0000,  0.0000)
  33 Pd     2.836778    6.586335   16.899578    ( 0.0000,  0.0000,  0.0000)
  34 Ag     5.671471    6.517104   16.970410    ( 0.0000,  0.0000,  0.0000)
  35 Pt     8.531241    6.528803   16.943318    ( 0.0000,  0.0000,  0.0000)
  36 Pt    -0.021220    0.048683   19.237677    ( 0.0000,  0.0000,  0.0000)
  37 Pt     2.848498    0.024105   19.249496    ( 0.0000,  0.0000,  0.0000)
  38 Pt     5.662122   -0.029987   19.224199    ( 0.0000,  0.0000,  0.0000)
  39 Pt     1.379110    2.417542   19.155958    ( 0.0000,  0.0000,  0.0000)
  40 Pd     4.261007    2.476330   19.367967    ( 0.0000,  0.0000,  0.0000)
  41 Pd     7.123760    2.430853   19.243335    ( 0.0000,  0.0000,  0.0000)
  42 Pt     2.793535    4.969890   19.153756    ( 0.0000,  0.0000,  0.0000)
  43 Ag     5.683081    4.936378   19.426686    ( 0.0000,  0.0000,  0.0000)
  44 Pt     8.559566    4.928817   19.186361    ( 0.0000,  0.0000,  0.0000)
  45 O      4.248179    2.412996   21.379481    ( 0.0000,  0.0000,  0.0000)
  46 H      4.894522    3.069171   21.765052    ( 0.0000,  0.0000,  0.0000)

Unit cell:
           periodic     x           y           z      points  spacing
  1. axis:    yes    8.517266    0.000000    0.000000    40     0.1844
  2. axis:    yes    4.258633    7.376169    0.000000    40     0.1844
  3. axis:    no     0.000000    0.000000   29.270571   140     0.2091

  Lengths:   8.517266   8.517266  29.270571
  Angles:   90.000000  90.000000  60.000000

Effective grid spacing dv^(1/3) = 0.2017

     iter     time        total  log10-change:
                         energy  eigst   dens
iter:   1 13:41:09  -206.833336  -3.73
iter:   2 13:42:08  -266.019478  -2.59  -2.04
iter:   3 13:43:08  -207.755516  -2.94  -1.39
iter:   4 13:44:08  -204.646385  -4.04  -2.01
iter:   5 13:45:09  -204.485062  -4.82  -2.60
iter:   6 13:46:11  -204.467963c -5.28  -3.08
iter:   7 13:47:12  -204.471155c -5.69  -3.11
iter:   8 13:48:13  -204.456922c -5.82  -3.13
iter:   9 13:49:15  -204.456341c -6.21  -3.43
iter:  10 13:50:16  -204.454997c -6.39  -3.41
iter:  11 13:51:16  -204.457695c -6.28  -3.55
iter:  12 13:52:16  -204.452974c -6.52  -3.41
iter:  13 13:53:18  -204.453424c -6.75  -3.89
iter:  14 13:54:19  -204.453594c -7.22  -3.78
iter:  15 13:55:21  -204.453340c -7.16  -3.77
iter:  16 13:56:22  -204.452766c -7.81c -4.06c

Converged after 16 iterations.

Dipole moment: (30.929991, 12.711415, -0.193370) |e|*Ang

Energy contributions relative to reference atoms: (reference = -14174791.127075)

Kinetic:       -327.276667
Potential:     +181.225671
External:        +0.000000
XC:             -46.112739
Entropy (-ST):   -2.347239
Local:          -11.115412
--------------------------
Free energy:   -205.626386
Extrapolated:  -204.452766

Showing only first 2 kpts
 Kpt  Band  Eigenvalues  Occupancy
  0   364      0.60213    1.05988
  0   365      0.63323    0.90472
  0   366      0.67933    0.68505
  0   367      0.68159    0.67490

  1   364      0.48968    1.55265
  1   365      0.52908    1.40130
  1   366      0.54902    1.31445
  1   367      0.57665    1.18519


Fermi level: 0.61412

No gap

Forces in eV/Ang:
  0 Pd    0.01396   -0.00531   -0.24950
  1 Pt    0.30527   -0.52693    0.40214
  2 Pt   -0.34330   -0.14096    0.03481
  3 Pd   -0.41579    0.17792   -0.06795
  4 Pd    0.22378   -0.22608   -0.22645
  5 Pt    0.22922    0.31551   -0.17756
  6 Pd   -0.21151    0.22970   -0.08145
  7 Pt    0.54198    0.16973    0.09825
  8 Ru   -0.49289    0.06242    1.34939
  9 Pd   -0.21814    0.15649    0.14579
 10 Pt    0.30784    0.00660   -0.21905
 11 Pd    0.01395    0.05153   -0.08252
 12 Pd    0.08911    0.11042    0.00585
 13 Pt   -0.18278   -0.17558    0.16621
 14 Ag    0.04490   -0.11096    0.03889
 15 Ag   -0.00360   -0.07910   -0.11622
 16 Ag   -0.05758   -0.06448    0.07220
 17 Pt    0.02736    0.22885   -0.57446
 18 Pt    0.03526   -0.00987    0.00635
 19 Pt    0.01195   -0.00081    0.01753
 20 Ru    0.01503   -0.01571   -0.01134
 21 Pt    0.01459   -0.02099    0.00302
 22 Pd    0.00911   -0.02488    0.01507
 23 Pt    0.00742    0.00440   -0.02382
 24 Ag    0.01851   -0.03218    0.00429
 25 Pt    0.00519    0.00191   -0.01088
 26 Ag    0.01238   -0.00998   -0.03355
 27 Pt   -0.00100   -0.02035   -0.03097
 28 Pd    0.00921   -0.03338    0.03083
 29 Pd    0.01812   -0.01953    0.03355
 30 Ir    0.00633   -0.00131   -0.03090
 31 Pt    0.00142   -0.00148    0.01276
 32 Pd   -0.01126   -0.01712   -0.00627
 33 Pd    0.01285    0.01938   -0.04237
 34 Ag   -0.01218   -0.00606   -0.02458
 35 Pt    0.00745   -0.00450   -0.02782
 36 Pt   -0.01163    0.02144   -0.02637
 37 Pt    0.03157    0.04244   -0.05332
 38 Pt   -0.03445    0.01462   -0.02149
 39 Pt    0.00262   -0.00325   -0.03678
 40 Pd   -0.03879    0.03999    0.03009
 41 Pd   -0.01651   -0.00323    0.00767
 42 Pt    0.00062   -0.00447   -0.00838
 43 Ag    0.01093    0.02998    0.02542
 44 Pt    0.01081   -0.01077   -0.01866
 45 O     0.24027    0.17248    0.17473
 46 H    -0.22439   -0.25811   -0.33694

System changes: positions 

Initializing position-dependent things.

Density initialized from wave functions
                                             
                                             
                                             
                                             
                                             
                                             
                     H                       
                   O                         
                 Pt     Ag     Pt            
                   Pd     Pd                 
            Pt    Pd     Ag     Pt           
       Pt    IPt    PPt    Pd                
                                             
        Pt     Pd    APd    Pt     Ag        
                Pt     Pd     Pt             
                                             
           Pt    APt    ARu    Pt            
                                             
            Pd    PPt    PAg    Ru           
       Pd     Pt     Pd                      
             Pd     Pd     Pt                
        Pd     Pt     Pt                     
                                             
                                             
                                             
                                             
                                             

Positions:
   0 Pd     0.000000    1.639149   10.000000    ( 0.0000,  0.0000,  0.0000)
   1 Pt     2.839089    1.639149   10.000000    ( 0.0000,  0.0000,  0.0000)
   2 Pt     5.678177    1.639149   10.000000    ( 0.0000,  0.0000,  0.0000)
   3 Pd     1.419544    4.097872   10.000000    ( 0.0000,  0.0000,  0.0000)
   4 Pd     4.258633    4.097872   10.000000    ( 0.0000,  0.0000,  0.0000)
   5 Pt     7.097722    4.097872   10.000000    ( 0.0000,  0.0000,  0.0000)
   6 Pd     2.839089    6.556595   10.000000    ( 0.0000,  0.0000,  0.0000)
   7 Pt     5.678177    6.556595   10.000000    ( 0.0000,  0.0000,  0.0000)
   8 Ru     8.517266    6.556595   10.000000    ( 0.0000,  0.0000,  0.0000)
   9 Pd     0.000000    0.000000   12.317643    ( 0.0000,  0.0000,  0.0000)
  10 Pt     2.839089    0.000000   12.317643    ( 0.0000,  0.0000,  0.0000)
  11 Pd     5.678177    0.000000   12.317643    ( 0.0000,  0.0000,  0.0000)
  12 Pd     1.419544    2.458723   12.317643    ( 0.0000,  0.0000,  0.0000)
  13 Pt     4.258633    2.458723   12.317643    ( 0.0000,  0.0000,  0.0000)
  14 Ag     7.097722    2.458723   12.317643    ( 0.0000,  0.0000,  0.0000)
  15 Ag     2.839089    4.917446   12.317643    ( 0.0000,  0.0000,  0.0000)
  16 Ag     5.678177    4.917446   12.317643    ( 0.0000,  0.0000,  0.0000)
  17 Pt     8.517266    4.917446   12.317643    ( 0.0000,  0.0000,  0.0000)
  18 Pt     1.385520    0.803373   14.574906    ( 0.0000,  0.0000,  0.0000)
  19 Pt     4.326371    0.818944   14.616298    ( 0.0000,  0.0000,  0.0000)
  20 Ru     7.152607    0.905951   14.680927    ( 0.0000,  0.0000,  0.0000)
  21 Pt     2.836218    3.217951   14.673836    ( 0.0000,  0.0000,  0.0000)
  22 Pd     5.679851    3.248288   14.668858    ( 0.0000,  0.0000,  0.0000)
  23 Pt     8.528595    3.277517   14.646564    ( 0.0000,  0.0000,  0.0000)
  24 Ag     4.281150    5.719996   14.643913    ( 0.0000,  0.0000,  0.0000)
  25 Pt     7.163813    5.768248   14.622694    ( 0.0000,  0.0000,  0.0000)
  26 Ag     9.989399    5.739579   14.633413    ( 0.0000,  0.0000,  0.0000)
  27 Pt    -0.006087    1.657434   16.849025    ( 0.0000,  0.0000,  0.0000)
  28 Pd     2.864417    1.601561   16.927647    ( 0.0000,  0.0000,  0.0000)
  29 Pd     5.673175    1.629004   16.942049    ( 0.0000,  0.0000,  0.0000)
  30 Ir     1.438459    4.058084   16.962027    ( 0.0000,  0.0000,  0.0000)
  31 Pt     4.195612    4.031629   16.977839    ( 0.0000,  0.0000,  0.0000)
  32 Pd     7.078620    4.089787   16.926496    ( 0.0000,  0.0000,  0.0000)
  33 Pd     2.837213    6.587476   16.896617    ( 0.0000,  0.0000,  0.0000)
  34 Ag     5.670727    6.515539   16.969284    ( 0.0000,  0.0000,  0.0000)
  35 Pt     8.532396    6.526433   16.940524    ( 0.0000,  0.0000,  0.0000)
  36 Pt    -0.022399    0.048113   19.236547    ( 0.0000,  0.0000,  0.0000)
  37 Pt     2.847491    0.020844   19.244683    ( 0.0000,  0.0000,  0.0000)
  38 Pt     5.661917   -0.032835   19.222073    ( 0.0000,  0.0000,  0.0000)
  39 Pt     1.375623    2.417717   19.151598    ( 0.0000,  0.0000,  0.0000)
  40 Pd     4.263391    2.488406   19.376019    ( 0.0000,  0.0000,  0.0000)
  41 Pd     7.123649    2.431937   19.242846    ( 0.0000,  0.0000,  0.0000)
  42 Pt     2.793945    4.971938   19.152604    ( 0.0000,  0.0000,  0.0000)
  43 Ag     5.684103    4.939224   19.428211    ( 0.0000,  0.0000,  0.0000)
  44 Pt     8.559158    4.928118   19.184675    ( 0.0000,  0.0000,  0.0000)
  45 O      4.246262    2.405739   21.381994    ( 0.0000,  0.0000,  0.0000)
  46 H      4.894504    3.067122   21.746759    ( 0.0000,  0.0000,  0.0000)

Unit cell:
           periodic     x           y           z      points  spacing
  1. axis:    yes    8.517266    0.000000    0.000000    40     0.1844
  2. axis:    yes    4.258633    7.376169    0.000000    40     0.1844
  3. axis:    no     0.000000    0.000000   29.270571   140     0.2091

  Lengths:   8.517266   8.517266  29.270571
  Angles:   90.000000  90.000000  60.000000

Effective grid spacing dv^(1/3) = 0.2017

     iter     time        total  log10-change:
                         energy  eigst   dens
iter:   1 13:57:43  -204.497749  -4.14
iter:   2 13:58:44  -204.817596  -4.67  -3.03
iter:   3 13:59:46  -204.553797c -4.88  -2.40
iter:   4 14:00:46  -204.461568c -5.64  -2.68
iter:   5 14:01:46  -204.461201c -6.59  -3.45
iter:   6 14:02:48  -204.460321c -6.58  -3.63
iter:   7 14:03:49  -204.460436c -6.60  -3.57
iter:   8 14:04:50  -204.459822c -7.05  -4.01c
iter:   9 14:05:51  -204.460097c -6.98  -4.02c
iter:  10 14:06:51  -204.459795c -7.43c -4.17c

Converged after 10 iterations.

Dipole moment: (31.386560, 12.941439, -0.200205) |e|*Ang

Energy contributions relative to reference atoms: (reference = -14174791.127075)

Kinetic:       -328.463140
Potential:     +182.406067
External:        +0.000000
XC:             -46.148347
Entropy (-ST):   -2.345482
Local:          -11.081634
--------------------------
Free energy:   -205.632536
Extrapolated:  -204.459795

Showing only first 2 kpts
 Kpt  Band  Eigenvalues  Occupancy
  0   364      0.60107    1.05454
  0   365      0.63118    0.90436
  0   366      0.67657    0.68787
  0   367      0.67930    0.67562

  1   364      0.48681    1.55521
  1   365      0.52706    1.40083
  1   366      0.54679    1.31495
  1   367      0.57566    1.17968


Fermi level: 0.61199

No gap

Forces in eV/Ang:
  0 Pd    0.01529   -0.00591   -0.25474
  1 Pt    0.30719   -0.52827    0.39822
  2 Pt   -0.34675   -0.14131    0.02961
  3 Pd   -0.41561    0.17845   -0.07359
  4 Pd    0.22373   -0.22739   -0.22881
  5 Pt    0.22857    0.31651   -0.18160
  6 Pd   -0.21126    0.22992   -0.08850
  7 Pt    0.54093    0.17094    0.09517
  8 Ru   -0.49272    0.06422    1.34543
  9 Pd   -0.21134    0.15050    0.14315
 10 Pt    0.31239    0.00538   -0.21662
 11 Pd    0.00790    0.05387   -0.08822
 12 Pd    0.09550    0.11316    0.00391
 13 Pt   -0.18336   -0.17460    0.16776
 14 Ag    0.04168   -0.10458    0.03042
 15 Ag    0.00132   -0.08572   -0.12043
 16 Ag   -0.05749   -0.06654    0.07116
 17 Pt    0.02377    0.22884   -0.57981
 18 Pt    0.04546   -0.01736    0.01534
 19 Pt    0.00355   -0.00421    0.02746
 20 Ru    0.00668    0.00018    0.02678
 21 Pt    0.01599   -0.02046    0.00826
 22 Pd    0.00100   -0.02440    0.02303
 23 Pt    0.01038    0.00764   -0.02544
 24 Ag    0.01850   -0.04224    0.00914
 25 Pt    0.00147    0.00763   -0.01264
 26 Ag    0.01556   -0.01393   -0.02933
 27 Pt   -0.01021   -0.03593   -0.03564
 28 Pd   -0.00280   -0.04815   -0.00740
 29 Pd    0.02070   -0.01690    0.01322
 30 Ir    0.00899   -0.01263   -0.02107
 31 Pt    0.02356    0.01008    0.01103
 32 Pd   -0.02055   -0.01870   -0.01175
 33 Pd    0.01913    0.02190   -0.05384
 34 Ag   -0.01147    0.00033   -0.04020
 35 Pt   -0.00082    0.01867   -0.03221
 36 Pt   -0.01205    0.03921   -0.00657
 37 Pt    0.05480    0.09400   -0.01804
 38 Pt   -0.04453    0.04387   -0.01074
 39 Pt    0.03294   -0.00664   -0.00269
 40 Pd   -0.10342   -0.04744   -0.06885
 41 Pd   -0.01723   -0.01403    0.00281
 42 Pt   -0.00116   -0.02406    0.00555
 43 Ag    0.01131    0.03262    0.02055
 44 Pt    0.02002   -0.01504    0.00735
 45 O     0.16352    0.10263    0.13130
 46 H    -0.15671   -0.18890   -0.21470

System changes: positions 

Initializing position-dependent things.

Density initialized from wave functions
                                             
                                             
                                             
                                             
                                             
                                             
                     H                       
                   O                         
                 Pt     Ag     Pt            
                   Pd     Pd                 
            Pt    Pd     Ag     Pt           
       Pt    IPt    PPt    Pd                
                                             
        Pt     Pd    APd    Pt     Ag        
                Pt     Pd     Pt             
                                             
           Pt    APt    ARu    Pt            
                                             
            Pd    PPt    PAg    Ru           
       Pd     Pt     Pd                      
             Pd     Pd     Pt                
        Pd     Pt     Pt                     
                                             
                                             
                                             
                                             
                                             

Positions:
   0 Pd     0.000000    1.639149   10.000000    ( 0.0000,  0.0000,  0.0000)
   1 Pt     2.839089    1.639149   10.000000    ( 0.0000,  0.0000,  0.0000)
   2 Pt     5.678177    1.639149   10.000000    ( 0.0000,  0.0000,  0.0000)
   3 Pd     1.419544    4.097872   10.000000    ( 0.0000,  0.0000,  0.0000)
   4 Pd     4.258633    4.097872   10.000000    ( 0.0000,  0.0000,  0.0000)
   5 Pt     7.097722    4.097872   10.000000    ( 0.0000,  0.0000,  0.0000)
   6 Pd     2.839089    6.556595   10.000000    ( 0.0000,  0.0000,  0.0000)
   7 Pt     5.678177    6.556595   10.000000    ( 0.0000,  0.0000,  0.0000)
   8 Ru     8.517266    6.556595   10.000000    ( 0.0000,  0.0000,  0.0000)
   9 Pd     0.000000    0.000000   12.317643    ( 0.0000,  0.0000,  0.0000)
  10 Pt     2.839089    0.000000   12.317643    ( 0.0000,  0.0000,  0.0000)
  11 Pd     5.678177    0.000000   12.317643    ( 0.0000,  0.0000,  0.0000)
  12 Pd     1.419544    2.458723   12.317643    ( 0.0000,  0.0000,  0.0000)
  13 Pt     4.258633    2.458723   12.317643    ( 0.0000,  0.0000,  0.0000)
  14 Ag     7.097722    2.458723   12.317643    ( 0.0000,  0.0000,  0.0000)
  15 Ag     2.839089    4.917446   12.317643    ( 0.0000,  0.0000,  0.0000)
  16 Ag     5.678177    4.917446   12.317643    ( 0.0000,  0.0000,  0.0000)
  17 Pt     8.517266    4.917446   12.317643    ( 0.0000,  0.0000,  0.0000)
  18 Pt     1.386985    0.802983   14.575042    ( 0.0000,  0.0000,  0.0000)
  19 Pt     4.327203    0.818983   14.617066    ( 0.0000,  0.0000,  0.0000)
  20 Ru     7.153871    0.904642   14.679120    ( 0.0000,  0.0000,  0.0000)
  21 Pt     2.837023    3.216735   14.673782    ( 0.0000,  0.0000,  0.0000)
  22 Pd     5.680874    3.247054   14.669398    ( 0.0000,  0.0000,  0.0000)
  23 Pt     8.528760    3.277497   14.645350    ( 0.0000,  0.0000,  0.0000)
  24 Ag     4.282297    5.718515   14.643897    ( 0.0000,  0.0000,  0.0000)
  25 Pt     7.164037    5.768057   14.622483    ( 0.0000,  0.0000,  0.0000)
  26 Ag     9.990045    5.739143   14.631589    ( 0.0000,  0.0000,  0.0000)
  27 Pt    -0.005855    1.656776   16.846616    ( 0.0000,  0.0000,  0.0000)
  28 Pd     2.866239    1.600807   16.930289    ( 0.0000,  0.0000,  0.0000)
  29 Pd     5.673324    1.628576   16.944753    ( 0.0000,  0.0000,  0.0000)
  30 Ir     1.438811    4.058340   16.959448    ( 0.0000,  0.0000,  0.0000)
  31 Pt     4.195195    4.030264   16.979265    ( 0.0000,  0.0000,  0.0000)
  32 Pd     7.078067    4.089124   16.925920    ( 0.0000,  0.0000,  0.0000)
  33 Pd     2.837924    6.588469   16.893823    ( 0.0000,  0.0000,  0.0000)
  34 Ag     5.670072    6.514680   16.967807    ( 0.0000,  0.0000,  0.0000)
  35 Pt     8.532896    6.525245   16.938229    ( 0.0000,  0.0000,  0.0000)
  36 Pt    -0.023293    0.048445   19.235748    ( 0.0000,  0.0000,  0.0000)
  37 Pt     2.848062    0.020863   19.241855    ( 0.0000,  0.0000,  0.0000)
  38 Pt     5.661016   -0.033402   19.220874    ( 0.0000,  0.0000,  0.0000)
  39 Pt     1.374312    2.417653   19.149238    ( 0.0000,  0.0000,  0.0000)
  40 Pd     4.262934    2.494161   19.374651    ( 0.0000,  0.0000,  0.0000)
  41 Pd     7.123065    2.432419   19.242817    ( 0.0000,  0.0000,  0.0000)
  42 Pt     2.794477    4.972653   19.152141    ( 0.0000,  0.0000,  0.0000)
  43 Ag     5.684862    4.941247   19.429444    ( 0.0000,  0.0000,  0.0000)
  44 Pt     8.559058    4.927396   19.183794    ( 0.0000,  0.0000,  0.0000)
  45 O      4.245902    2.401347   21.387894    ( 0.0000,  0.0000,  0.0000)
  46 H      4.893992    3.064926   21.734348    ( 0.0000,  0.0000,  0.0000)

Unit cell:
           periodic     x           y           z      points  spacing
  1. axis:    yes    8.517266    0.000000    0.000000    40     0.1844
  2. axis:    yes    4.258633    7.376169    0.000000    40     0.1844
  3. axis:    no     0.000000    0.000000   29.270571   140     0.2091

  Lengths:   8.517266   8.517266  29.270571
  Angles:   90.000000  90.000000  60.000000

Effective grid spacing dv^(1/3) = 0.2017

     iter     time        total  log10-change:
                         energy  eigst   dens
iter:   1 14:08:13  -204.880044  -4.51
iter:   2 14:09:14  -220.638786  -3.33  -2.39
iter:   3 14:10:15  -204.777809  -3.59  -1.66
iter:   4 14:11:15  -204.492386  -4.98  -2.48
iter:   5 14:12:15  -204.466816c -5.64  -3.03
iter:   6 14:13:16  -204.465343c -6.13  -3.64
iter:   7 14:14:16  -204.463969c -6.40  -3.72
iter:   8 14:15:17  -204.463304c -6.59  -3.90
iter:   9 14:16:18  -204.463454c -6.74  -3.88
iter:  10 14:17:20  -204.463107c -7.22  -3.86
iter:  11 14:18:20  -204.462951c -7.46c -4.00c

Converged after 11 iterations.

Dipole moment: (31.565780, 12.915506, -0.211501) |e|*Ang

Energy contributions relative to reference atoms: (reference = -14174791.127075)

Kinetic:       -327.862782
Potential:     +181.866885
External:        +0.000000
XC:             -46.215101
Entropy (-ST):   -2.344729
Local:          -11.079589
--------------------------
Free energy:   -205.635316
Extrapolated:  -204.462951

Showing only first 2 kpts
 Kpt  Band  Eigenvalues  Occupancy
  0   364      0.59610    1.05384
  0   365      0.62604    0.90448
  0   366      0.67089    0.69044
  0   367      0.67405    0.67621

  1   364      0.48182    1.55479
  1   365      0.52198    1.40069
  1   366      0.54117    1.31718
  1   367      0.57136    1.17575


Fermi level: 0.60687

No gap

Forces in eV/Ang:
  0 Pd    0.01660   -0.00616   -0.25271
  1 Pt    0.30621   -0.52966    0.40246
  2 Pt   -0.34734   -0.14335    0.03235
  3 Pd   -0.41677    0.17877   -0.07246
  4 Pd    0.22397   -0.22723   -0.22711
  5 Pt    0.22983    0.31868   -0.17995
  6 Pd   -0.21176    0.23011   -0.08727
  7 Pt    0.54131    0.17171    0.09819
  8 Ru   -0.49252    0.06445    1.34581
  9 Pd   -0.21272    0.15367    0.14348
 10 Pt    0.31544    0.00653   -0.22864
 11 Pd    0.00925    0.05774   -0.09573
 12 Pd    0.09591    0.10748   -0.00462
 13 Pt   -0.18236   -0.18087    0.16240
 14 Ag    0.04168   -0.10836    0.02634
 15 Ag    0.00395   -0.08426   -0.12850
 16 Ag   -0.05476   -0.06684    0.06704
 17 Pt    0.01986    0.23050   -0.59458
 18 Pt    0.03002   -0.01563    0.00230
 19 Pt    0.00850   -0.00357    0.01408
 20 Ru    0.00657    0.00299    0.01377
 21 Pt    0.01499   -0.02141    0.01319
 22 Pd   -0.00069   -0.02395    0.01626
 23 Pt    0.00845    0.00158   -0.01982
 24 Ag    0.01472   -0.03647   -0.00080
 25 Pt    0.00339   -0.00051   -0.01975
 26 Ag    0.01626   -0.01035   -0.02468
 27 Pt   -0.00574   -0.01974   -0.01605
 28 Pd   -0.02166   -0.03649   -0.03522
 29 Pd    0.02529   -0.01042   -0.00487
 30 Ir    0.00146   -0.01128   -0.01073
 31 Pt    0.02374    0.01638    0.00178
 32 Pd   -0.00690   -0.01604   -0.00259
 33 Pd    0.00454    0.00557   -0.02370
 34 Ag   -0.00514    0.00041   -0.02339
 35 Pt    0.00491    0.00196   -0.01690
 36 Pt   -0.01443    0.03440   -0.01680
 37 Pt    0.05317    0.08486    0.01057
 38 Pt   -0.03484    0.02838    0.00251
 39 Pt    0.02297   -0.00075    0.01013
 40 Pd   -0.11180   -0.08857    0.05248
 41 Pd    0.00162   -0.01356    0.00358
 42 Pt   -0.01631    0.00008   -0.00618
 43 Ag    0.01669    0.04398    0.01352
 44 Pt    0.02149   -0.00886   -0.00320
 45 O     0.07587    0.00130   -0.07617
 46 H    -0.02040   -0.05240   -0.08947

System changes: positions 

Initializing position-dependent things.

Density initialized from wave functions
                                             
                                             
                                             
                                             
                                             
                                             
                     H                       
                   O                         
                 Pt     Ag     Pt            
                   Pd     Pd                 
            Pt    Pd     Ag     Pt           
       Pt    IPt    PPt    Pd                
                                             
        Pt     Pd    APd    Pt     Ag        
                Pt     Pd     Pt             
                                             
           Pt    APt    ARu    Pt            
                                             
            Pd    PPt    PAg    Ru           
       Pd     Pt     Pd                      
             Pd     Pd     Pt                
        Pd     Pt     Pt                     
                                             
                                             
                                             
                                             
                                             

Positions:
   0 Pd     0.000000    1.639149   10.000000    ( 0.0000,  0.0000,  0.0000)
   1 Pt     2.839089    1.639149   10.000000    ( 0.0000,  0.0000,  0.0000)
   2 Pt     5.678177    1.639149   10.000000    ( 0.0000,  0.0000,  0.0000)
   3 Pd     1.419544    4.097872   10.000000    ( 0.0000,  0.0000,  0.0000)
   4 Pd     4.258633    4.097872   10.000000    ( 0.0000,  0.0000,  0.0000)
   5 Pt     7.097722    4.097872   10.000000    ( 0.0000,  0.0000,  0.0000)
   6 Pd     2.839089    6.556595   10.000000    ( 0.0000,  0.0000,  0.0000)
   7 Pt     5.678177    6.556595   10.000000    ( 0.0000,  0.0000,  0.0000)
   8 Ru     8.517266    6.556595   10.000000    ( 0.0000,  0.0000,  0.0000)
   9 Pd     0.000000    0.000000   12.317643    ( 0.0000,  0.0000,  0.0000)
  10 Pt     2.839089    0.000000   12.317643    ( 0.0000,  0.0000,  0.0000)
  11 Pd     5.678177    0.000000   12.317643    ( 0.0000,  0.0000,  0.0000)
  12 Pd     1.419544    2.458723   12.317643    ( 0.0000,  0.0000,  0.0000)
  13 Pt     4.258633    2.458723   12.317643    ( 0.0000,  0.0000,  0.0000)
  14 Ag     7.097722    2.458723   12.317643    ( 0.0000,  0.0000,  0.0000)
  15 Ag     2.839089    4.917446   12.317643    ( 0.0000,  0.0000,  0.0000)
  16 Ag     5.678177    4.917446   12.317643    ( 0.0000,  0.0000,  0.0000)
  17 Pt     8.517266    4.917446   12.317643    ( 0.0000,  0.0000,  0.0000)
  18 Pt     1.388000    0.802626   14.575076    ( 0.0000,  0.0000,  0.0000)
  19 Pt     4.327703    0.818994   14.617540    ( 0.0000,  0.0000,  0.0000)
  20 Ru     7.154453    0.904136   14.678489    ( 0.0000,  0.0000,  0.0000)
  21 Pt     2.837633    3.215901   14.673982    ( 0.0000,  0.0000,  0.0000)
  22 Pd     5.681308    3.246175   14.669855    ( 0.0000,  0.0000,  0.0000)
  23 Pt     8.528895    3.277428   14.644600    ( 0.0000,  0.0000,  0.0000)
  24 Ag     4.282996    5.717353   14.643825    ( 0.0000,  0.0000,  0.0000)
  25 Pt     7.164148    5.767920   14.622045    ( 0.0000,  0.0000,  0.0000)
  26 Ag     9.990575    5.738858   14.630439    ( 0.0000,  0.0000,  0.0000)
  27 Pt    -0.005816    1.656415   16.845438    ( 0.0000,  0.0000,  0.0000)
  28 Pd     2.866590    1.599986   16.930526    ( 0.0000,  0.0000,  0.0000)
  29 Pd     5.673835    1.628240   16.945518    ( 0.0000,  0.0000,  0.0000)
  30 Ir     1.438959    4.058296   16.958321    ( 0.0000,  0.0000,  0.0000)
  31 Pt     4.195351    4.030038   16.979536    ( 0.0000,  0.0000,  0.0000)
  32 Pd     7.077793    4.088548   16.925616    ( 0.0000,  0.0000,  0.0000)
  33 Pd     2.838173    6.588858   16.892468    ( 0.0000,  0.0000,  0.0000)
  34 Ag     5.669760    6.514294   16.966960    ( 0.0000,  0.0000,  0.0000)
  35 Pt     8.533288    6.524709   16.937113    ( 0.0000,  0.0000,  0.0000)
  36 Pt    -0.023873    0.049042   19.235101    ( 0.0000,  0.0000,  0.0000)
  37 Pt     2.848994    0.021955   19.240829    ( 0.0000,  0.0000,  0.0000)
  38 Pt     5.660182   -0.033455   19.220293    ( 0.0000,  0.0000,  0.0000)
  39 Pt     1.374020    2.417694   19.148331    ( 0.0000,  0.0000,  0.0000)
  40 Pd     4.260908    2.495096   19.377791    ( 0.0000,  0.0000,  0.0000)
  41 Pd     7.122992    2.432417   19.242707    ( 0.0000,  0.0000,  0.0000)
  42 Pt     2.794210    4.973107   19.151687    ( 0.0000,  0.0000,  0.0000)
  43 Ag     5.685478    4.942875   19.430070    ( 0.0000,  0.0000,  0.0000)
  44 Pt     8.559481    4.927035   19.183262    ( 0.0000,  0.0000,  0.0000)
  45 O      4.247443    2.400140   21.386558    ( 0.0000,  0.0000,  0.0000)
  46 H      4.893274    3.063031   21.728163    ( 0.0000,  0.0000,  0.0000)

Unit cell:
           periodic     x           y           z      points  spacing
  1. axis:    yes    8.517266    0.000000    0.000000    40     0.1844
  2. axis:    yes    4.258633    7.376169    0.000000    40     0.1844
  3. axis:    no     0.000000    0.000000   29.270571   140     0.2091

  Lengths:   8.517266   8.517266  29.270571
  Angles:   90.000000  90.000000  60.000000

Effective grid spacing dv^(1/3) = 0.2017

     iter     time        total  log10-change:
                         energy  eigst   dens
iter:   1 14:19:41  -204.667127  -4.96
iter:   2 14:20:40  -213.486143  -3.63  -2.55
iter:   3 14:21:42  -204.581312  -3.87  -1.78
iter:   4 14:22:42  -204.480486  -5.30  -2.72
iter:   5 14:23:42  -204.465497c -5.97  -3.16
iter:   6 14:24:41  -204.465382c -6.43  -3.94
iter:   7 14:25:41  -204.464697c -6.71  -3.91
iter:   8 14:26:40  -204.464607c -6.99  -4.14c
iter:   9 14:27:41  -204.464985c -7.07  -4.12c
iter:  10 14:28:41  -204.464384c -7.54c -4.17c

Converged after 10 iterations.

Dipole moment: (31.649472, 12.820875, -0.208079) |e|*Ang

Energy contributions relative to reference atoms: (reference = -14174791.127075)

Kinetic:       -328.099405
Potential:     +182.140589
External:        +0.000000
XC:             -46.263398
Entropy (-ST):   -2.344381
Local:          -11.069980
--------------------------
Free energy:   -205.636574
Extrapolated:  -204.464384

Showing only first 2 kpts
 Kpt  Band  Eigenvalues  Occupancy
  0   364      0.59664    1.05377
  0   365      0.62660    0.90432
  0   366      0.67129    0.69099
  0   367      0.67444    0.67682

  1   364      0.48201    1.55596
  1   365      0.52268    1.39998
  1   366      0.54164    1.31748
  1   367      0.57206    1.17489


Fermi level: 0.60740

No gap

Forces in eV/Ang:
  0 Pd    0.01624   -0.00614   -0.26026
  1 Pt    0.30560   -0.52851    0.39197
  2 Pt   -0.34662   -0.14440    0.02306
  3 Pd   -0.41567    0.17963   -0.08205
  4 Pd    0.22134   -0.22647   -0.23642
  5 Pt    0.23080    0.31760   -0.18961
  6 Pd   -0.21274    0.22939   -0.09541
  7 Pt    0.53932    0.17249    0.08721
  8 Ru   -0.49034    0.06313    1.33553
  9 Pd   -0.21696    0.15439    0.15093
 10 Pt    0.31502    0.00709   -0.22855
 11 Pd    0.01598    0.05914   -0.09341
 12 Pd    0.09409    0.10722   -0.00309
 13 Pt   -0.18143   -0.18079    0.16470
 14 Ag    0.04335   -0.11055    0.02582
 15 Ag    0.00450   -0.08346   -0.12916
 16 Ag   -0.05445   -0.06812    0.06819
 17 Pt    0.02076    0.22749   -0.59243
 18 Pt    0.02259   -0.01488   -0.00625
 19 Pt    0.00647   -0.00952    0.00859
 20 Ru    0.01117   -0.00043    0.00121
 21 Pt    0.00711   -0.01645    0.01221
 22 Pd   -0.00113   -0.01806    0.00707
 23 Pt    0.01702    0.00708   -0.02240
 24 Ag    0.01128   -0.03268   -0.00716
 25 Pt    0.01072   -0.00287   -0.01692
 26 Ag    0.01275   -0.01431   -0.02143
 27 Pt    0.00500   -0.01343   -0.01287
 28 Pd   -0.01450   -0.02341   -0.03290
 29 Pd    0.00888    0.00013    0.00630
 30 Ir    0.00296   -0.01316   -0.01951
 31 Pt    0.02521    0.00540    0.02129
 32 Pd   -0.00739   -0.00493    0.00486
 33 Pd    0.00503   -0.00428   -0.02147
 34 Ag    0.00041   -0.00496   -0.01407
 35 Pt    0.00068   -0.00552   -0.02156
 36 Pt   -0.01144    0.01806   -0.03115
 37 Pt    0.04153    0.05697   -0.00885
 38 Pt   -0.02669    0.02147   -0.01608
 39 Pt    0.00992   -0.00177   -0.01448
 40 Pd   -0.08117   -0.05805   -0.04635
 41 Pd   -0.00668    0.00559   -0.01226
 42 Pt    0.00221    0.01123   -0.03063
 43 Ag    0.01697    0.03808   -0.00102
 44 Pt    0.00000   -0.00653   -0.01696
 45 O     0.00711   -0.07796   -0.14270
 46 H     0.08327    0.05403   -0.01349

System changes: positions 

Initializing position-dependent things.

Density initialized from wave functions
                                             
                                             
                                             
                                             
                                             
                                             
                     H                       
                   O                         
                 Pt     Ag     Pt            
                   Pd     Pd                 
            Pt    Pd     Ag     Pt           
       Pt    IPt    PPt    Pd                
                                             
        Pt     Pd    APd    Pt     Ag        
                Pt     Pd     Pt             
                                             
           Pt    APt    ARu    Pt            
                                             
            Pd    PPt    PAg    Ru           
       Pd     Pt     Pd                      
             Pd     Pd     Pt                
        Pd     Pt     Pt                     
                                             
                                             
[...]
  21 Pt     2.845050    3.208238   14.671131    ( 0.0000,  0.0000,  0.0000)
  22 Pd     5.687602    3.234492   14.669472    ( 0.0000,  0.0000,  0.0000)
  23 Pt     8.535668    3.272648   14.639292    ( 0.0000,  0.0000,  0.0000)
  24 Ag     4.291703    5.703145   14.640232    ( 0.0000,  0.0000,  0.0000)
  25 Pt     7.170688    5.759613   14.616701    ( 0.0000,  0.0000,  0.0000)
  26 Ag     9.999444    5.730720   14.621079    ( 0.0000,  0.0000,  0.0000)
  27 Pt    -0.003536    1.654234   16.836276    ( 0.0000,  0.0000,  0.0000)
  28 Pd     2.866035    1.592345   16.911297    ( 0.0000,  0.0000,  0.0000)
  29 Pd     5.679869    1.624496   16.940119    ( 0.0000,  0.0000,  0.0000)
  30 Ir     1.444022    4.053751   16.948713    ( 0.0000,  0.0000,  0.0000)
  31 Pt     4.203626    4.027370   16.978762    ( 0.0000,  0.0000,  0.0000)
  32 Pd     7.078352    4.082384   16.922569    ( 0.0000,  0.0000,  0.0000)
  33 Pd     2.841236    6.584493   16.876623    ( 0.0000,  0.0000,  0.0000)
  34 Ag     5.674830    6.508145   16.963123    ( 0.0000,  0.0000,  0.0000)
  35 Pt     8.538297    6.517726   16.924281    ( 0.0000,  0.0000,  0.0000)
  36 Pt    -0.031313    0.057011   19.218960    ( 0.0000,  0.0000,  0.0000)
  37 Pt     2.851290    0.032288   19.231201    ( 0.0000,  0.0000,  0.0000)
  38 Pt     5.655336   -0.029613   19.209521    ( 0.0000,  0.0000,  0.0000)
  39 Pt     1.368615    2.421175   19.138773    ( 0.0000,  0.0000,  0.0000)
  40 Pd     4.236139    2.495000   19.365580    ( 0.0000,  0.0000,  0.0000)
  41 Pd     7.112701    2.441890   19.239284    ( 0.0000,  0.0000,  0.0000)
  42 Pt     2.794675    4.983358   19.139484    ( 0.0000,  0.0000,  0.0000)
  43 Ag     5.686563    4.956883   19.430447    ( 0.0000,  0.0000,  0.0000)
  44 Pt     8.559489    4.927585   19.172925    ( 0.0000,  0.0000,  0.0000)
  45 O      4.286105    2.361821   21.358669    ( 0.0000,  0.0000,  0.0000)
  46 H      4.904196    3.049736   21.701515    ( 0.0000,  0.0000,  0.0000)

Unit cell:
           periodic     x           y           z      points  spacing
  1. axis:    yes    8.517266    0.000000    0.000000    40     0.1844
  2. axis:    yes    4.258633    7.376169    0.000000    40     0.1844
  3. axis:    no     0.000000    0.000000   29.270571   140     0.2091

  Lengths:   8.517266   8.517266  29.270571
  Angles:   90.000000  90.000000  60.000000

Effective grid spacing dv^(1/3) = 0.2017

     iter     time        total  log10-change:
                         energy  eigst   dens
iter:   1 18:15:53  -205.715404  -4.13
iter:   2 18:16:56  -242.774475  -2.85  -2.17
iter:   3 18:17:58  -206.897421  -3.22  -1.49
iter:   4 18:19:00  -204.695285  -4.24  -2.06
iter:   5 18:20:02  -204.496997  -5.08  -2.56
iter:   6 18:21:03  -204.480641c -5.50  -3.17
iter:   7 18:22:05  -204.486094c -5.94  -3.53
iter:   8 18:23:06  -204.480269c -6.19  -3.33
iter:   9 18:24:08  -204.479642c -6.46  -3.75
iter:  10 18:25:10  -204.479206c -6.77  -3.70
iter:  11 18:26:13  -204.480237c -6.69  -3.89
iter:  12 18:27:16  -204.479183c -6.99  -3.92
iter:  13 18:28:19  -204.478843c -7.20  -4.19c
iter:  14 18:29:21  -204.478983c -7.43c -4.04c

Converged after 14 iterations.

Dipole moment: (32.652211, 11.205217, -0.199539) |e|*Ang

Energy contributions relative to reference atoms: (reference = -14174791.127075)

Kinetic:       -324.715944
Potential:     +179.280977
External:        +0.000000
XC:             -46.793663
Entropy (-ST):   -2.335897
Local:          -11.082405
--------------------------
Free energy:   -205.646932
Extrapolated:  -204.478983

Showing only first 2 kpts
 Kpt  Band  Eigenvalues  Occupancy
  0   364      0.60620    1.04474
  0   365      0.63423    0.90494
  0   366      0.67797    0.69585
  0   367      0.68195    0.67791

  1   364      0.49246    1.54658
  1   365      0.53008    1.40146
  1   366      0.54956    1.31670
  1   367      0.58057    1.17125


Fermi level: 0.61516

No gap

Forces in eV/Ang:
  0 Pd    0.01375   -0.00376   -0.25342
  1 Pt    0.30476   -0.53034    0.39581
  2 Pt   -0.34534   -0.14316    0.02805
  3 Pd   -0.41957    0.18369   -0.07484
  4 Pd    0.22463   -0.22462   -0.23195
  5 Pt    0.22993    0.31950   -0.18161
  6 Pd   -0.21458    0.23040   -0.08855
  7 Pt    0.54129    0.17058    0.09025
  8 Ru   -0.49584    0.06595    1.34182
  9 Pd   -0.22650    0.14008    0.14461
 10 Pt    0.32659   -0.01371   -0.24680
 11 Pd    0.03745    0.04988   -0.11453
 12 Pd    0.09441    0.10251   -0.01878
 13 Pt   -0.16573   -0.18781    0.15653
 14 Ag    0.04667   -0.11367    0.00927
 15 Ag    0.01517   -0.08538   -0.15925
 16 Ag   -0.04541   -0.07996    0.04796
 17 Pt    0.03042    0.21357   -0.61396
 18 Pt    0.01658   -0.00984    0.03516
 19 Pt   -0.00861   -0.01084    0.03821
 20 Ru   -0.00046   -0.02057   -0.00366
 21 Pt   -0.00905   -0.00822    0.02614
 22 Pd    0.00253   -0.00426    0.00443
 23 Pt    0.00998    0.01653   -0.00193
 24 Ag    0.00232    0.01090    0.00407
 25 Pt    0.00812    0.01579    0.01223
 26 Ag   -0.00818   -0.00310    0.00578
 27 Pt    0.01654   -0.03142    0.01690
 28 Pd    0.02324   -0.00859    0.07795
 29 Pd   -0.03208   -0.01565    0.04989
 30 Ir    0.00921   -0.00216   -0.00553
 31 Pt   -0.02583   -0.03790    0.03876
 32 Pd    0.01131    0.00370    0.00675
 33 Pd    0.00913    0.01537    0.00803
 34 Ag   -0.00884    0.02067   -0.01982
 35 Pt   -0.00012    0.02370    0.00690
 36 Pt   -0.01424    0.02037   -0.00999
 37 Pt    0.04510    0.04384   -0.02839
 38 Pt   -0.03890    0.01495   -0.02920
 39 Pt    0.01114   -0.01523   -0.02276
 40 Pd    0.01316    0.01649   -0.18540
 41 Pd    0.00357   -0.01477   -0.02265
 42 Pt    0.00216   -0.01658   -0.01473
 43 Ag   -0.01137   -0.01652   -0.01356
 44 Pt    0.00259    0.00530   -0.00347
 45 O    -0.07757   -0.15641    0.06774
 46 H     0.07513    0.06190    0.03178

System changes: positions 

Initializing position-dependent things.

Density initialized from wave functions
                                             
                                             
                                             
                                             
                                             
                                             
                     H                       
                   O                         
                 Pt     Ag     Pt            
                   Pd     Pd                 
            Pt    Pd     Ag     Pt           
       Pt    IPt    PPt    Pd                
                                             
        Pt     Pd    APd    Pt     Ag        
                Pt     Pd     Pt             
                                             
           Pt    APt    ARu    Pt            
                                             
            Pd    PPt    PAg    Ru           
       Pd     Pt     Pd                      
             Pd     Pd     Pt                
        Pd     Pt     Pt                     
                                             
                                             
                                             
                                             
                                             

Positions:
   0 Pd     0.000000    1.639149   10.000000    ( 0.0000,  0.0000,  0.0000)
   1 Pt     2.839089    1.639149   10.000000    ( 0.0000,  0.0000,  0.0000)
   2 Pt     5.678177    1.639149   10.000000    ( 0.0000,  0.0000,  0.0000)
   3 Pd     1.419544    4.097872   10.000000    ( 0.0000,  0.0000,  0.0000)
   4 Pd     4.258633    4.097872   10.000000    ( 0.0000,  0.0000,  0.0000)
   5 Pt     7.097722    4.097872   10.000000    ( 0.0000,  0.0000,  0.0000)
   6 Pd     2.839089    6.556595   10.000000    ( 0.0000,  0.0000,  0.0000)
   7 Pt     5.678177    6.556595   10.000000    ( 0.0000,  0.0000,  0.0000)
   8 Ru     8.517266    6.556595   10.000000    ( 0.0000,  0.0000,  0.0000)
   9 Pd     0.000000    0.000000   12.317643    ( 0.0000,  0.0000,  0.0000)
  10 Pt     2.839089    0.000000   12.317643    ( 0.0000,  0.0000,  0.0000)
  11 Pd     5.678177    0.000000   12.317643    ( 0.0000,  0.0000,  0.0000)
  12 Pd     1.419544    2.458723   12.317643    ( 0.0000,  0.0000,  0.0000)
  13 Pt     4.258633    2.458723   12.317643    ( 0.0000,  0.0000,  0.0000)
  14 Ag     7.097722    2.458723   12.317643    ( 0.0000,  0.0000,  0.0000)
  15 Ag     2.839089    4.917446   12.317643    ( 0.0000,  0.0000,  0.0000)
  16 Ag     5.678177    4.917446   12.317643    ( 0.0000,  0.0000,  0.0000)
  17 Pt     8.517266    4.917446   12.317643    ( 0.0000,  0.0000,  0.0000)
  18 Pt     1.394232    0.792920   14.569180    ( 0.0000,  0.0000,  0.0000)
  19 Pt     4.336209    0.811200   14.615889    ( 0.0000,  0.0000,  0.0000)
  20 Ru     7.162409    0.896240   14.671465    ( 0.0000,  0.0000,  0.0000)
  21 Pt     2.844987    3.207717   14.672971    ( 0.0000,  0.0000,  0.0000)
  22 Pd     5.687576    3.234136   14.670788    ( 0.0000,  0.0000,  0.0000)
  23 Pt     8.535444    3.273487   14.638548    ( 0.0000,  0.0000,  0.0000)
  24 Ag     4.291804    5.702602   14.640267    ( 0.0000,  0.0000,  0.0000)
  25 Pt     7.170550    5.760632   14.616707    ( 0.0000,  0.0000,  0.0000)
  26 Ag     9.999489    5.731252   14.620162    ( 0.0000,  0.0000,  0.0000)
  27 Pt    -0.003237    1.653662   16.835461    ( 0.0000,  0.0000,  0.0000)
  28 Pd     2.867156    1.591885   16.915370    ( 0.0000,  0.0000,  0.0000)
  29 Pd     5.679477    1.624292   16.943863    ( 0.0000,  0.0000,  0.0000)
  30 Ir     1.443651    4.054125   16.947267    ( 0.0000,  0.0000,  0.0000)
  31 Pt     4.202814    4.026632   16.981108    ( 0.0000,  0.0000,  0.0000)
  32 Pd     7.077840    4.082464   16.922873    ( 0.0000,  0.0000,  0.0000)
  33 Pd     2.841026    6.585826   16.876433    ( 0.0000,  0.0000,  0.0000)
  34 Ag     5.673712    6.508519   16.962466    ( 0.0000,  0.0000,  0.0000)
  35 Pt     8.538283    6.517209   16.923706    ( 0.0000,  0.0000,  0.0000)
  36 Pt    -0.031909    0.057259   19.217910    ( 0.0000,  0.0000,  0.0000)
  37 Pt     2.854281    0.034173   19.229603    ( 0.0000,  0.0000,  0.0000)
  38 Pt     5.653672   -0.029327   19.209681    ( 0.0000,  0.0000,  0.0000)
  39 Pt     1.368440    2.420440   19.136988    ( 0.0000,  0.0000,  0.0000)
  40 Pd     4.236725    2.497239   19.363355    ( 0.0000,  0.0000,  0.0000)
  41 Pd     7.112878    2.440822   19.240593    ( 0.0000,  0.0000,  0.0000)
  42 Pt     2.794609    4.983516   19.139119    ( 0.0000,  0.0000,  0.0000)
  43 Ag     5.687744    4.957761   19.432310    ( 0.0000,  0.0000,  0.0000)
  44 Pt     8.560053    4.926563   19.171835    ( 0.0000,  0.0000,  0.0000)
  45 O      4.280457    2.358302   21.363937    ( 0.0000,  0.0000,  0.0000)
  46 H      4.905536    3.051640   21.690959    ( 0.0000,  0.0000,  0.0000)

Unit cell:
           periodic     x           y           z      points  spacing
  1. axis:    yes    8.517266    0.000000    0.000000    40     0.1844
  2. axis:    yes    4.258633    7.376169    0.000000    40     0.1844
  3. axis:    no     0.000000    0.000000   29.270571   140     0.2091

  Lengths:   8.517266   8.517266  29.270571
  Angles:   90.000000  90.000000  60.000000

Effective grid spacing dv^(1/3) = 0.2017

     iter     time        total  log10-change:
                         energy  eigst   dens
iter:   1 18:30:45  -207.985826  -4.07
iter:   2 18:31:46  -290.917694  -2.37  -1.93
iter:   3 18:32:48  -211.994984  -2.79  -1.31
iter:   4 18:33:50  -205.313762  -3.65  -1.89
iter:   5 18:34:52  -204.533524  -4.52  -2.27
iter:   6 18:35:53  -204.498982  -5.06  -3.03
iter:   7 18:36:55  -204.495921c -5.43  -3.20
iter:   8 18:37:57  -204.483319c -5.71  -3.18
iter:   9 18:39:00  -204.483250c -6.11  -3.48
iter:  10 18:40:02  -204.481970c -6.30  -3.62
iter:  11 18:41:04  -204.482848c -6.45  -3.74
iter:  12 18:42:06  -204.480120c -6.45  -3.55
iter:  13 18:43:07  -204.480851c -6.98  -4.05c
iter:  14 18:44:09  -204.480551c -7.41c -3.78
iter:  15 18:45:12  -204.480218c -7.54c -3.79
iter:  16 18:46:14  -204.479892c -7.67c -4.02c

Converged after 16 iterations.

Dipole moment: (32.651072, 11.124763, -0.209014) |e|*Ang

Energy contributions relative to reference atoms: (reference = -14174791.127075)

Kinetic:       -323.305311
Potential:     +177.922443
External:        +0.000000
XC:             -46.823439
Entropy (-ST):   -2.336440
Local:          -11.105364
--------------------------
Free energy:   -205.648111
Extrapolated:  -204.479892

Showing only first 2 kpts
 Kpt  Band  Eigenvalues  Occupancy
  0   364      0.60313    1.04364
  0   365      0.63122    0.90354
  0   366      0.67425    0.69782
  0   367      0.67863    0.67805

  1   364      0.48887    1.54763
  1   365      0.52695    1.40079
  1   366      0.54596    1.31811
  1   367      0.57769    1.16922


Fermi level: 0.61186

No gap

Forces in eV/Ang:
  0 Pd    0.01390   -0.00392   -0.24570
  1 Pt    0.30453   -0.52913    0.40615
  2 Pt   -0.34536   -0.14240    0.03770
  3 Pd   -0.41888    0.18155   -0.06388
  4 Pd    0.22499   -0.22534   -0.22293
  5 Pt    0.22796    0.31883   -0.17275
  6 Pd   -0.21397    0.23112   -0.07825
  7 Pt    0.53957    0.16959    0.09947
  8 Ru   -0.49569    0.06651    1.34804
  9 Pd   -0.21900    0.14620    0.15434
 10 Pt    0.33381   -0.00389   -0.24055
 11 Pd    0.02477    0.05743   -0.11087
 12 Pd    0.10068    0.09906   -0.00931
 13 Pt   -0.17153   -0.19064    0.17312
 14 Ag    0.04419   -0.11284    0.01210
 15 Ag    0.01797   -0.09551   -0.15065
 16 Ag   -0.04725   -0.08390    0.05648
 17 Pt    0.02935    0.21554   -0.61379
 18 Pt   -0.00060   -0.00100    0.00839
 19 Pt   -0.00445   -0.00635   -0.00401
 20 Ru    0.00095   -0.00875    0.00162
 21 Pt    0.00140   -0.00316   -0.00696
 22 Pd    0.00183    0.00114   -0.00900
 23 Pt    0.00651   -0.00116    0.00509
 24 Ag    0.00424    0.00189    0.00229
 25 Pt    0.00519   -0.00531    0.00681
 26 Ag   -0.00375   -0.00711    0.00479
 27 Pt    0.00460   -0.00833    0.00527
 28 Pd   -0.00575    0.00215   -0.00721
 29 Pd    0.00198   -0.00857   -0.02629
 30 Ir    0.00359    0.00050   -0.00242
 31 Pt   -0.00463   -0.00138   -0.01821
 32 Pd    0.00818    0.00142   -0.00796
 33 Pd    0.00751   -0.00749   -0.00030
 34 Ag   -0.00056   -0.00005   -0.00951
 35 Pt    0.00287    0.00301   -0.00143
 36 Pt   -0.00068    0.00584   -0.00910
 37 Pt   -0.00691    0.00229   -0.00988
 38 Pt   -0.00371    0.00529   -0.00992
 39 Pt    0.00005    0.00186   -0.00871
 40 Pd    0.01275   -0.00177   -0.05515
 41 Pd   -0.00352    0.00306   -0.00998
 42 Pt   -0.00363   -0.00180   -0.00785
 43 Ag   -0.00865   -0.00515   -0.00968
 44 Pt   -0.00310    0.00844   -0.00628
 45 O     0.03017   -0.04725   -0.00165
 46 H     0.00009   -0.01590   -0.02342

Timing:                                      incl.     excl.
-------------------------------------------------------------------
Density initialized from wave functions:    71.042    71.041   0.3% |
 Symmetrize density:                         0.001     0.001   0.0% |
Forces:                                    331.212   331.212   1.4% ||
Hamiltonian:                                36.702     0.196   0.0% |
 Atomic:                                     5.365     3.464   0.0% |
  XC Correction:                             1.901     1.901   0.0% |
 Calculate atomic Hamiltonians:             25.731    25.731   0.1% |
 Communicate:                                0.135     0.135   0.0% |
 Initialize Hamiltonian:                     0.001     0.001   0.0% |
 Poisson:                                    0.115     0.115   0.0% |
 XC 3D grid:                                 5.158     5.158   0.0% |
LCAO initialization:                       131.461     2.850   0.0% |
 LCAO eigensolver:                          14.664     0.001   0.0% |
  Blacs Orbital Layouts:                     0.311     0.000   0.0% |
   General diagonalize:                      0.306     0.306   0.0% |
   Redistribute coefs:                       0.003     0.003   0.0% |
   Send coefs to domains:                    0.002     0.002   0.0% |
  Calculate projections:                     0.002     0.002   0.0% |
  Distribute overlap matrix:                13.556     0.000   0.0% |
   Scalapack redistribute:                   0.011     0.011   0.0% |
   blocked summation:                       13.545    13.545   0.1% |
  Potential matrix:                          0.757     0.757   0.0% |
  SparseAtomicCorrection:                    0.004     0.004   0.0% |
  Sum over cells:                            0.033     0.033   0.0% |
 LCAO to grid:                             110.318   110.318   0.5% |
 Set positions (LCAO WFS):                   3.629     0.006   0.0% |
  Basic WFS set positions:                   0.003     0.003   0.0% |
  Basis functions set positions:             0.000     0.000   0.0% |
  P tci:                                     0.000     0.000   0.0% |
  ST tci:                                    0.290     0.290   0.0% |
  Scalapack redistribute:                    0.007     0.007   0.0% |
  blocked summation:                         3.205     3.205   0.0% |
  mktci:                                     0.118     0.118   0.0% |
PWDescriptor:                                0.589     0.589   0.0% |
Redistribute:                                0.020     0.020   0.0% |
SCF-cycle:                               22775.498   113.763   0.5% |
 Davidson:                               21075.332  4776.244  20.4% |-------|
  Apply H:                                2282.555  2247.207   9.6% |---|
   HMM T:                                   35.347    35.347   0.2% |
  Subspace diag:                          2456.057     0.064   0.0% |
   calc_h_matrix:                         1630.661   447.001   1.9% ||
    Apply H:                              1183.660  1162.833   5.0% |-|
     HMM T:                                 20.827    20.827   0.1% |
   diagonalize:                             86.824    86.824   0.4% |
   rotate_psi:                             738.508   738.508   3.1% ||
  calc. matrices:                         8141.031  4744.113  20.2% |-------|
   Apply H:                               3396.918  3342.653  14.2% |-----|
    HMM T:                                  54.265    54.265   0.2% |
  diagonalize:                            1127.571  1127.571   4.8% |-|
  rotate_psi:                             2291.874  2291.874   9.8% |---|
 Density:                                  996.873     0.014   0.0% |
  Atomic density matrices:                   6.816     6.816   0.0% |
  Mix:                                     385.584   385.584   1.6% ||
  Multipole moments:                         0.612     0.612   0.0% |
  Pseudo density:                          603.847   603.834   2.6% ||
   Symmetrize density:                       0.013     0.013   0.0% |
 Hamiltonian:                              493.571     2.681   0.0% |
  Atomic:                                   72.807    47.052   0.2% |
   XC Correction:                           25.755    25.755   0.1% |
  Calculate atomic Hamiltonians:           347.965   347.965   1.5% ||
  Communicate:                               2.059     2.059   0.0% |
  Poisson:                                   1.564     1.564   0.0% |
  XC 3D grid:                               66.495    66.495   0.3% |
 Orthonormalize:                            95.959     0.008   0.0% |
  calc_s_matrix:                            15.375    15.375   0.1% |
  inverse-cholesky:                          5.068     5.068   0.0% |
  projections:                              49.643    49.643   0.2% |
  rotate_psi_s:                             25.864    25.864   0.1% |
Set symmetry:                                0.003     0.003   0.0% |
Other:                                     111.848   111.848   0.5% |
-------------------------------------------------------------------
Total:                                             23458.374 100.0%

Memory usage: 869.89 MiB
Date: Fri Jun 14 18:46:28 2024
