
  ___ ___ ___ _ _ _  
 |   |   |_  | | | | 
 | | | | | . | | | | 
 |__ |  _|___|_____|  22.1.0
 |___|_|             

User:   clausen@node419.cluster
Date:   Fri Jun 14 12:15:30 2024
Arch:   x86_64
Pid:    157643
Python: 3.10.4
gpaw:   /groups/kemi/clausen/miniconda3/envs/gpaw22/lib/python3.10/site-packages/gpaw
_gpaw:  /groups/kemi/clausen/miniconda3/envs/gpaw22/lib/python3.10/site-packages/
        _gpaw.cpython-310-x86_64-linux-gnu.so
ase:    /groups/kemi/clausen/miniconda3/envs/gpaw22/lib/python3.10/site-packages/ase (version 3.22.1)
numpy:  /groups/kemi/clausen/miniconda3/envs/gpaw22/lib/python3.10/site-packages/numpy (version 1.23.1)
scipy:  /groups/kemi/clausen/miniconda3/envs/gpaw22/lib/python3.10/site-packages/scipy (version 1.8.1)
libxc:  5.2.3
units:  Angstrom and eV
cores: 24
OpenMP: True
OMP_NUM_THREADS: 1

Input parameters:
  eigensolver: {name: dav,
                niter: 3}
  kpts: [4 4 1]
  mode: {ecut: 400.0,
         name: pw}
  xc: RPBE

System changes: positions, numbers, cell, pbc, initial_charges, initial_magmoms 

Initialize ...

Pd-setup:
  name: Palladium
  id: 6da19bfba079f22767af9506641940b9
  Z: 46.0
  valence: 16
  core: 30
  charge: 0.0
  file: /groups/kemi/clausen/miniconda3/envs/gpaw22/share/gpaw/Pd.RPBE.gz
  compensation charges: gauss, rc=0.38, lmax=2
  cutoffs: 2.38(filt), 2.28(core),
  valence states:
                energy  radius
    5s(0.00)    -3.225   1.228
    4p(6.00)   -51.131   1.360
    5p(0.00)    -0.373   1.360
    4d(10.00)    -3.964   1.228
    *s          23.987   1.228
    *d          23.247   1.228

  Using partial waves for Pd as LCAO basis

Pt-setup:
  name: Platinum
  id: f04f522592575c47ad794f6b4a415b4b
  Z: 78.0
  valence: 16
  core: 62
  charge: 0.0
  file: /groups/kemi/clausen/miniconda3/envs/gpaw22/share/gpaw/Pt.RPBE.gz
  compensation charges: gauss, rc=0.41, lmax=2
  cutoffs: 2.26(filt), 2.26(core),
  valence states:
                energy  radius
    6s(1.00)    -5.516   1.307
    5p(6.00)   -55.971   1.371
    6p(0.00)    -0.856   1.371
    5d(9.00)    -6.087   1.307
    *s          21.695   1.307
    *d          21.125   1.307

  Using partial waves for Pt as LCAO basis

Ru-setup:
  name: Ruthenium
  id: 76477906e28f51dc1b29884d53556fe9
  Z: 44.0
  valence: 16
  core: 28
  charge: 0.0
  file: /groups/kemi/clausen/miniconda3/envs/gpaw22/share/gpaw/Ru.RPBE.gz
  compensation charges: gauss, rc=0.39, lmax=2
  cutoffs: 2.16(filt), 1.30(core),
  valence states:
                energy  radius
    4s(2.00)   -76.255   1.281
    5s(1.00)    -4.126   1.281
    4p(6.00)   -46.371   1.286
    5p(0.00)    -0.913   1.286
    4d(7.00)    -5.146   1.254
    *d          22.066   1.254

  Using partial waves for Ru as LCAO basis

Ag-setup:
  name: Silver
  id: c05e55bab2c3858b3f9398f6d75cb77c
  Z: 47.0
  valence: 17
  core: 30
  charge: 0.0
  file: /groups/kemi/clausen/miniconda3/envs/gpaw22/share/gpaw/Ag.RPBE.gz
  compensation charges: gauss, rc=0.40, lmax=2
  cutoffs: 2.35(filt), 2.19(core),
  valence states:
                energy  radius
    5s(1.00)    -4.277   1.286
    4p(6.00)   -58.523   1.328
    5p(0.00)    -0.755   1.328
    4d(10.00)    -7.386   1.180
    *s          22.934   1.286
    *d          19.826   1.180

  Using partial waves for Ag as LCAO basis

Ir-setup:
  name: Iridium
  id: 73b603359d1d5397a85ae3c2440f9033
  Z: 77.0
  valence: 15
  core: 62
  charge: 0.0
  file: /groups/kemi/clausen/miniconda3/envs/gpaw22/share/gpaw/Ir.RPBE.gz
  compensation charges: gauss, rc=0.40, lmax=2
  cutoffs: 2.40(filt), 2.36(core),
  valence states:
                energy  radius
    6s(2.00)    -6.219   1.296
    5p(6.00)   -54.684   1.328
    6p(0.00)    -1.215   1.328
    5d(7.00)    -7.118   1.286
    *s          20.992   1.296
    *d          20.093   1.286

  Using partial waves for Ir as LCAO basis

H-setup:
  name: Hydrogen
  id: ea3f9156a1dc40d47a60fdce8f8bd75d
  Z: 1.0
  valence: 1
  core: 0
  charge: 0.0
  file: /groups/kemi/clausen/miniconda3/envs/gpaw22/share/gpaw/H.RPBE.gz
  compensation charges: gauss, rc=0.15, lmax=2
  cutoffs: 0.85(filt), 0.53(core),
  valence states:
                energy  radius
    1s(1.00)    -6.572   0.476
    *s          20.639   0.476
    *p           0.000   0.476

  Using partial waves for H as LCAO basis

Reference energy: -14172748.147892

Spin-paired calculation

Convergence criteria:
 Maximum [total energy] change in last 3 cyles: 0.0005 eV / electron
 Maximum integral of absolute [dens]ity change: 0.0001 electrons / valence electron
 Maximum integral of absolute [eigenst]ate change: 4e-08 eV^2 / valence electron
 Maximum number of scf [iter]ations: 333
 (Square brackets indicate name in SCF output, whereas a 'c' in
 the SCF output indicates the quantity has converged.)

Symmetries present (total): 1

  ( 1  0  0)
  ( 0  1  0)
  ( 0  0  1)

16 k-points: 4 x 4 x 1 Monkhorst-Pack grid
8 k-points in the irreducible part of the Brillouin zone
       k-points in crystal coordinates                weights
   0:     0.12500000   -0.37500000    0.00000000          2/16
   1:     0.12500000   -0.12500000    0.00000000          2/16
   2:     0.12500000    0.12500000    0.00000000          2/16
   3:     0.12500000    0.37500000    0.00000000          2/16
   4:     0.37500000   -0.37500000    0.00000000          2/16
   5:     0.37500000   -0.12500000    0.00000000          2/16
   6:     0.37500000    0.12500000    0.00000000          2/16
   7:     0.37500000    0.37500000    0.00000000          2/16

Wave functions: Plane wave expansion
  Cutoff energy: 400.000 eV
  Number of coefficients (min, max): 33332, 33436
  Pulay-stress correction: 0.000000 eV/Ang^3 (de/decut=0.000000)
  Using FFTW library
  ScaLapack parameters: grid=3x1, blocksize=64
  Wavefunction extrapolation:
    Improved wavefunction reuse through dual PAW basis 

Occupation numbers: Fermi-Dirac: width=0.1000 eV
 

Eigensolver
   Davidson(niter=3) 

Densities:
  Coarse grid: 40*40*140 grid
  Fine grid: 80*80*280 grid
  Total Charge: 0.000000 

Density mixing:
  Method: separate
  Backend: pulay
  Linear mixing parameter: 0.05
  Mixing with 5 old densities
  Damping of long wave oscillations: 50 

Hamiltonian:
  XC and Coulomb potentials evaluated on a 80*80*280 grid
  Using the RPBE Exchange-Correlation functional
  External potential:
    NoExternalPotential
 

XC parameters: RPBE with 2 nearest neighbor stencil

Memory estimate:
  Process memory now: 195.55 MiB
  Calculator: 554.47 MiB
    Density: 47.45 MiB
      Arrays: 14.92 MiB
      Localized functions: 26.79 MiB
      Mixer: 5.74 MiB
    Hamiltonian: 10.59 MiB
      Arrays: 9.75 MiB
      XC: 0.00 MiB
      Poisson: 0.00 MiB
      vbar: 0.84 MiB
    Wavefunctions: 496.43 MiB
      Arrays psit_nG: 225.00 MiB
      Eigensolver: 257.23 MiB
      Projections: 1.83 MiB
      Projectors: 3.57 MiB
      PW-descriptor: 8.80 MiB

Total number of cores used: 24
Parallelization over k-points: 8
Domain decomposition: 1 x 1 x 3
                      2 x 2 x 6 (xc only)

Number of atoms: 46
Number of atomic orbitals: 543
Number of bands in calculation: 441
Number of valence electrons: 727
Bands to converge: occupied

... initialized

Initializing position-dependent things.

Density initialized from atomic densities
Creating initial wave functions:
  441 bands from LCAO basis set

                                             
                                             
                                             
                                             
                                             
                                             
                        Ag                   
                 Pt            Pt            
            Pt    PPd    HPd    Pt           
                                             
       Pt    IPt    PPt    Pd                
                                             
        Pt     Pd    APd    Pt     Ag        
                Pt     Pd     Pt             
                                             
           Pt    APt    ARu    Pt            
                                             
            Pd    PPt    PAg    Ru           
       Pd     Pt     Pd                      
             Pd     Pd     Pt                
        Pd     Pt     Pt                     
                                             
                                             
                                             
                                             
                                             

Positions:
   0 Pd     0.000000    1.639149   10.000000    ( 0.0000,  0.0000,  0.0000)
   1 Pt     2.839089    1.639149   10.000000    ( 0.0000,  0.0000,  0.0000)
   2 Pt     5.678177    1.639149   10.000000    ( 0.0000,  0.0000,  0.0000)
   3 Pd     1.419544    4.097872   10.000000    ( 0.0000,  0.0000,  0.0000)
   4 Pd     4.258633    4.097872   10.000000    ( 0.0000,  0.0000,  0.0000)
   5 Pt     7.097722    4.097872   10.000000    ( 0.0000,  0.0000,  0.0000)
   6 Pd     2.839089    6.556595   10.000000    ( 0.0000,  0.0000,  0.0000)
   7 Pt     5.678177    6.556595   10.000000    ( 0.0000,  0.0000,  0.0000)
   8 Ru     8.517266    6.556595   10.000000    ( 0.0000,  0.0000,  0.0000)
   9 Pd     0.000000    0.000000   12.317643    ( 0.0000,  0.0000,  0.0000)
  10 Pt     2.839089    0.000000   12.317643    ( 0.0000,  0.0000,  0.0000)
  11 Pd     5.678177    0.000000   12.317643    ( 0.0000,  0.0000,  0.0000)
  12 Pd     1.419544    2.458723   12.317643    ( 0.0000,  0.0000,  0.0000)
  13 Pt     4.258633    2.458723   12.317643    ( 0.0000,  0.0000,  0.0000)
  14 Ag     7.097722    2.458723   12.317643    ( 0.0000,  0.0000,  0.0000)
  15 Ag     2.839089    4.917446   12.317643    ( 0.0000,  0.0000,  0.0000)
  16 Ag     5.678177    4.917446   12.317643    ( 0.0000,  0.0000,  0.0000)
  17 Pt     8.517266    4.917446   12.317643    ( 0.0000,  0.0000,  0.0000)
  18 Pt     1.382601    0.802015   14.574458    ( 0.0000,  0.0000,  0.0000)
  19 Pt     4.320375    0.816336   14.613039    ( 0.0000,  0.0000,  0.0000)
  20 Ru     7.144265    0.918131   14.702206    ( 0.0000,  0.0000,  0.0000)
  21 Pt     2.831254    3.224549   14.674209    ( 0.0000,  0.0000,  0.0000)
  22 Pd     5.669505    3.253449   14.666412    ( 0.0000,  0.0000,  0.0000)
  23 Pt     8.531860    3.282380   14.648110    ( 0.0000,  0.0000,  0.0000)
  24 Ag     4.274318    5.722991   14.646070    ( 0.0000,  0.0000,  0.0000)
  25 Pt     7.164045    5.771726   14.621475    ( 0.0000,  0.0000,  0.0000)
  26 Ag     9.986908    5.738787   14.643456    ( 0.0000,  0.0000,  0.0000)
  27 Pt    -0.010030    1.649760   16.860047    ( 0.0000,  0.0000,  0.0000)
  28 Pd     2.846447    1.596866   16.907942    ( 0.0000,  0.0000,  0.0000)
  29 Pd     5.675289    1.629573   16.927321    ( 0.0000,  0.0000,  0.0000)
  30 Ir     1.434330    4.054121   16.976739    ( 0.0000,  0.0000,  0.0000)
  31 Pt     4.206017    4.046333   16.977057    ( 0.0000,  0.0000,  0.0000)
  32 Pd     7.080668    4.096815   16.929692    ( 0.0000,  0.0000,  0.0000)
  33 Pd     2.838049    6.583929   16.905471    ( 0.0000,  0.0000,  0.0000)
  34 Ag     5.672922    6.523405   16.970942    ( 0.0000,  0.0000,  0.0000)
  35 Pt     8.525101    6.536969   16.950374    ( 0.0000,  0.0000,  0.0000)
  36 Pt    -0.017716    0.053004   19.239954    ( 0.0000,  0.0000,  0.0000)
  37 Pt     2.857597    0.044181   19.266473    ( 0.0000,  0.0000,  0.0000)
  38 Pt     5.659519   -0.012970   19.233800    ( 0.0000,  0.0000,  0.0000)
  39 Pt     1.394642    2.415452   19.172426    ( 0.0000,  0.0000,  0.0000)
  40 Pd     4.249890    2.430035   19.273035    ( 0.0000,  0.0000,  0.0000)
  41 Pd     7.120027    2.427105   19.248801    ( 0.0000,  0.0000,  0.0000)
  42 Pt     2.796750    4.960022   19.159701    ( 0.0000,  0.0000,  0.0000)
  43 Ag     5.679377    4.925181   19.423236    ( 0.0000,  0.0000,  0.0000)
  44 Pt     8.558870    4.929592   19.192007    ( 0.0000,  0.0000,  0.0000)
  45 H      7.093032    0.822380   20.723236    ( 0.0000,  0.0000,  0.0000)

Unit cell:
           periodic     x           y           z      points  spacing
  1. axis:    yes    8.517266    0.000000    0.000000    40     0.1844
  2. axis:    yes    4.258633    7.376169    0.000000    40     0.1844
  3. axis:    no     0.000000    0.000000   29.270571   140     0.2091

  Lengths:   8.517266   8.517266  29.270571
  Angles:   90.000000  90.000000  60.000000

Effective grid spacing dv^(1/3) = 0.2017

     iter     time        total  log10-change:
                         energy  eigst   dens
iter:   1 12:18:46  -253.493210
iter:   2 12:19:44  -218.963452  -1.66  -1.21
iter:   3 12:20:43  -213.967952  -2.31  -1.38
iter:   4 12:21:41  -253.438916  -2.31  -1.43
iter:   5 12:22:40  -211.485990  -2.48  -1.28
iter:   6 12:23:39  -205.833487  -2.64  -1.50
iter:   7 12:24:37  -202.248311  -2.50  -1.61
iter:   8 12:25:36  -200.724330  -3.19  -1.83
iter:   9 12:26:35  -201.066739  -3.35  -1.92
iter:  10 12:27:35  -201.158933  -3.70  -2.00
iter:  11 12:28:34  -200.475809  -4.03  -2.03
iter:  12 12:29:33  -200.461522  -4.19  -2.13
iter:  13 12:30:32  -200.111585  -3.68  -2.16
iter:  14 12:31:31  -199.967149  -3.73  -2.30
iter:  15 12:32:30  -199.886520c -4.22  -2.40
iter:  16 12:33:30  -199.946168c -3.97  -2.52
iter:  17 12:34:29  -199.845530c -4.76  -2.52
iter:  18 12:35:28  -199.797134c -4.66  -2.62
iter:  19 12:36:28  -199.779216c -5.00  -2.80
iter:  20 12:37:27  -199.769709c -5.14  -2.95
iter:  21 12:38:26  -199.775082c -5.25  -3.12
iter:  22 12:39:25  -199.767572c -5.71  -3.06
iter:  23 12:40:25  -199.769318c -6.03  -3.25
iter:  24 12:41:24  -199.768412c -5.83  -3.26
iter:  25 12:42:25  -199.768161c -5.94  -3.37
iter:  26 12:43:24  -199.768345c -6.31  -3.48
iter:  27 12:44:24  -199.768361c -6.59  -3.60
iter:  28 12:45:24  -199.769317c -6.51  -3.55
iter:  29 12:46:24  -199.768319c -6.53  -3.53
iter:  30 12:47:24  -199.767833c -7.24  -3.76
iter:  31 12:48:24  -199.767889c -7.26  -3.84
iter:  32 12:49:24  -199.768314c -7.29  -3.88
iter:  33 12:50:25  -199.767944c -7.58c -3.93
iter:  34 12:51:24  -199.768077c -7.94c -4.04c

Converged after 34 iterations.

Dipole moment: (28.157693, 10.536425, -0.035408) |e|*Ang

Energy contributions relative to reference atoms: (reference = -14172748.147892)

Kinetic:       -329.115778
Potential:     +181.417927
External:        +0.000000
XC:             -39.888823
Entropy (-ST):   -2.333631
Local:          -11.014587
--------------------------
Free energy:   -200.934892
Extrapolated:  -199.768077

Showing only first 2 kpts
 Kpt  Band  Eigenvalues  Occupancy
  0   361      0.64191    1.02220
  0   362      0.66321    0.91590
  0   363      0.69138    0.77856
  0   364      0.71477    0.67064

  1   361      0.51404    1.57938
  1   362      0.54975    1.44864
  1   363      0.57749    1.33130
  1   364      0.62109    1.12561


Fermi level: 0.64635

No gap

Forces in eV/Ang:
  0 Pd    0.01415   -0.01021   -0.24685
  1 Pt    0.31614   -0.52173    0.39536
  2 Pt   -0.35724   -0.13859    0.03115
  3 Pd   -0.40919    0.17335   -0.06930
  4 Pd    0.22316   -0.23293   -0.23605
  5 Pt    0.22010    0.32347   -0.17464
  6 Pd   -0.21704    0.23153   -0.08599
  7 Pt    0.57216    0.16546    0.09264
  8 Ru   -0.50293    0.06217    1.36135
  9 Pd   -0.23022    0.16791    0.18710
 10 Pt    0.29641    0.01995   -0.23213
 11 Pd    0.03740    0.04534   -0.07381
 12 Pd    0.08272    0.10174   -0.00200
 13 Pt   -0.19451   -0.17672    0.16184
 14 Ag    0.05048   -0.13047    0.07736
 15 Ag   -0.01248   -0.07315   -0.10270
 16 Ag   -0.06510   -0.05739    0.07302
 17 Pt    0.03318    0.23515   -0.57946
 18 Pt    0.02348    0.01693    0.01881
 19 Pt    0.01848    0.00457   -0.02765
 20 Ru   -0.00550   -0.02171   -0.09037
 21 Pt    0.03700   -0.01831   -0.01034
 22 Pd    0.06924   -0.00315   -0.00451
 23 Pt   -0.03406   -0.01631   -0.00241
 24 Ag    0.03871   -0.01577   -0.01258
 25 Pt   -0.04073   -0.02452   -0.07249
 26 Ag   -0.00693    0.01451   -0.05137
 27 Pt    0.06326    0.08688   -0.15362
 28 Pd    0.01021    0.01095   -0.04536
 29 Pd   -0.00814    0.00002   -0.10406
 30 Ir    0.03622   -0.01254   -0.04387
 31 Pt   -0.01112   -0.04343   -0.01489
 32 Pd    0.01947   -0.08815    0.05441
 33 Pd   -0.01085   -0.01640   -0.10985
 34 Ag   -0.03825   -0.01828    0.09400
 35 Pt    0.16519   -0.01629    0.12149
 36 Pt   -0.20728    0.06439    0.81947
 37 Pt   -0.04277   -0.07133   -0.10788
 38 Pt    0.18645    0.14396    0.68034
 39 Pt    0.13639    0.11641   -0.10744
 40 Pd   -0.10890    0.07505   -0.04587
 41 Pd   -0.06861   -0.02984    0.49976
 42 Pt   -0.05633   -0.08276   -0.06199
 43 Ag    0.00028    0.02266    0.06222
 44 Pt    0.00012   -0.01101   -0.08074
 45 H    -0.02148   -0.25582   -1.81462

System changes: positions 

Initializing position-dependent things.

Density initialized from wave functions
                                             
                                             
                                             
                                             
                                             
                                             
                        Ag                   
                 Pt            Pt            
            Pt    PPd    HPd    Pt           
                                             
       Pt    IPt    PPt    Pd                
                                             
        Pt     Pd    APd    Pt     Ag        
                Pt     Pd     Pt             
                                             
           Pt    APt    ARu    Pt            
                                             
            Pd    PPt    PAg    Ru           
       Pd     Pt     Pd                      
             Pd     Pd     Pt                
        Pd     Pt     Pt                     
                                             
                                             
                                             
                                             
                                             

Positions:
   0 Pd     0.000000    1.639149   10.000000    ( 0.0000,  0.0000,  0.0000)
   1 Pt     2.839089    1.639149   10.000000    ( 0.0000,  0.0000,  0.0000)
   2 Pt     5.678177    1.639149   10.000000    ( 0.0000,  0.0000,  0.0000)
   3 Pd     1.419544    4.097872   10.000000    ( 0.0000,  0.0000,  0.0000)
   4 Pd     4.258633    4.097872   10.000000    ( 0.0000,  0.0000,  0.0000)
   5 Pt     7.097722    4.097872   10.000000    ( 0.0000,  0.0000,  0.0000)
   6 Pd     2.839089    6.556595   10.000000    ( 0.0000,  0.0000,  0.0000)
   7 Pt     5.678177    6.556595   10.000000    ( 0.0000,  0.0000,  0.0000)
   8 Ru     8.517266    6.556595   10.000000    ( 0.0000,  0.0000,  0.0000)
   9 Pd     0.000000    0.000000   12.317643    ( 0.0000,  0.0000,  0.0000)
  10 Pt     2.839089    0.000000   12.317643    ( 0.0000,  0.0000,  0.0000)
  11 Pd     5.678177    0.000000   12.317643    ( 0.0000,  0.0000,  0.0000)
  12 Pd     1.419544    2.458723   12.317643    ( 0.0000,  0.0000,  0.0000)
  13 Pt     4.258633    2.458723   12.317643    ( 0.0000,  0.0000,  0.0000)
  14 Ag     7.097722    2.458723   12.317643    ( 0.0000,  0.0000,  0.0000)
  15 Ag     2.839089    4.917446   12.317643    ( 0.0000,  0.0000,  0.0000)
  16 Ag     5.678177    4.917446   12.317643    ( 0.0000,  0.0000,  0.0000)
  17 Pt     8.517266    4.917446   12.317643    ( 0.0000,  0.0000,  0.0000)
  18 Pt     1.382936    0.802257   14.574726    ( 0.0000,  0.0000,  0.0000)
  19 Pt     4.320639    0.816401   14.612644    ( 0.0000,  0.0000,  0.0000)
  20 Ru     7.144186    0.917821   14.700915    ( 0.0000,  0.0000,  0.0000)
  21 Pt     2.831782    3.224287   14.674062    ( 0.0000,  0.0000,  0.0000)
  22 Pd     5.670494    3.253404   14.666348    ( 0.0000,  0.0000,  0.0000)
  23 Pt     8.531373    3.282147   14.648076    ( 0.0000,  0.0000,  0.0000)
  24 Ag     4.274871    5.722766   14.645890    ( 0.0000,  0.0000,  0.0000)
  25 Pt     7.163463    5.771376   14.620439    ( 0.0000,  0.0000,  0.0000)
  26 Ag     9.986809    5.738994   14.642722    ( 0.0000,  0.0000,  0.0000)
  27 Pt    -0.009126    1.651001   16.857852    ( 0.0000,  0.0000,  0.0000)
  28 Pd     2.846593    1.597022   16.907294    ( 0.0000,  0.0000,  0.0000)
  29 Pd     5.675173    1.629573   16.925834    ( 0.0000,  0.0000,  0.0000)
  30 Ir     1.434848    4.053942   16.976112    ( 0.0000,  0.0000,  0.0000)
  31 Pt     4.205858    4.045713   16.976844    ( 0.0000,  0.0000,  0.0000)
  32 Pd     7.080946    4.095556   16.930470    ( 0.0000,  0.0000,  0.0000)
  33 Pd     2.837894    6.583695   16.903902    ( 0.0000,  0.0000,  0.0000)
  34 Ag     5.672376    6.523144   16.972285    ( 0.0000,  0.0000,  0.0000)
  35 Pt     8.527461    6.536736   16.952110    ( 0.0000,  0.0000,  0.0000)
  36 Pt    -0.020677    0.053924   19.251661    ( 0.0000,  0.0000,  0.0000)
  37 Pt     2.856986    0.043162   19.264931    ( 0.0000,  0.0000,  0.0000)
  38 Pt     5.662182   -0.010914   19.243519    ( 0.0000,  0.0000,  0.0000)
  39 Pt     1.396591    2.417115   19.170891    ( 0.0000,  0.0000,  0.0000)
  40 Pd     4.248334    2.431107   19.272380    ( 0.0000,  0.0000,  0.0000)
  41 Pd     7.119047    2.426679   19.255941    ( 0.0000,  0.0000,  0.0000)
  42 Pt     2.795945    4.958839   19.158816    ( 0.0000,  0.0000,  0.0000)
  43 Ag     5.679381    4.925505   19.424124    ( 0.0000,  0.0000,  0.0000)
  44 Pt     8.558872    4.929435   19.190853    ( 0.0000,  0.0000,  0.0000)
  45 H      7.092725    0.818725   20.697312    ( 0.0000,  0.0000,  0.0000)

Unit cell:
           periodic     x           y           z      points  spacing
  1. axis:    yes    8.517266    0.000000    0.000000    40     0.1844
  2. axis:    yes    4.258633    7.376169    0.000000    40     0.1844
  3. axis:    no     0.000000    0.000000   29.270571   140     0.2091

  Lengths:   8.517266   8.517266  29.270571
  Angles:   90.000000  90.000000  60.000000

Effective grid spacing dv^(1/3) = 0.2017

     iter     time        total  log10-change:
                         energy  eigst   dens
iter:   1 12:52:43  -201.951582  -4.12
iter:   2 12:53:42  -261.491875  -2.62  -2.06
iter:   3 12:54:41  -203.595582  -2.97  -1.38
iter:   4 12:55:40  -200.259470  -3.94  -2.00
iter:   5 12:56:39  -199.947089  -4.86  -2.46
iter:   6 12:57:38  -199.856109  -5.13  -2.74
iter:   7 12:58:38  -199.862772c -5.65  -3.29
iter:   8 12:59:37  -199.841756c -5.56  -3.14
iter:   9 13:00:35  -199.844828c -6.16  -3.60
iter:  10 13:01:34  -199.841870c -6.42  -3.52
iter:  11 13:02:32  -199.841136c -6.60  -3.80
iter:  12 13:03:31  -199.840831c -7.04  -3.79
iter:  13 13:04:29  -199.841199c -7.22  -4.01c
iter:  14 13:05:27  -199.840140c -7.39  -3.96
iter:  15 13:06:26  -199.840353c -7.24  -4.01c
iter:  16 13:07:24  -199.840239c -7.80c -4.19c

Converged after 16 iterations.

Dipole moment: (28.244093, 10.441840, -0.035972) |e|*Ang

Energy contributions relative to reference atoms: (reference = -14172748.147892)

Kinetic:       -330.219759
Potential:     +182.615871
External:        +0.000000
XC:             -40.055687
Entropy (-ST):   -2.332223
Local:          -11.014553
--------------------------
Free energy:   -201.006351
Extrapolated:  -199.840239

Showing only first 2 kpts
 Kpt  Band  Eigenvalues  Occupancy
  0   361      0.64266    1.02119
  0   362      0.66430    0.91324
  0   363      0.69252    0.77580
  0   364      0.71576    0.66870

  1   361      0.51565    1.57585
  1   362      0.55026    1.44880
  1   363      0.57858    1.32890
  1   364      0.62171    1.12528


Fermi level: 0.64690

No gap

Forces in eV/Ang:
  0 Pd    0.01180   -0.01069   -0.26027
  1 Pt    0.31022   -0.51872    0.37615
  2 Pt   -0.34877   -0.14458    0.01437
  3 Pd   -0.40745    0.17981   -0.08700
  4 Pd    0.21473   -0.22615   -0.25023
  5 Pt    0.22760    0.31943   -0.19432
  6 Pd   -0.21845    0.22787   -0.09999
  7 Pt    0.56168    0.16771    0.07193
  8 Ru   -0.49257    0.05788    1.34469
  9 Pd   -0.23693    0.16929    0.18269
 10 Pt    0.28991    0.02393   -0.22693
 11 Pd    0.04995    0.04738   -0.07716
 12 Pd    0.07854    0.10380   -0.00356
 13 Pt   -0.19053   -0.17114    0.16377
 14 Ag    0.05252   -0.13277    0.06865
 15 Ag   -0.01137   -0.07000   -0.10830
 16 Ag   -0.06854   -0.05995    0.06893
 17 Pt    0.03743    0.22347   -0.57972
 18 Pt    0.02667    0.00782    0.01664
 19 Pt    0.01710    0.00102   -0.01123
 20 Ru   -0.00712   -0.02540   -0.08187
 21 Pt    0.03709   -0.01169   -0.00774
 22 Pd    0.05909   -0.00058    0.00217
 23 Pt   -0.02988   -0.00315   -0.01071
 24 Ag    0.03779   -0.01626   -0.00866
 25 Pt   -0.03360   -0.02068   -0.04643
 26 Ag   -0.00959    0.01101   -0.04396
 27 Pt    0.04336    0.05719   -0.09236
 28 Pd    0.01868   -0.00411   -0.03997
 29 Pd   -0.00087   -0.01170   -0.05472
 30 Ir    0.02873   -0.00388   -0.04647
 31 Pt    0.00305   -0.04062   -0.01540
 32 Pd    0.01451   -0.07710    0.05159
 33 Pd   -0.00602    0.00872   -0.05193
 34 Ag   -0.04040   -0.01068    0.10017
 35 Pt    0.14410   -0.00556    0.11456
 36 Pt   -0.17099    0.06756    0.73921
 37 Pt   -0.03267   -0.05141   -0.08223
 38 Pt    0.15459    0.13504    0.62009
 39 Pt    0.10503    0.08979   -0.07793
 40 Pd   -0.08499    0.05732   -0.03028
 41 Pd   -0.06168    0.00046    0.42790
 42 Pt   -0.04850   -0.06673   -0.03362
 43 Ag   -0.00532    0.01319    0.06202
 44 Pt    0.00316   -0.01091   -0.05259
 45 H    -0.02058   -0.27373   -1.77242

System changes: positions 

Initializing position-dependent things.

Density initialized from wave functions
                                             
                                             
                                             
                                             
                                             
                                             
                        Ag                   
                 Pt            Pt            
            Pt     Pd    HPd    Pt           
                                             
       Pt    IPt    PPt    Pd                
                                             
        Pt     Pd    APd    Pt     Ag        
                Pt     Pd     Pt             
                                             
           Pt    APt    ARu    Pt            
                                             
            Pd    PPt    PAg    Ru           
       Pd    PPt    PPd    Pt                
                                             
        Pd     Pt     Pt                     
                                             
                                             
                                             
                                             
                                             

Positions:
   0 Pd     0.000000    1.639149   10.000000    ( 0.0000,  0.0000,  0.0000)
   1 Pt     2.839089    1.639149   10.000000    ( 0.0000,  0.0000,  0.0000)
   2 Pt     5.678177    1.639149   10.000000    ( 0.0000,  0.0000,  0.0000)
   3 Pd     1.419544    4.097872   10.000000    ( 0.0000,  0.0000,  0.0000)
   4 Pd     4.258633    4.097872   10.000000    ( 0.0000,  0.0000,  0.0000)
   5 Pt     7.097722    4.097872   10.000000    ( 0.0000,  0.0000,  0.0000)
   6 Pd     2.839089    6.556595   10.000000    ( 0.0000,  0.0000,  0.0000)
   7 Pt     5.678177    6.556595   10.000000    ( 0.0000,  0.0000,  0.0000)
   8 Ru     8.517266    6.556595   10.000000    ( 0.0000,  0.0000,  0.0000)
   9 Pd     0.000000    0.000000   12.317643    ( 0.0000,  0.0000,  0.0000)
  10 Pt     2.839089    0.000000   12.317643    ( 0.0000,  0.0000,  0.0000)
  11 Pd     5.678177    0.000000   12.317643    ( 0.0000,  0.0000,  0.0000)
  12 Pd     1.419544    2.458723   12.317643    ( 0.0000,  0.0000,  0.0000)
  13 Pt     4.258633    2.458723   12.317643    ( 0.0000,  0.0000,  0.0000)
  14 Ag     7.097722    2.458723   12.317643    ( 0.0000,  0.0000,  0.0000)
  15 Ag     2.839089    4.917446   12.317643    ( 0.0000,  0.0000,  0.0000)
  16 Ag     5.678177    4.917446   12.317643    ( 0.0000,  0.0000,  0.0000)
  17 Pt     8.517266    4.917446   12.317643    ( 0.0000,  0.0000,  0.0000)
  18 Pt     1.385877    0.803209   14.576599    ( 0.0000,  0.0000,  0.0000)
  19 Pt     4.322554    0.816546   14.611246    ( 0.0000,  0.0000,  0.0000)
  20 Ru     7.143408    0.915027   14.691725    ( 0.0000,  0.0000,  0.0000)
  21 Pt     2.835911    3.222926   14.673177    ( 0.0000,  0.0000,  0.0000)
  22 Pd     5.677163    3.253316   14.666529    ( 0.0000,  0.0000,  0.0000)
  23 Pt     8.528009    3.281678   14.646959    ( 0.0000,  0.0000,  0.0000)
  24 Ag     4.279086    5.720961   14.644891    ( 0.0000,  0.0000,  0.0000)
  25 Pt     7.159658    5.769040   14.615036    ( 0.0000,  0.0000,  0.0000)
  26 Ag     9.985765    5.740251   14.637762    ( 0.0000,  0.0000,  0.0000)
  27 Pt    -0.004120    1.657634   16.847019    ( 0.0000,  0.0000,  0.0000)
  28 Pd     2.848597    1.596701   16.902797    ( 0.0000,  0.0000,  0.0000)
  29 Pd     5.675011    1.628376   16.919299    ( 0.0000,  0.0000,  0.0000)
  30 Ir     1.438113    4.053432   16.970963    ( 0.0000,  0.0000,  0.0000)
  31 Pt     4.206070    4.041166   16.975134    ( 0.0000,  0.0000,  0.0000)
  32 Pd     7.082606    4.086874   16.936238    ( 0.0000,  0.0000,  0.0000)
  33 Pd     2.837180    6.584439   16.897599    ( 0.0000,  0.0000,  0.0000)
  34 Ag     5.667897    6.521887   16.983380    ( 0.0000,  0.0000,  0.0000)
  35 Pt     8.543691    6.536021   16.964924    ( 0.0000,  0.0000,  0.0000)
  36 Pt    -0.040037    0.061416   19.334670    ( 0.0000,  0.0000,  0.0000)
  37 Pt     2.853258    0.037260   19.255547    ( 0.0000,  0.0000,  0.0000)
  38 Pt     5.679678    0.004199   19.313087    ( 0.0000,  0.0000,  0.0000)
  39 Pt     1.408565    2.427350   19.161951    ( 0.0000,  0.0000,  0.0000)
  40 Pd     4.238658    2.437647   19.268868    ( 0.0000,  0.0000,  0.0000)
  41 Pd     7.112118    2.426457   19.304220    ( 0.0000,  0.0000,  0.0000)
  42 Pt     2.790476    4.951267   19.154817    ( 0.0000,  0.0000,  0.0000)
  43 Ag     5.678839    4.927059   19.431030    ( 0.0000,  0.0000,  0.0000)
  44 Pt     8.559196    4.928220   19.184745    ( 0.0000,  0.0000,  0.0000)
  45 H      7.090426    0.788417   20.499636    ( 0.0000,  0.0000,  0.0000)

Unit cell:
           periodic     x           y           z      points  spacing
  1. axis:    yes    8.517266    0.000000    0.000000    40     0.1844
  2. axis:    yes    4.258633    7.376169    0.000000    40     0.1844
  3. axis:    no     0.000000    0.000000   29.270571   140     0.2091

  Lengths:   8.517266   8.517266  29.270571
  Angles:   90.000000  90.000000  60.000000

Effective grid spacing dv^(1/3) = 0.2017

     iter     time        total  log10-change:
                         energy  eigst   dens
iter:   1 13:08:42  -202.599397  -2.82
iter:   2 13:09:40  -209.421038  -2.82  -2.09
iter:   3 13:10:38  -205.447990  -3.27  -1.83
iter:   4 13:11:36  -200.955668  -3.78  -1.91
iter:   5 13:12:34  -200.410603  -4.57  -2.35
iter:   6 13:13:32  -200.403025  -4.66  -2.72
iter:   7 13:14:31  -200.587766c -4.60  -2.63
iter:   8 13:15:30  -200.263576c -4.61  -2.46
iter:   9 13:16:29  -200.258397c -5.19  -3.12
iter:  10 13:17:28  -200.252990c -5.70  -3.04
iter:  11 13:18:27  -200.251002c -6.06  -3.23
iter:  12 13:19:27  -200.247653c -5.95  -3.30
iter:  13 13:20:26  -200.250220c -5.72  -3.40
iter:  14 13:21:27  -200.252157c -6.29  -3.34
iter:  15 13:22:26  -200.245759c -6.47  -3.37
iter:  16 13:23:26  -200.246142c -7.02  -3.69
iter:  17 13:24:25  -200.247270c -6.64  -3.73
iter:  18 13:25:24  -200.245323c -6.80  -3.60
iter:  19 13:26:23  -200.245468c -7.16  -3.94
iter:  20 13:27:22  -200.245786c -7.37  -4.24c
iter:  21 13:28:22  -200.245435c -7.84c -4.33c

Converged after 21 iterations.

Dipole moment: (28.800416, 9.675069, -0.027082) |e|*Ang

Energy contributions relative to reference atoms: (reference = -14172748.147892)

Kinetic:       -331.149001
Potential:     +183.485944
External:        +0.000000
XC:             -40.402742
Entropy (-ST):   -2.327966
Local:          -11.015653
--------------------------
Free energy:   -201.409418
Extrapolated:  -200.245435

Showing only first 2 kpts
 Kpt  Band  Eigenvalues  Occupancy
  0   361      0.64786    1.01737
  0   362      0.67091    0.90243
  0   363      0.69954    0.76354
  0   364      0.71982    0.67035

  1   361      0.52326    1.56514
  1   362      0.55575    1.44458
  1   363      0.58864    1.30360
  1   364      0.62596    1.12618


Fermi level: 0.65133

No gap

Forces in eV/Ang:
  0 Pd    0.01207   -0.01289   -0.25316
  1 Pt    0.30650   -0.52025    0.38974
  2 Pt   -0.34731   -0.14181    0.02129
  3 Pd   -0.41017    0.17888   -0.07509
  4 Pd    0.21839   -0.22499   -0.24026
  5 Pt    0.22464    0.31879   -0.18810
  6 Pd   -0.21584    0.22901   -0.09495
  7 Pt    0.55224    0.16728    0.07853
  8 Ru   -0.48914    0.05510    1.35067
  9 Pd   -0.23244    0.16842    0.18766
 10 Pt    0.28811    0.03153   -0.22754
 11 Pd    0.05444    0.05067   -0.08761
 12 Pd    0.08184    0.10369   -0.00035
 13 Pt   -0.18608   -0.16793    0.15839
 14 Ag    0.04996   -0.12808    0.04321
 15 Ag   -0.00437   -0.07214   -0.11116
 16 Ag   -0.07529   -0.06392    0.05606
 17 Pt    0.04068    0.21283   -0.58956
 18 Pt    0.01814   -0.03294   -0.00798
 19 Pt    0.01038   -0.02473    0.00355
 20 Ru    0.01452   -0.02982   -0.03290
 21 Pt    0.01872    0.01129   -0.03103
 22 Pd    0.02855    0.00873   -0.01546
 23 Pt    0.00464    0.03630   -0.06166
 24 Ag    0.02165   -0.00430    0.01153
 25 Pt    0.01103    0.00761    0.04193
 26 Ag   -0.01003   -0.00782   -0.02243
 27 Pt   -0.02194   -0.06012    0.12026
 28 Pd    0.02238   -0.06689   -0.03008
 29 Pd    0.05108   -0.05852    0.11327
 30 Ir    0.00150    0.01398   -0.06496
 31 Pt    0.03143    0.00499   -0.02190
 32 Pd   -0.00118    0.01441    0.04410
 33 Pd    0.03603    0.08368    0.13669
 34 Ag   -0.03958    0.01134    0.11662
 35 Pt    0.00305   -0.00294    0.04717
 36 Pt    0.10907   -0.01980    0.20958
 37 Pt   -0.00228    0.00316   -0.05671
 38 Pt   -0.04572   -0.00256    0.20460
 39 Pt   -0.02981   -0.02774   -0.04369
 40 Pd   -0.02291   -0.00480   -0.00935
 41 Pd   -0.01061    0.22206    0.04342
 42 Pt   -0.01251    0.03507    0.01153
 43 Ag   -0.03351    0.02772    0.03047
 44 Pt    0.01741    0.02735   -0.02147
 45 H    -0.03700   -0.33892   -1.11453

System changes: positions 

Initializing position-dependent things.

Density initialized from wave functions
                                             
                                             
                                             
                                             
                                             
                                             
                 Pt     Ag     Pt            
                                             
            Pt     Pd    HPd    Pt           
       Pt            Pt                      
             IPt    Pt     Pd                
        Pt     Pd     Pd                     
                     Ag     Pt     Ag        
                Pt     Pd     Pt             
                                             
           Pt    APt    ARu    Pt            
                                             
            Pd     Pt    PAg    Ru           
       Pd    PPt    PPd    Pt                
                                             
        Pd     Pt     Pt                     
                                             
                                             
                                             
                                             
                                             

Positions:
   0 Pd     0.000000    1.639149   10.000000    ( 0.0000,  0.0000,  0.0000)
   1 Pt     2.839089    1.639149   10.000000    ( 0.0000,  0.0000,  0.0000)
   2 Pt     5.678177    1.639149   10.000000    ( 0.0000,  0.0000,  0.0000)
   3 Pd     1.419544    4.097872   10.000000    ( 0.0000,  0.0000,  0.0000)
   4 Pd     4.258633    4.097872   10.000000    ( 0.0000,  0.0000,  0.0000)
   5 Pt     7.097722    4.097872   10.000000    ( 0.0000,  0.0000,  0.0000)
   6 Pd     2.839089    6.556595   10.000000    ( 0.0000,  0.0000,  0.0000)
   7 Pt     5.678177    6.556595   10.000000    ( 0.0000,  0.0000,  0.0000)
   8 Ru     8.517266    6.556595   10.000000    ( 0.0000,  0.0000,  0.0000)
   9 Pd     0.000000    0.000000   12.317643    ( 0.0000,  0.0000,  0.0000)
  10 Pt     2.839089    0.000000   12.317643    ( 0.0000,  0.0000,  0.0000)
  11 Pd     5.678177    0.000000   12.317643    ( 0.0000,  0.0000,  0.0000)
  12 Pd     1.419544    2.458723   12.317643    ( 0.0000,  0.0000,  0.0000)
  13 Pt     4.258633    2.458723   12.317643    ( 0.0000,  0.0000,  0.0000)
  14 Ag     7.097722    2.458723   12.317643    ( 0.0000,  0.0000,  0.0000)
  15 Ag     2.839089    4.917446   12.317643    ( 0.0000,  0.0000,  0.0000)
  16 Ag     5.678177    4.917446   12.317643    ( 0.0000,  0.0000,  0.0000)
  17 Pt     8.517266    4.917446   12.317643    ( 0.0000,  0.0000,  0.0000)
  18 Pt     1.388815    0.803240   14.577998    ( 0.0000,  0.0000,  0.0000)
  19 Pt     4.324461    0.816058   14.610013    ( 0.0000,  0.0000,  0.0000)
  20 Ru     7.143138    0.911914   14.683002    ( 0.0000,  0.0000,  0.0000)
  21 Pt     2.839898    3.222007   14.671599    ( 0.0000,  0.0000,  0.0000)
  22 Pd     5.683648    3.253447   14.666225    ( 0.0000,  0.0000,  0.0000)
  23 Pt     8.525240    3.282110   14.644481    ( 0.0000,  0.0000,  0.0000)
  24 Ag     4.283233    5.719321   14.644310    ( 0.0000,  0.0000,  0.0000)
  25 Pt     7.156656    5.767222   14.611317    ( 0.0000,  0.0000,  0.0000)
  26 Ag     9.984642    5.741144   14.632908    ( 0.0000,  0.0000,  0.0000)
  27 Pt    -0.000274    1.661955   16.840428    ( 0.0000,  0.0000,  0.0000)
  28 Pd     2.850805    1.594820   16.898155    ( 0.0000,  0.0000,  0.0000)
  29 Pd     5.676137    1.625942   16.916273    ( 0.0000,  0.0000,  0.0000)
  30 Ir     1.440986    4.053289   16.964930    ( 0.0000,  0.0000,  0.0000)
  31 Pt     4.206945    4.037413   16.973120    ( 0.0000,  0.0000,  0.0000)
  32 Pd     7.084025    4.079787   16.942301    ( 0.0000,  0.0000,  0.0000)
  33 Pd     2.837468    6.587028   16.895306    ( 0.0000,  0.0000,  0.0000)
  34 Ag     5.663089    6.521049   16.995767    ( 0.0000,  0.0000,  0.0000)
  35 Pt     8.557720    6.535247   16.977079    ( 0.0000,  0.0000,  0.0000)
  36 Pt    -0.053941    0.067232   19.411220    ( 0.0000,  0.0000,  0.0000)
  37 Pt     2.849951    0.032165   19.245895    ( 0.0000,  0.0000,  0.0000)
  38 Pt     5.693607    0.017031   19.377935    ( 0.0000,  0.0000,  0.0000)
  39 Pt     1.418217    2.435541   19.152980    ( 0.0000,  0.0000,  0.0000)
  40 Pd     4.229651    2.443223   19.265514    ( 0.0000,  0.0000,  0.0000)
  41 Pd     7.105905    2.431774   19.346920    ( 0.0000,  0.0000,  0.0000)
  42 Pt     2.785444    4.945616   19.151483    ( 0.0000,  0.0000,  0.0000)
  43 Ag     5.677557    4.929177   19.437682    ( 0.0000,  0.0000,  0.0000)
  44 Pt     8.559897    4.927898   19.178766    ( 0.0000,  0.0000,  0.0000)
  45 H      7.087507    0.754058   20.302631    ( 0.0000,  0.0000,  0.0000)

Unit cell:
           periodic     x           y           z      points  spacing
  1. axis:    yes    8.517266    0.000000    0.000000    40     0.1844
  2. axis:    yes    4.258633    7.376169    0.000000    40     0.1844
  3. axis:    no     0.000000    0.000000   29.270571   140     0.2091

  Lengths:   8.517266   8.517266  29.270571
  Angles:   90.000000  90.000000  60.000000

Effective grid spacing dv^(1/3) = 0.2017

     iter     time        total  log10-change:
                         energy  eigst   dens
iter:   1 13:29:41  -201.776117  -2.91
iter:   2 13:30:40  -206.988424  -3.05  -2.21
iter:   3 13:31:39  -204.117769  -3.44  -1.88
iter:   4 13:32:38  -200.626787  -3.96  -1.97
iter:   5 13:33:37  -200.437262  -4.79  -2.56
iter:   6 13:34:37  -200.449622c -4.81  -2.86
iter:   7 13:35:36  -200.616040c -4.69  -2.70
iter:   8 13:36:35  -200.354827c -4.85  -2.50
iter:   9 13:37:34  -200.340505c -5.20  -3.06
iter:  10 13:38:33  -200.339491c -5.93  -3.30
iter:  11 13:39:32  -200.342707c -5.74  -3.27
iter:  12 13:40:31  -200.336273c -6.01  -3.39
iter:  13 13:41:31  -200.356374c -5.97  -3.49
iter:  14 13:42:30  -200.337560c -6.25  -3.04
iter:  15 13:43:29  -200.337097c -6.72  -3.69
iter:  16 13:44:28  -200.337216c -6.47  -3.56
iter:  17 13:45:27  -200.336761c -6.80  -3.60
iter:  18 13:46:26  -200.335509c -7.02  -3.81
iter:  19 13:47:25  -200.335847c -7.15  -4.05c
iter:  20 13:48:24  -200.336162c -7.55c -4.22c

Converged after 20 iterations.

Dipole moment: (29.221936, 9.057908, -0.031582) |e|*Ang

Energy contributions relative to reference atoms: (reference = -14172748.147892)

Kinetic:       -327.683256
Potential:     +180.655404
External:        +0.000000
XC:             -41.125448
Entropy (-ST):   -2.323878
Local:          -11.020923
--------------------------
Free energy:   -201.498101
Extrapolated:  -200.336162

Showing only first 2 kpts
 Kpt  Band  Eigenvalues  Occupancy
  0   361      0.64590    1.01696
  0   362      0.67028    0.89545
  0   363      0.69985    0.75250
  0   364      0.71736    0.67222

  1   361      0.52366    1.55679
  1   362      0.55448    1.44148
  1   363      0.59298    1.27438
  1   364      0.61818    1.15435


Fermi level: 0.64930

No gap

Forces in eV/Ang:
  0 Pd    0.01177   -0.01349   -0.25017
  1 Pt    0.30566   -0.52604    0.39578
  2 Pt   -0.34744   -0.14399    0.02409
  3 Pd   -0.41393    0.18173   -0.07035
  4 Pd    0.22123   -0.22326   -0.23460
  5 Pt    0.22413    0.32095   -0.18641
  6 Pd   -0.21802    0.22975   -0.09479
  7 Pt    0.54909    0.16666    0.08146
  8 Ru   -0.48719    0.05377    1.35316
  9 Pd   -0.22753    0.17053    0.19457
 10 Pt    0.28951    0.03541   -0.22435
 11 Pd    0.05602    0.05359   -0.09605
 12 Pd    0.08324    0.10075    0.00619
 13 Pt   -0.18201   -0.16931    0.15771
 14 Ag    0.04901   -0.12462    0.02354
 15 Ag    0.00089   -0.07285   -0.11391
 16 Ag   -0.07691   -0.06687    0.04723
 17 Pt    0.03902    0.20775   -0.59528
 18 Pt    0.00325   -0.05122   -0.02168
 19 Pt    0.00784   -0.03562    0.02496
 20 Ru    0.03292   -0.02654    0.02524
 21 Pt   -0.00025    0.02203   -0.03682
 22 Pd   -0.00074    0.00246   -0.01318
 23 Pt    0.03208    0.04762   -0.07284
 24 Ag   -0.00044    0.00979    0.03463
 25 Pt    0.05390    0.02866    0.12127
 26 Ag   -0.00124   -0.01593    0.01511
 27 Pt   -0.07266   -0.11447    0.22296
 28 Pd    0.02857   -0.09772   -0.03433
 29 Pd    0.08241   -0.07272    0.21790
 30 Ir   -0.02011    0.02888   -0.09099
 31 Pt    0.04534    0.02825   -0.03485
 32 Pd   -0.01607    0.07431    0.01427
 33 Pd    0.04909    0.11922    0.24496
 34 Ag   -0.02651    0.01296    0.06931
 35 Pt   -0.10720   -0.00196   -0.05901
 36 Pt    0.76383   -0.31471   -0.49474
 37 Pt    0.04708    0.06131    0.05573
 38 Pt   -0.56582   -0.28991   -0.37276
 39 Pt   -0.13178   -0.11695    0.02681
 40 Pd    0.03352   -0.05311    0.02715
 41 Pd    0.03329    0.52880   -0.33414
 42 Pt    0.02599    0.10831    0.08081
 43 Ag   -0.05435    0.03023    0.04410
 44 Pt    0.02334    0.04536    0.05777
 45 H    -0.14493   -0.13413    0.03537

System changes: positions 

Initializing position-dependent things.

Density initialized from wave functions
                                             
                                             
                                             
                                             
                                             
                                             
                 Pt     Ag     Pt            
                                             
            Pt     Pd    HPd    Pt           
       Pt            Pt                      
             IPt    Pt     Pd                
        Pt     Pd     Pd                     
                     Ag     Pt     Ag        
                Pt     Pd     Pt             
                                             
           Pt    APt    ARu    Pt            
                                             
            Pd    PPt    PAg    Ru           
       Pd    PPt    PPd    Pt                
                                             
        Pd     Pt     Pt                     
                                             
                                             
                                             
                                             
                                             

Positions:
   0 Pd     0.000000    1.639149   10.000000    ( 0.0000,  0.0000,  0.0000)
   1 Pt     2.839089    1.639149   10.000000    ( 0.0000,  0.0000,  0.0000)
   2 Pt     5.678177    1.639149   10.000000    ( 0.0000,  0.0000,  0.0000)
   3 Pd     1.419544    4.097872   10.000000    ( 0.0000,  0.0000,  0.0000)
   4 Pd     4.258633    4.097872   10.000000    ( 0.0000,  0.0000,  0.0000)
   5 Pt     7.097722    4.097872   10.000000    ( 0.0000,  0.0000,  0.0000)
   6 Pd     2.839089    6.556595   10.000000    ( 0.0000,  0.0000,  0.0000)
   7 Pt     5.678177    6.556595   10.000000    ( 0.0000,  0.0000,  0.0000)
   8 Ru     8.517266    6.556595   10.000000    ( 0.0000,  0.0000,  0.0000)
   9 Pd     0.000000    0.000000   12.317643    ( 0.0000,  0.0000,  0.0000)
  10 Pt     2.839089    0.000000   12.317643    ( 0.0000,  0.0000,  0.0000)
  11 Pd     5.678177    0.000000   12.317643    ( 0.0000,  0.0000,  0.0000)
  12 Pd     1.419544    2.458723   12.317643    ( 0.0000,  0.0000,  0.0000)
  13 Pt     4.258633    2.458723   12.317643    ( 0.0000,  0.0000,  0.0000)
  14 Ag     7.097722    2.458723   12.317643    ( 0.0000,  0.0000,  0.0000)
  15 Ag     2.839089    4.917446   12.317643    ( 0.0000,  0.0000,  0.0000)
  16 Ag     5.678177    4.917446   12.317643    ( 0.0000,  0.0000,  0.0000)
  17 Pt     8.517266    4.917446   12.317643    ( 0.0000,  0.0000,  0.0000)
  18 Pt     1.388149    0.802638   14.577402    ( 0.0000,  0.0000,  0.0000)
  19 Pt     4.324103    0.815745   14.610494    ( 0.0000,  0.0000,  0.0000)
  20 Ru     7.143609    0.912345   14.685306    ( 0.0000,  0.0000,  0.0000)
  21 Pt     2.838950    3.222470   14.671489    ( 0.0000,  0.0000,  0.0000)
  22 Pd     5.682158    3.253458   14.666066    ( 0.0000,  0.0000,  0.0000)
  23 Pt     8.526266    3.282546   14.644181    ( 0.0000,  0.0000,  0.0000)
  24 Ag     4.282259    5.719826   14.644831    ( 0.0000,  0.0000,  0.0000)
  25 Pt     7.157970    5.767984   14.613504    ( 0.0000,  0.0000,  0.0000)
  26 Ag     9.984893    5.740744   14.634167    ( 0.0000,  0.0000,  0.0000)
  27 Pt    -0.001959    1.659632   16.844477    ( 0.0000,  0.0000,  0.0000)
  28 Pd     2.850566    1.594137   16.898841    ( 0.0000,  0.0000,  0.0000)
  29 Pd     5.676843    1.625666   16.919404    ( 0.0000,  0.0000,  0.0000)
  30 Ir     1.440100    4.053621   16.965308    ( 0.0000,  0.0000,  0.0000)
  31 Pt     4.207219    4.038662   16.973198    ( 0.0000,  0.0000,  0.0000)
  32 Pd     7.083525    4.082343   16.941088    ( 0.0000,  0.0000,  0.0000)
  33 Pd     2.838006    6.587753   16.898564    ( 0.0000,  0.0000,  0.0000)
  34 Ag     5.663906    6.521393   16.993728    ( 0.0000,  0.0000,  0.0000)
  35 Pt     8.553186    6.535347   16.973603    ( 0.0000,  0.0000,  0.0000)
  36 Pt    -0.042439    0.062460   19.387957    ( 0.0000,  0.0000,  0.0000)
  37 Pt     2.851202    0.033979   19.248542    ( 0.0000,  0.0000,  0.0000)
  38 Pt     5.684330    0.010858   19.358758    ( 0.0000,  0.0000,  0.0000)
  39 Pt     1.414486    2.432313   19.155189    ( 0.0000,  0.0000,  0.0000)
  40 Pd     4.232056    2.441349   19.266513    ( 0.0000,  0.0000,  0.0000)
  41 Pd     7.107747    2.436470   19.333227    ( 0.0000,  0.0000,  0.0000)
  42 Pt     2.786896    4.948201   19.153025    ( 0.0000,  0.0000,  0.0000)
  43 Ag     5.677235    4.929111   19.436549    ( 0.0000,  0.0000,  0.0000)
  44 Pt     8.560005    4.928549   19.180621    ( 0.0000,  0.0000,  0.0000)
  45 H      7.086633    0.760242   20.348676    ( 0.0000,  0.0000,  0.0000)

Unit cell:
           periodic     x           y           z      points  spacing
  1. axis:    yes    8.517266    0.000000    0.000000    40     0.1844
  2. axis:    yes    4.258633    7.376169    0.000000    40     0.1844
  3. axis:    no     0.000000    0.000000   29.270571   140     0.2091

  Lengths:   8.517266   8.517266  29.270571
  Angles:   90.000000  90.000000  60.000000

Effective grid spacing dv^(1/3) = 0.2017

     iter     time        total  log10-change:
                         energy  eigst   dens
iter:   1 13:49:43  -201.156239  -3.78
iter:   2 13:50:42  -224.245311  -3.11  -2.28
iter:   3 13:51:41  -201.082713  -3.36  -1.59
iter:   4 13:52:40  -200.430870  -4.53  -2.31
iter:   5 13:53:39  -200.381504  -5.19  -2.83
iter:   6 13:54:38  -200.376236c -5.62  -3.20
iter:   7 13:55:37  -200.387022c -5.67  -3.22
iter:   8 13:56:36  -200.369785c -5.87  -3.07
iter:   9 13:57:35  -200.367315c -6.01  -3.60
iter:  10 13:58:34  -200.368312c -6.47  -3.52
iter:  11 13:59:33  -200.368583c -6.74  -3.74
iter:  12 14:00:31  -200.366736c -6.96  -3.56
iter:  13 14:01:30  -200.367055c -7.24  -3.91
iter:  14 14:02:29  -200.367370c -7.20  -3.88
iter:  15 14:03:29  -200.366688c -7.62c -3.97
iter:  16 14:04:28  -200.367615c -7.61c -4.20c

Converged after 16 iterations.

Dipole moment: (28.893931, 9.451789, -0.025073) |e|*Ang

Energy contributions relative to reference atoms: (reference = -14172748.147892)

Kinetic:       -329.099864
Potential:     +181.807933
External:        +0.000000
XC:             -40.882839
Entropy (-ST):   -2.323834
Local:          -11.030929
--------------------------
Free energy:   -201.529532
Extrapolated:  -200.367615

Showing only first 2 kpts
 Kpt  Band  Eigenvalues  Occupancy
  0   361      0.64932    1.01447
  0   362      0.67360    0.89345
  0   363      0.70265    0.75302
  0   364      0.72100    0.66898

  1   361      0.52331    1.56795
  1   362      0.55692    1.44338
  1   363      0.59386    1.28373
  1   364      0.62332    1.14346


Fermi level: 0.65221

No gap

Forces in eV/Ang:
  0 Pd    0.01119   -0.01316   -0.25008
  1 Pt    0.30487   -0.52336    0.39492
  2 Pt   -0.34573   -0.14257    0.02436
  3 Pd   -0.41222    0.18089   -0.07076
  4 Pd    0.22019   -0.22257   -0.23535
  5 Pt    0.22324    0.31934   -0.18570
  6 Pd   -0.21701    0.22863   -0.09336
  7 Pt    0.54800    0.16577    0.08243
  8 Ru   -0.48749    0.05300    1.35047
  9 Pd   -0.23136    0.16915    0.19516
 10 Pt    0.29128    0.03115   -0.22346
 11 Pd    0.05653    0.05241   -0.08910
 12 Pd    0.08364    0.10087    0.00235
 13 Pt   -0.18255   -0.17002    0.16063
 14 Ag    0.04830   -0.12784    0.03287
 15 Ag   -0.00062   -0.07102   -0.11234
 16 Ag   -0.07457   -0.06537    0.05311
 17 Pt    0.03729    0.21248   -0.59286
 18 Pt   -0.00057   -0.03575   -0.01053
 19 Pt    0.01989   -0.02171    0.01461
 20 Ru    0.02532   -0.02610    0.00695
 21 Pt    0.00718    0.01247   -0.03188
 22 Pd    0.01291   -0.00415   -0.01183
 23 Pt    0.01616    0.02324   -0.05253
 24 Ag    0.00350    0.00876    0.02651
 25 Pt    0.03095    0.01503    0.06621
 26 Ag    0.00639   -0.00278    0.00569
 27 Pt   -0.04462   -0.06642    0.12954
 28 Pd    0.02265   -0.06404   -0.03743
 29 Pd    0.06077   -0.05070    0.14272
 30 Ir   -0.00303    0.01455   -0.06854
 31 Pt    0.02619    0.01057   -0.02792
 32 Pd   -0.00882    0.04734    0.01299
 33 Pd    0.02956    0.08290    0.16520
 34 Ag   -0.02230    0.00646    0.06357
 35 Pt   -0.06721   -0.00927   -0.03906
 36 Pt    0.32538   -0.12324   -0.22474
 37 Pt    0.02401    0.03491    0.01530
 38 Pt   -0.19065   -0.10723   -0.14418
 39 Pt   -0.06631   -0.05150   -0.02004
 40 Pd   -0.00139   -0.01661   -0.00289
 41 Pd    0.01974    0.27414   -0.18305
 42 Pt    0.01179    0.05649    0.03647
 43 Ag   -0.04183    0.02593    0.03189
 44 Pt    0.01604    0.02845    0.01746
 45 H    -0.09673   -0.23514   -0.31381

System changes: positions 

Initializing position-dependent things.

Density initialized from wave functions
                                             
                                             
                                             
                                             
                                             
                                             
                 Pt     Ag     Pt            
                                             
            Pt    PPd    HPd    Pt           
       Pt            Pt                      
             IPt    Pt     Pd                
        Pt     Pd     Pd                     
                     Ag     Pt     Ag        
                Pt     Pd     Pt             
                                             
           Pt    APt    ARu    Pt            
                                             
            Pd    PPt    PAg    Ru           
       Pd    PPt    PPd    Pt                
                                             
        Pd     Pt     Pt                     
                                             
                                             
                                             
                                             
                                             

Positions:
   0 Pd     0.000000    1.639149   10.000000    ( 0.0000,  0.0000,  0.0000)
   1 Pt     2.839089    1.639149   10.000000    ( 0.0000,  0.0000,  0.0000)
   2 Pt     5.678177    1.639149   10.000000    ( 0.0000,  0.0000,  0.0000)
   3 Pd     1.419544    4.097872   10.000000    ( 0.0000,  0.0000,  0.0000)
   4 Pd     4.258633    4.097872   10.000000    ( 0.0000,  0.0000,  0.0000)
   5 Pt     7.097722    4.097872   10.000000    ( 0.0000,  0.0000,  0.0000)
   6 Pd     2.839089    6.556595   10.000000    ( 0.0000,  0.0000,  0.0000)
   7 Pt     5.678177    6.556595   10.000000    ( 0.0000,  0.0000,  0.0000)
   8 Ru     8.517266    6.556595   10.000000    ( 0.0000,  0.0000,  0.0000)
   9 Pd     0.000000    0.000000   12.317643    ( 0.0000,  0.0000,  0.0000)
  10 Pt     2.839089    0.000000   12.317643    ( 0.0000,  0.0000,  0.0000)
  11 Pd     5.678177    0.000000   12.317643    ( 0.0000,  0.0000,  0.0000)
  12 Pd     1.419544    2.458723   12.317643    ( 0.0000,  0.0000,  0.0000)
  13 Pt     4.258633    2.458723   12.317643    ( 0.0000,  0.0000,  0.0000)
  14 Ag     7.097722    2.458723   12.317643    ( 0.0000,  0.0000,  0.0000)
  15 Ag     2.839089    4.917446   12.317643    ( 0.0000,  0.0000,  0.0000)
  16 Ag     5.678177    4.917446   12.317643    ( 0.0000,  0.0000,  0.0000)
  17 Pt     8.517266    4.917446   12.317643    ( 0.0000,  0.0000,  0.0000)
  18 Pt     1.388220    0.801927   14.577207    ( 0.0000,  0.0000,  0.0000)
  19 Pt     4.324525    0.815266   14.610671    ( 0.0000,  0.0000,  0.0000)
  20 Ru     7.144150    0.911750   14.685186    ( 0.0000,  0.0000,  0.0000)
  21 Pt     2.839188    3.222681   14.670763    ( 0.0000,  0.0000,  0.0000)
  22 Pd     5.682638    3.253385   14.665766    ( 0.0000,  0.0000,  0.0000)
  23 Pt     8.526537    3.283024   14.643033    ( 0.0000,  0.0000,  0.0000)
  24 Ag     4.282449    5.719959   14.645349    ( 0.0000,  0.0000,  0.0000)
  25 Pt     7.158536    5.768255   14.614744    ( 0.0000,  0.0000,  0.0000)
  26 Ag     9.984977    5.740691   14.634115    ( 0.0000,  0.0000,  0.0000)
  27 Pt    -0.002701    1.658461   16.846793    ( 0.0000,  0.0000,  0.0000)
  28 Pd     2.851051    1.592772   16.897919    ( 0.0000,  0.0000,  0.0000)
  29 Pd     5.678129    1.624573   16.922111    ( 0.0000,  0.0000,  0.0000)
  30 Ir     1.440115    4.053901   16.963678    ( 0.0000,  0.0000,  0.0000)
  31 Pt     4.207743    4.038806   16.972552    ( 0.0000,  0.0000,  0.0000)
  32 Pd     7.083400    4.083099   16.941560    ( 0.0000,  0.0000,  0.0000)
  33 Pd     2.838649    6.589457   16.901701    ( 0.0000,  0.0000,  0.0000)
  34 Ag     5.663309    6.521467   16.995363    ( 0.0000,  0.0000,  0.0000)
  35 Pt     8.552267    6.535088   16.973165    ( 0.0000,  0.0000,  0.0000)
  36 Pt    -0.034904    0.059403   19.385336    ( 0.0000,  0.0000,  0.0000)
  37 Pt     2.851599    0.034483   19.248526    ( 0.0000,  0.0000,  0.0000)
  38 Pt     5.679713    0.008460   19.357411    ( 0.0000,  0.0000,  0.0000)
  39 Pt     1.413426    2.431472   19.154480    ( 0.0000,  0.0000,  0.0000)
  40 Pd     4.231713    2.441174   19.266356    ( 0.0000,  0.0000,  0.0000)
  41 Pd     7.107955    2.442900   19.330801    ( 0.0000,  0.0000,  0.0000)
  42 Pt     2.786976    4.949245   19.153622    ( 0.0000,  0.0000,  0.0000)
  43 Ag     5.676347    4.929781   19.437444    ( 0.0000,  0.0000,  0.0000)
  44 Pt     8.560354    4.929174   19.180742    ( 0.0000,  0.0000,  0.0000)
  45 H      7.084407    0.754982   20.337352    ( 0.0000,  0.0000,  0.0000)

Unit cell:
           periodic     x           y           z      points  spacing
  1. axis:    yes    8.517266    0.000000    0.000000    40     0.1844
  2. axis:    yes    4.258633    7.376169    0.000000    40     0.1844
  3. axis:    no     0.000000    0.000000   29.270571   140     0.2091

  Lengths:   8.517266   8.517266  29.270571
  Angles:   90.000000  90.000000  60.000000

Effective grid spacing dv^(1/3) = 0.2017

     iter     time        total  log10-change:
                         energy  eigst   dens
iter:   1 14:05:46  -201.461793  -4.27
iter:   2 14:06:45  -232.359062  -2.88  -2.17
iter:   3 14:07:44  -202.875865  -3.27  -1.52
iter:   4 14:08:43  -200.633678  -4.03  -2.11
iter:   5 14:09:43  -200.468894  -5.14  -2.58
iter:   6 14:10:42  -200.388831c -5.34  -2.80
iter:   7 14:11:41  -200.387426c -5.93  -3.60
iter:   8 14:12:40  -200.384737c -6.28  -3.66
iter:   9 14:13:39  -200.385580c -6.60  -3.85
iter:  10 14:14:39  -200.384891c -6.87  -3.81
iter:  11 14:15:38  -200.385439c -6.99  -3.78
iter:  12 14:16:38  -200.383826c -6.95  -3.64
iter:  13 14:17:38  -200.383959c -7.62c -4.22c

Converged after 13 iterations.

Dipole moment: (28.676794, 9.646285, -0.026421) |e|*Ang

Energy contributions relative to reference atoms: (reference = -14172748.147892)

Kinetic:       -329.155568
Potential:     +181.791291
External:        +0.000000
XC:             -40.843106
Entropy (-ST):   -2.324483
Local:          -11.014335
--------------------------
Free energy:   -201.546201
Extrapolated:  -200.383959

Showing only first 2 kpts
 Kpt  Band  Eigenvalues  Occupancy
  0   361      0.64831    1.01433
  0   362      0.67253    0.89364
  0   363      0.70197    0.75134
  0   364      0.71971    0.67012

  1   361      0.52122    1.57151
  1   362      0.55595    1.44311
  1   363      0.59271    1.28427
  1   364      0.62296    1.14016


Fermi level: 0.65117

No gap

Forces in eV/Ang:
  0 Pd    0.01131   -0.01325   -0.25515
  1 Pt    0.30400   -0.52306    0.39015
  2 Pt   -0.34592   -0.14288    0.02122
  3 Pd   -0.41159    0.17994   -0.07525
  4 Pd    0.22038   -0.22214   -0.23612
  5 Pt    0.22255    0.31990   -0.18901
  6 Pd   -0.21648    0.22829   -0.09671
  7 Pt    0.54826    0.16448    0.07912
  8 Ru   -0.48702    0.05244    1.34725
  9 Pd   -0.23037    0.16620    0.19177
 10 Pt    0.28973    0.02896   -0.22712
 11 Pd    0.05712    0.05281   -0.09459
 12 Pd    0.08354    0.09884   -0.00069
 13 Pt   -0.18006   -0.16778    0.15512
 14 Ag    0.04677   -0.12664    0.02815
 15 Ag    0.00331   -0.06994   -0.11371
 16 Ag   -0.07485   -0.06503    0.05472
 17 Pt    0.03387    0.21321   -0.59517
 18 Pt   -0.00108   -0.02580   -0.00349
 19 Pt    0.01732   -0.01540    0.02491
 20 Ru    0.02501   -0.01633    0.02455
 21 Pt    0.00610    0.01109   -0.01859
 22 Pd    0.00739   -0.00754    0.00299
 23 Pt    0.01363    0.01255   -0.02412
 24 Ag   -0.00053    0.00530    0.02754
 25 Pt    0.02907    0.01321    0.06753
 26 Ag    0.01397   -0.00131    0.01872
 27 Pt   -0.04756   -0.05208    0.12845
 28 Pd    0.02394   -0.04172   -0.02028
 29 Pd    0.04600   -0.03867    0.12807
 30 Ir   -0.00441    0.01687   -0.04793
 31 Pt    0.01178   -0.00297   -0.01780
 32 Pd    0.00123    0.02614    0.00231
 33 Pd    0.01506    0.06649    0.15003
 34 Ag   -0.02495    0.00972    0.04849
 35 Pt   -0.04491   -0.00409   -0.03539
 36 Pt    0.31607   -0.08929   -0.24343
 37 Pt    0.03503    0.05788    0.05107
 38 Pt   -0.22432   -0.11770   -0.17738
 39 Pt   -0.06390   -0.04885    0.00352
 40 Pd    0.00048   -0.02953    0.01227
 41 Pd    0.04028    0.23175   -0.19289
 42 Pt   -0.00145    0.04423    0.04203
 43 Ag   -0.04042    0.01396    0.04663
 44 Pt    0.03517    0.01815    0.04298
 45 H    -0.09410   -0.23352   -0.34893

System changes: positions 

Initializing position-dependent things.

Density initialized from wave functions
                                             
                                             
                                             
                                             
                                             
                                             
                 Pt     Ag     Pt            
                          Pd                 
            Pt    PPd    Hg     Pt           
       Pt    IPt    PPt    Pd                
                                             
        Pt     Pd    APd    Pt     Ag        
                                             
                Pt     Pd     Pt             
           Pt    APt    ARu    Pt            
                                             
            Pd    PPt    PAg    Ru           
       Pd     Pt     Pd                      
             Pd     Pd     Pt                
        Pd     Pt     Pt                     
                                             
                                             
                                             
                                             
                                             

Positions:
   0 Pd     0.000000    1.639149   10.000000    ( 0.0000,  0.0000,  0.0000)
   1 Pt     2.839089    1.639149   10.000000    ( 0.0000,  0.0000,  0.0000)
   2 Pt     5.678177    1.639149   10.000000    ( 0.0000,  0.0000,  0.0000)
   3 Pd     1.419544    4.097872   10.000000    ( 0.0000,  0.0000,  0.0000)
   4 Pd     4.258633    4.097872   10.000000    ( 0.0000,  0.0000,  0.0000)
   5 Pt     7.097722    4.097872   10.000000    ( 0.0000,  0.0000,  0.0000)
   6 Pd     2.839089    6.556595   10.000000    ( 0.0000,  0.0000,  0.0000)
   7 Pt     5.678177    6.556595   10.000000    ( 0.0000,  0.0000,  0.0000)
   8 Ru     8.517266    6.556595   10.000000    ( 0.0000,  0.0000,  0.0000)
   9 Pd     0.000000    0.000000   12.317643    ( 0.0000,  0.0000,  0.0000)
  10 Pt     2.839089    0.000000   12.317643    ( 0.0000,  0.0000,  0.0000)
  11 Pd     5.678177    0.000000   12.317643    ( 0.0000,  0.0000,  0.0000)
  12 Pd     1.419544    2.458723   12.317643    ( 0.0000,  0.0000,  0.0000)
  13 Pt     4.258633    2.458723   12.317643    ( 0.0000,  0.0000,  0.0000)
  14 Ag     7.097722    2.458723   12.317643    ( 0.0000,  0.0000,  0.0000)
  15 Ag     2.839089    4.917446   12.317643    ( 0.0000,  0.0000,  0.0000)
  16 Ag     5.678177    4.917446   12.317643    ( 0.0000,  0.0000,  0.0000)
  17 Pt     8.517266    4.917446   12.317643    ( 0.0000,  0.0000,  0.0000)
  18 Pt     1.389303    0.791909   14.574852    ( 0.0000,  0.0000,  0.0000)
  19 Pt     4.330799    0.808477   14.614271    ( 0.0000,  0.0000,  0.0000)
  20 Ru     7.152412    0.903434   14.684752    ( 0.0000,  0.0000,  0.0000)
  21 Pt     2.842802    3.225779   14.660770    ( 0.0000,  0.0000,  0.0000)
  22 Pd     5.689612    3.251971   14.662466    ( 0.0000,  0.0000,  0.0000)
  23 Pt     8.530412    3.289426   14.627874    ( 0.0000,  0.0000,  0.0000)
  24 Ag     4.285063    5.721668   14.653365    ( 0.0000,  0.0000,  0.0000)
  25 Pt     7.167001    5.772211   14.633793    ( 0.0000,  0.0000,  0.0000)
  26 Ag     9.986910    5.740017   14.634383    ( 0.0000,  0.0000,  0.0000)
  27 Pt    -0.014268    1.641849   16.882055    ( 0.0000,  0.0000,  0.0000)
  28 Pd     2.858631    1.573783   16.885208    ( 0.0000,  0.0000,  0.0000)
  29 Pd     5.696560    1.608841   16.962251    ( 0.0000,  0.0000,  0.0000)
  30 Ir     1.440288    4.058401   16.940394    ( 0.0000,  0.0000,  0.0000)
  31 Pt     4.214531    4.039764   16.963504    ( 0.0000,  0.0000,  0.0000)
  32 Pd     7.082376    4.092717   16.947958    ( 0.0000,  0.0000,  0.0000)
  33 Pd     2.847225    6.614160   16.948389    ( 0.0000,  0.0000,  0.0000)
  34 Ag     5.653862    6.522867   17.019288    ( 0.0000,  0.0000,  0.0000)
  35 Pt     8.540354    6.531556   16.966961    ( 0.0000,  0.0000,  0.0000)
  36 Pt     0.079652    0.015552   19.344731    ( 0.0000,  0.0000,  0.0000)
  37 Pt     2.858593    0.044114   19.251249    ( 0.0000,  0.0000,  0.0000)
  38 Pt     5.606154   -0.029046   19.334870    ( 0.0000,  0.0000,  0.0000)
  39 Pt     1.397552    2.418942   19.145514    ( 0.0000,  0.0000,  0.0000)
  40 Pd     4.226469    2.437465   19.265209    ( 0.0000,  0.0000,  0.0000)
  41 Pd     7.112828    2.537875   19.293450    ( 0.0000,  0.0000,  0.0000)
  42 Pt     2.786968    4.964075   19.163203    ( 0.0000,  0.0000,  0.0000)
  43 Ag     5.662850    4.939041   19.452560    ( 0.0000,  0.0000,  0.0000)
  44 Pt     8.567398    4.937849   19.184724    ( 0.0000,  0.0000,  0.0000)
  45 H      7.050450    0.674003   20.157660    ( 0.0000,  0.0000,  0.0000)

Unit cell:
           periodic     x           y           z      points  spacing
  1. axis:    yes    8.517266    0.000000    0.000000    40     0.1844
  2. axis:    yes    4.258633    7.376169    0.000000    40     0.1844
  3. axis:    no     0.000000    0.000000   29.270571   140     0.2091

  Lengths:   8.517266   8.517266  29.270571
  Angles:   90.000000  90.000000  60.000000

Effective grid spacing dv^(1/3) = 0.2017

     iter     time        total  log10-change:
                         energy  eigst   dens
iter:   1 14:18:58  -204.425621  -2.38
iter:   2 14:19:57  -265.652681  -2.37  -1.92
iter:   3 14:20:57  -205.495154  -2.77  -1.37
iter:   4 14:21:56  -200.787886  -3.39  -1.95
iter:   5 14:22:55  -200.663495  -4.35  -2.51
iter:   6 14:23:55  -200.631306c -4.53  -2.52
iter:   7 14:24:54  -200.464764c -5.04  -2.47
iter:   8 14:25:53  -200.438640c -5.13  -2.83
iter:   9 14:26:53  -200.437490c -5.13  -2.84
iter:  10 14:27:52  -200.426723c -5.47  -2.88
iter:  11 14:28:51  -200.414926c -5.61  -2.92
iter:  12 14:29:51  -200.408090c -5.72  -3.09
iter:  13 14:30:51  -200.412482c -5.90  -3.27
iter:  14 14:31:50  -200.409123c -5.95  -3.21
iter:  15 14:32:50  -200.411043c -5.90  -3.28
iter:  16 14:33:50  -200.406713c -6.19  -3.40
iter:  17 14:34:49  -200.407883c -6.25  -3.47
iter:  18 14:35:49  -200.407842c -6.57  -3.65
iter:  19 14:36:48  -200.407830c -6.60  -3.56
iter:  20 14:37:48  -200.407242c -6.77  -3.67
iter:  21 14:38:47  -200.407698c -6.69  -3.80
iter:  22 14:39:47  -200.405618c -6.93  -3.78
iter:  23 14:40:47  -200.406836c -7.07  -3.93
iter:  24 14:41:46  -200.406671c -7.28  -3.91
iter:  25 14:42:46  -200.406535c -7.64c -3.94
iter:  26 14:43:45  -200.406516c -7.74c -4.10c

Converged after 26 iterations.

Dipole moment: (25.125790, 12.548859, -0.022947) |e|*Ang

Energy contributions relative to reference atoms: (reference = -14172748.147892)

Kinetic:       -327.136176
Potential:     +180.144643
External:        +0.000000
XC:             -41.219221
Entropy (-ST):   -2.325014
Local:          -11.033256
--------------------------
Free energy:   -201.569023
Extrapolated:  -200.406516

Showing only first 2 kpts
 Kpt  Band  Eigenvalues  Occupancy
  0   361      0.65281    1.00604
  0   362      0.67814    0.87995
  0   363      0.70689    0.74160
  0   364      0.71765    0.69212

  1   361      0.52752    1.55975
  1   362      0.56128    1.43307
  1   363      0.59564    1.28386
  1   364      0.61916    1.17250


Fermi level: 0.65401

No gap

Forces in eV/Ang:
  0 Pd    0.01122   -0.01237   -0.25399
  1 Pt    0.30402   -0.51840    0.38721
  2 Pt   -0.34480   -0.14262    0.01842
  3 Pd   -0.41149    0.18203   -0.08125
  4 Pd    0.22132   -0.22225   -0.24185
  5 Pt    0.22300    0.31723   -0.19478
  6 Pd   -0.21767    0.23015   -0.10097
  7 Pt    0.54690    0.16707    0.07855
  8 Ru   -0.49369    0.05079    1.35783
  9 Pd   -0.22965    0.15789    0.19852
 10 Pt    0.30284   -0.00088   -0.22165
 11 Pd    0.05592    0.05008   -0.09457
 12 Pd    0.09141    0.08140   -0.02058
 13 Pt   -0.17573   -0.18642    0.16549
 14 Ag    0.04166   -0.14301    0.01265
 15 Ag    0.01174   -0.05679   -0.12029
 16 Ag   -0.05617   -0.04400    0.09299
 17 Pt    0.01483    0.24240   -0.60492
 18 Pt   -0.03691    0.07964    0.09520
 19 Pt    0.06508    0.08469    0.03446
 20 Ru    0.02327    0.04851    0.12028
 21 Pt    0.00825   -0.04273    0.04857
 22 Pd    0.01173   -0.08706    0.09984
 23 Pt   -0.00499   -0.14029    0.22157
 24 Ag   -0.02543    0.00664    0.06041
 25 Pt   -0.04663   -0.02394   -0.04402
 26 Ag    0.11853    0.06151    0.08952
 27 Pt    0.08371    0.18311   -0.25166
 28 Pd   -0.00679    0.12495   -0.03282
 29 Pd   -0.08709    0.11774   -0.09695
 30 Ir    0.05014   -0.06048    0.11790
 31 Pt   -0.09282   -0.07187    0.07905
 32 Pd    0.00410    0.01374   -0.14203
 33 Pd   -0.06213   -0.13320   -0.08181
 34 Ag    0.12352   -0.11089   -0.25137
 35 Pt   -0.00055   -0.05968   -0.16363
 36 Pt   -0.54375    0.34683   -0.03642
 37 Pt    0.01617   -0.02037    0.13630
 38 Pt    0.31765    0.17371   -0.10688
 39 Pt    0.14500    0.18115   -0.02754
 40 Pd   -0.03524    0.10893   -0.02623
 41 Pd    0.08624   -0.44845   -0.05698
 42 Pt    0.02147   -0.16276   -0.08949
 43 Ag    0.04925   -0.11243    0.08086
 44 Pt   -0.02433   -0.08842    0.04609
 45 H    -0.00074   -0.09388   -0.17250

System changes: positions 

Initializing position-dependent things.

Density initialized from wave functions
                                             
                                             
                                             
                                             
                                             
                                             
                 Pt     Ag     Pt            
                                             
            Pt    PPd    HPd    Pt           
       Pt    IPt    PPt    Pd                
                                             
        Pt     Pd    APd    Pt     Ag        
                                             
                Pt     Pd     Pt             
           Pt    APt    ARu    Pt            
                                             
            Pd    PPt    PAg    Ru           
                                             
       Pd    PPt    PPd    Pt                
        Pd     Pt     Pt                     
                                             
                                             
                                             
                                             
                                             

Positions:
   0 Pd     0.000000    1.639149   10.000000    ( 0.0000,  0.0000,  0.0000)
   1 Pt     2.839089    1.639149   10.000000    ( 0.0000,  0.0000,  0.0000)
   2 Pt     5.678177    1.639149   10.000000    ( 0.0000,  0.0000,  0.0000)
   3 Pd     1.419544    4.097872   10.000000    ( 0.0000,  0.0000,  0.0000)
   4 Pd     4.258633    4.097872   10.000000    ( 0.0000,  0.0000,  0.0000)
   5 Pt     7.097722    4.097872   10.000000    ( 0.0000,  0.0000,  0.0000)
   6 Pd     2.839089    6.556595   10.000000    ( 0.0000,  0.0000,  0.0000)
   7 Pt     5.678177    6.556595   10.000000    ( 0.0000,  0.0000,  0.0000)
   8 Ru     8.517266    6.556595   10.000000    ( 0.0000,  0.0000,  0.0000)
   9 Pd     0.000000    0.000000   12.317643    ( 0.0000,  0.0000,  0.0000)
  10 Pt     2.839089    0.000000   12.317643    ( 0.0000,  0.0000,  0.0000)
  11 Pd     5.678177    0.000000   12.317643    ( 0.0000,  0.0000,  0.0000)
  12 Pd     1.419544    2.458723   12.317643    ( 0.0000,  0.0000,  0.0000)
  13 Pt     4.258633    2.458723   12.317643    ( 0.0000,  0.0000,  0.0000)
  14 Ag     7.097722    2.458723   12.317643    ( 0.0000,  0.0000,  0.0000)
  15 Ag     2.839089    4.917446   12.317643    ( 0.0000,  0.0000,  0.0000)
  16 Ag     5.678177    4.917446   12.317643    ( 0.0000,  0.0000,  0.0000)
  17 Pt     8.517266    4.917446   12.317643    ( 0.0000,  0.0000,  0.0000)
  18 Pt     1.388714    0.796180   14.576449    ( 0.0000,  0.0000,  0.0000)
  19 Pt     4.329068    0.811620   14.612954    ( 0.0000,  0.0000,  0.0000)
  20 Ru     7.149440    0.906683   14.685226    ( 0.0000,  0.0000,  0.0000)
  21 Pt     2.841669    3.224243   14.664663    ( 0.0000,  0.0000,  0.0000)
  22 Pd     5.687396    3.251865   14.664255    ( 0.0000,  0.0000,  0.0000)
  23 Pt     8.528840    3.286074   14.634811    ( 0.0000,  0.0000,  0.0000)
  24 Ag     4.284097    5.721077   14.650769    ( 0.0000,  0.0000,  0.0000)
  25 Pt     7.163315    5.770473   14.626028    ( 0.0000,  0.0000,  0.0000)
  26 Ag     9.986950    5.740786   14.634581    ( 0.0000,  0.0000,  0.0000)
  27 Pt    -0.008977    1.649547   16.866345    ( 0.0000,  0.0000,  0.0000)
  28 Pd     2.855757    1.581514   16.889257    ( 0.0000,  0.0000,  0.0000)
  29 Pd     5.689156    1.615469   16.946376    ( 0.0000,  0.0000,  0.0000)
  30 Ir     1.440767    4.056143   16.949591    ( 0.0000,  0.0000,  0.0000)
  31 Pt     4.211526    4.038935   16.967323    ( 0.0000,  0.0000,  0.0000)
  32 Pd     7.082638    4.089332   16.944784    ( 0.0000,  0.0000,  0.0000)
  33 Pd     2.843748    6.604099   16.930190    ( 0.0000,  0.0000,  0.0000)
  34 Ag     5.658362    6.521319   17.008854    ( 0.0000,  0.0000,  0.0000)
  35 Pt     8.544957    6.532293   16.968348    ( 0.0000,  0.0000,  0.0000)
  36 Pt     0.031257    0.034623   19.363116    ( 0.0000,  0.0000,  0.0000)
  37 Pt     2.855723    0.039627   19.250297    ( 0.0000,  0.0000,  0.0000)
  38 Pt     5.637939   -0.012636   19.345655    ( 0.0000,  0.0000,  0.0000)
  39 Pt     1.405096    2.425453   19.147940    ( 0.0000,  0.0000,  0.0000)
  40 Pd     4.227833    2.440243   19.265020    ( 0.0000,  0.0000,  0.0000)
  41 Pd     7.111020    2.499072   19.308989    ( 0.0000,  0.0000,  0.0000)
  42 Pt     2.787244    4.957116   19.158620    ( 0.0000,  0.0000,  0.0000)
  43 Ag     5.668326    4.934880   19.447428    ( 0.0000,  0.0000,  0.0000)
  44 Pt     8.564137    4.933997   19.182892    ( 0.0000,  0.0000,  0.0000)
  45 H      7.063213    0.702842   20.218117    ( 0.0000,  0.0000,  0.0000)

Unit cell:
           periodic     x           y           z      points  spacing
  1. axis:    yes    8.517266    0.000000    0.000000    40     0.1844
  2. axis:    yes    4.258633    7.376169    0.000000    40     0.1844
  3. axis:    no     0.000000    0.000000   29.270571   140     0.2091

  Lengths:   8.517266   8.517266  29.270571
  Angles:   90.000000  90.000000  60.000000

Effective grid spacing dv^(1/3) = 0.2017

     iter     time        total  log10-change:
                         energy  eigst   dens
iter:   1 14:45:04  -201.644723  -3.09
iter:   2 14:46:04  -226.891216  -3.00  -2.21
iter:   3 14:47:03  -201.093344  -3.31  -1.56
iter:   4 14:48:03  -200.547198  -4.61  -2.31
iter:   5 14:49:02  -200.484243  -5.03  -2.77
iter:   6 14:50:02  -200.465775c -5.40  -3.01
iter:   7 14:51:01  -200.460928c -5.63  -3.16
iter:   8 14:52:00  -200.456753c -5.58  -3.30
iter:   9 14:53:00  -200.458065c -5.89  -3.33
iter:  10 14:53:59  -200.456839c -6.46  -3.31
iter:  11 14:54:59  -200.458416c -6.51  -3.44
iter:  12 14:55:58  -200.454443c -6.73  -3.40
iter:  13 14:56:58  -200.455529c -6.69  -3.56
iter:  14 14:57:58  -200.454683c -6.87  -3.63
iter:  15 14:58:58  -200.454411c -7.02  -3.75
iter:  16 14:59:57  -200.455113c -6.82  -3.86
iter:  17 15:00:57  -200.456425c -6.83  -3.70
iter:  18 15:01:56  -200.453885c -6.98  -3.66
iter:  19 15:02:56  -200.454278c -7.31  -4.03c
iter:  20 15:03:57  -200.454139c -7.56c -4.07c

Converged after 20 iterations.

Dipole moment: (26.597212, 11.266893, -0.026128) |e|*Ang

Energy contributions relative to reference atoms: (reference = -14172748.147892)

Kinetic:       -329.598667
Potential:     +182.330508
External:        +0.000000
XC:             -40.992924
Entropy (-ST):   -2.325195
Local:          -11.030458
--------------------------
Free energy:   -201.616737
Extrapolated:  -200.454139

Showing only first 2 kpts
 Kpt  Band  Eigenvalues  Occupancy
  0   361      0.64990    1.00788
  0   362      0.67512    0.88235
  0   363      0.70482    0.73946
  0   364      0.71896    0.67487

  1   361      0.52210    1.56958
  1   362      0.55704    1.43998
  1   363      0.59320    1.28344
  1   364      0.62037    1.15431


Fermi level: 0.65148

No gap

Forces in eV/Ang:
  0 Pd    0.01165   -0.01243   -0.25999
  1 Pt    0.30340   -0.52086    0.38300
  2 Pt   -0.34521   -0.14276    0.01437
  3 Pd   -0.41152    0.18269   -0.08380
  4 Pd    0.22047   -0.22089   -0.24461
  5 Pt    0.22327    0.31983   -0.19612
  6 Pd   -0.21720    0.22811   -0.10388
  7 Pt    0.54699    0.16486    0.07448
  8 Ru   -0.49135    0.05067    1.35248
  9 Pd   -0.22831    0.16063    0.20120
 10 Pt    0.29674    0.01329   -0.22145
 11 Pd    0.05640    0.05084   -0.09316
 12 Pd    0.08633    0.08900   -0.00845
 13 Pt   -0.17589   -0.17641    0.16373
 14 Ag    0.04599   -0.13448    0.02298
 15 Ag    0.01021   -0.06210   -0.11443
 16 Ag   -0.06592   -0.05365    0.07965
 17 Pt    0.02453    0.22645   -0.59530
 18 Pt   -0.01479    0.02952    0.03516
 19 Pt    0.03452    0.03571    0.03014
 20 Ru    0.02130    0.01871    0.07774
 21 Pt    0.00622   -0.01722    0.02289
 22 Pd   -0.00201   -0.04648    0.05846
 23 Pt    0.00606   -0.06204    0.10709
 24 Ag   -0.01313    0.00225    0.03981
 25 Pt   -0.00872   -0.00573   -0.00343
 26 Ag    0.06467    0.02699    0.06155
 27 Pt    0.02226    0.07573   -0.07034
 28 Pd    0.00826    0.05531   -0.00799
 29 Pd   -0.03858    0.06249   -0.03293
 30 Ir    0.01701   -0.02005    0.03613
 31 Pt   -0.03922   -0.04665    0.03295
 32 Pd    0.00796   -0.00494   -0.07585
 33 Pd   -0.02801   -0.05536   -0.02491
 34 Ag    0.04086   -0.03653   -0.09197
 35 Pt    0.00041   -0.02078   -0.09358
 36 Pt   -0.15796    0.16739   -0.16619
 37 Pt    0.00792    0.01988    0.13278
 38 Pt    0.07319    0.03620   -0.14782
 39 Pt    0.04292    0.06018    0.02888
 40 Pd   -0.00331    0.03035    0.03555
 41 Pd    0.07811   -0.20266   -0.12697
 42 Pt    0.00095   -0.06900    0.01588
 43 Ag    0.00829   -0.03472    0.08461
 44 Pt    0.01771   -0.03407    0.07983
 45 H    -0.04623   -0.13244   -0.19638

System changes: positions 

Initializing position-dependent things.

Density initialized from wave functions
                                             
                                             
                                             
                                             
                                             
                                             
                 Pt     Ag     Pt            
                                             
            Pt    PPd    HPd    Pt           
       Pt    IPt    PPt    Pd                
                                             
        Pt     Pd    APd    Pt     Ag        
                                             
                Pt     Pd     Pt             
           Pt    APt    ARu    Pt            
                                             
            Pd    PPt    PAg    Ru           
                                             
       Pd    PPt    PPd    Pt                
        Pd     Pt     Pt                     
                                             
                                             
                                             
                                             
                                             

Positions:
   0 Pd     0.000000    1.639149   10.000000    ( 0.0000,  0.0000,  0.0000)
   1 Pt     2.839089    1.639149   10.000000    ( 0.0000,  0.0000,  0.0000)
[...]
  12 Pd     1.419544    2.458723   12.317643    ( 0.0000,  0.0000,  0.0000)
  13 Pt     4.258633    2.458723   12.317643    ( 0.0000,  0.0000,  0.0000)
  14 Ag     7.097722    2.458723   12.317643    ( 0.0000,  0.0000,  0.0000)
  15 Ag     2.839089    4.917446   12.317643    ( 0.0000,  0.0000,  0.0000)
  16 Ag     5.678177    4.917446   12.317643    ( 0.0000,  0.0000,  0.0000)
  17 Pt     8.517266    4.917446   12.317643    ( 0.0000,  0.0000,  0.0000)
  18 Pt     1.389128    0.796709   14.577860    ( 0.0000,  0.0000,  0.0000)
  19 Pt     4.340190    0.815020   14.613143    ( 0.0000,  0.0000,  0.0000)
  20 Ru     7.154551    0.906243   14.694906    ( 0.0000,  0.0000,  0.0000)
  21 Pt     2.845765    3.221248   14.660850    ( 0.0000,  0.0000,  0.0000)
  22 Pd     5.689805    3.244909   14.669154    ( 0.0000,  0.0000,  0.0000)
  23 Pt     8.535105    3.282361   14.641987    ( 0.0000,  0.0000,  0.0000)
  24 Ag     4.285509    5.719616   14.659039    ( 0.0000,  0.0000,  0.0000)
  25 Pt     7.165553    5.768796   14.614514    ( 0.0000,  0.0000,  0.0000)
  26 Ag    10.000869    5.744297   14.640421    ( 0.0000,  0.0000,  0.0000)
  27 Pt     0.000666    1.658419   16.853112    ( 0.0000,  0.0000,  0.0000)
  28 Pd     2.859121    1.578788   16.885067    ( 0.0000,  0.0000,  0.0000)
  29 Pd     5.685296    1.622933   16.944717    ( 0.0000,  0.0000,  0.0000)
  30 Ir     1.446259    4.055354   16.950522    ( 0.0000,  0.0000,  0.0000)
  31 Pt     4.209297    4.034415   16.970184    ( 0.0000,  0.0000,  0.0000)
  32 Pd     7.081318    4.096725   16.932653    ( 0.0000,  0.0000,  0.0000)
  33 Pd     2.843826    6.597937   16.932221    ( 0.0000,  0.0000,  0.0000)
  34 Ag     5.671582    6.511225   16.994281    ( 0.0000,  0.0000,  0.0000)
  35 Pt     8.536147    6.524229   16.946297    ( 0.0000,  0.0000,  0.0000)
  36 Pt     0.027554    0.053462   19.301860    ( 0.0000,  0.0000,  0.0000)
  37 Pt     2.857512    0.037897   19.259270    ( 0.0000,  0.0000,  0.0000)
  38 Pt     5.632447   -0.015225   19.292359    ( 0.0000,  0.0000,  0.0000)
  39 Pt     1.416366    2.437767   19.143070    ( 0.0000,  0.0000,  0.0000)
  40 Pd     4.227462    2.448302   19.265802    ( 0.0000,  0.0000,  0.0000)
  41 Pd     7.124055    2.482982   19.267487    ( 0.0000,  0.0000,  0.0000)
  42 Pt     2.790906    4.945415   19.156708    ( 0.0000,  0.0000,  0.0000)
  43 Ag     5.670297    4.932511   19.466343    ( 0.0000,  0.0000,  0.0000)
  44 Pt     8.560968    4.935221   19.182822    ( 0.0000,  0.0000,  0.0000)
  45 H      7.043669    0.643561   20.157360    ( 0.0000,  0.0000,  0.0000)

Unit cell:
           periodic     x           y           z      points  spacing
  1. axis:    yes    8.517266    0.000000    0.000000    40     0.1844
  2. axis:    yes    4.258633    7.376169    0.000000    40     0.1844
  3. axis:    no     0.000000    0.000000   29.270571   140     0.2091

  Lengths:   8.517266   8.517266  29.270571
  Angles:   90.000000  90.000000  60.000000

Effective grid spacing dv^(1/3) = 0.2017

     iter     time        total  log10-change:
                         energy  eigst   dens
iter:   1 16:26:39  -200.900323  -4.27
iter:   2 16:27:38  -214.929486  -3.35  -2.42
iter:   3 16:28:37  -200.732912  -3.58  -1.70
iter:   4 16:29:36  -200.522571  -4.96  -2.58
iter:   5 16:30:36  -200.502441c -5.62  -3.08
iter:   6 16:31:35  -200.499425c -6.01  -3.49
iter:   7 16:32:34  -200.499013c -6.33  -3.52
iter:   8 16:33:34  -200.496857c -6.50  -3.61
iter:   9 16:34:34  -200.495928c -6.48  -3.87
iter:  10 16:35:34  -200.496986c -7.10  -4.03c
iter:  11 16:36:33  -200.496261c -7.31  -3.91
iter:  12 16:37:32  -200.496209c -7.26  -4.20c
iter:  13 16:38:31  -200.496002c -7.74c -4.33c

Converged after 13 iterations.

Dipole moment: (26.448032, 10.273756, -0.013945) |e|*Ang

Energy contributions relative to reference atoms: (reference = -14172748.147892)

Kinetic:       -323.595267
Potential:     +177.155860
External:        +0.000000
XC:             -41.870477
Entropy (-ST):   -2.324133
Local:          -11.024051
--------------------------
Free energy:   -201.658068
Extrapolated:  -200.496002

Showing only first 2 kpts
 Kpt  Band  Eigenvalues  Occupancy
  0   361      0.65655    1.00781
  0   362      0.68093    0.88644
  0   363      0.71333    0.73074
  0   364      0.72539    0.67577

  1   361      0.52808    1.57179
  1   362      0.56076    1.45164
  1   363      0.60074    1.27927
  1   364      0.62920    1.14356


Fermi level: 0.65812

No gap

Forces in eV/Ang:
  0 Pd    0.01176   -0.01213   -0.25774
  1 Pt    0.30329   -0.52313    0.38263
  2 Pt   -0.34689   -0.14260    0.01377
  3 Pd   -0.41360    0.18352   -0.08214
  4 Pd    0.22003   -0.22200   -0.24663
  5 Pt    0.22374    0.31733   -0.19881
  6 Pd   -0.21825    0.22928   -0.10291
  7 Pt    0.54479    0.16630    0.07013
  8 Ru   -0.48964    0.05590    1.34193
  9 Pd   -0.22261    0.15482    0.21344
 10 Pt    0.30445    0.02733   -0.22015
 11 Pd    0.05811    0.04022   -0.10053
 12 Pd    0.08342    0.08764   -0.01149
 13 Pt   -0.16785   -0.18365    0.15505
 14 Ag    0.05456   -0.13913    0.05241
 15 Ag    0.01132   -0.05537   -0.10831
 16 Ag   -0.07959   -0.06272    0.08656
 17 Pt    0.04860    0.22256   -0.57771
 18 Pt    0.01773    0.00615   -0.01326
 19 Pt   -0.01567   -0.01017   -0.00453
 20 Ru   -0.00717    0.01280   -0.02056
 21 Pt    0.00530   -0.00808    0.02002
 22 Pd   -0.00507    0.01917   -0.00785
 23 Pt    0.00914    0.01455   -0.00261
 24 Ag    0.01455   -0.01518   -0.03033
 25 Pt    0.01397   -0.00619   -0.02157
 26 Ag   -0.01109   -0.01502   -0.02209
 27 Pt    0.00079   -0.01552   -0.00763
 28 Pd    0.00954    0.01524    0.03362
 29 Pd   -0.01042   -0.00128   -0.06601
 30 Ir   -0.00543    0.01955    0.00573
 31 Pt    0.00585   -0.00509    0.01158
 32 Pd    0.01612   -0.04686   -0.00885
 33 Pd   -0.00203   -0.01323   -0.06745
 34 Ag   -0.00310    0.00469   -0.01821
 35 Pt    0.04732    0.01318   -0.00764
 36 Pt    0.02623   -0.00404   -0.02498
 37 Pt   -0.00400    0.01892   -0.01549
 38 Pt   -0.07794   -0.02184   -0.05897
 39 Pt    0.01515    0.00118    0.03605
 40 Pd    0.02643   -0.02187    0.01495
 41 Pd    0.00175   -0.01703   -0.04109
 42 Pt   -0.01130   -0.01357   -0.00855
 43 Ag    0.01256   -0.01395    0.00193
 44 Pt   -0.00869   -0.02502    0.00065
 45 H     0.00943   -0.03824   -0.06922

System changes: positions 

Initializing position-dependent things.

Density initialized from wave functions
                                             
                                             
                                             
                                             
                                             
                                             
                 Pt     Ag     Pt            
                          Pd                 
            Pt    PPd    Hg     Pt           
       Pt    IPt    PPt    Pd                
                                             
        Pt     Pd    APd    Pt     Ag        
                                             
                Pt     Pd     Pt             
           Pt    APt    ARu    Pt            
                                             
            Pd    PPt    PAg    Ru           
       Pd     Pt     Pd                      
             Pd     Pd     Pt                
        Pd     Pt     Pt                     
                                             
                                             
                                             
                                             
                                             

Positions:
   0 Pd     0.000000    1.639149   10.000000    ( 0.0000,  0.0000,  0.0000)
   1 Pt     2.839089    1.639149   10.000000    ( 0.0000,  0.0000,  0.0000)
   2 Pt     5.678177    1.639149   10.000000    ( 0.0000,  0.0000,  0.0000)
   3 Pd     1.419544    4.097872   10.000000    ( 0.0000,  0.0000,  0.0000)
   4 Pd     4.258633    4.097872   10.000000    ( 0.0000,  0.0000,  0.0000)
   5 Pt     7.097722    4.097872   10.000000    ( 0.0000,  0.0000,  0.0000)
   6 Pd     2.839089    6.556595   10.000000    ( 0.0000,  0.0000,  0.0000)
   7 Pt     5.678177    6.556595   10.000000    ( 0.0000,  0.0000,  0.0000)
   8 Ru     8.517266    6.556595   10.000000    ( 0.0000,  0.0000,  0.0000)
   9 Pd     0.000000    0.000000   12.317643    ( 0.0000,  0.0000,  0.0000)
  10 Pt     2.839089    0.000000   12.317643    ( 0.0000,  0.0000,  0.0000)
  11 Pd     5.678177    0.000000   12.317643    ( 0.0000,  0.0000,  0.0000)
  12 Pd     1.419544    2.458723   12.317643    ( 0.0000,  0.0000,  0.0000)
  13 Pt     4.258633    2.458723   12.317643    ( 0.0000,  0.0000,  0.0000)
  14 Ag     7.097722    2.458723   12.317643    ( 0.0000,  0.0000,  0.0000)
  15 Ag     2.839089    4.917446   12.317643    ( 0.0000,  0.0000,  0.0000)
  16 Ag     5.678177    4.917446   12.317643    ( 0.0000,  0.0000,  0.0000)
  17 Pt     8.517266    4.917446   12.317643    ( 0.0000,  0.0000,  0.0000)
  18 Pt     1.389861    0.796611   14.577379    ( 0.0000,  0.0000,  0.0000)
  19 Pt     4.340761    0.814783   14.612805    ( 0.0000,  0.0000,  0.0000)
  20 Ru     7.154747    0.906276   14.694754    ( 0.0000,  0.0000,  0.0000)
  21 Pt     2.846398    3.220903   14.660709    ( 0.0000,  0.0000,  0.0000)
  22 Pd     5.690092    3.245092   14.669072    ( 0.0000,  0.0000,  0.0000)
  23 Pt     8.535926    3.283020   14.641684    ( 0.0000,  0.0000,  0.0000)
  24 Ag     4.286276    5.718909   14.658913    ( 0.0000,  0.0000,  0.0000)
  25 Pt     7.166126    5.768447   14.612361    ( 0.0000,  0.0000,  0.0000)
  26 Ag    10.001593    5.744036   14.639924    ( 0.0000,  0.0000,  0.0000)
  27 Pt     0.001704    1.658621   16.852061    ( 0.0000,  0.0000,  0.0000)
  28 Pd     2.859620    1.578309   16.885638    ( 0.0000,  0.0000,  0.0000)
  29 Pd     5.684903    1.623279   16.943080    ( 0.0000,  0.0000,  0.0000)
  30 Ir     1.446627    4.055951   16.950550    ( 0.0000,  0.0000,  0.0000)
  31 Pt     4.209447    4.034065   16.970406    ( 0.0000,  0.0000,  0.0000)
  32 Pd     7.081626    4.096124   16.931960    ( 0.0000,  0.0000,  0.0000)
  33 Pd     2.844020    6.597353   16.930880    ( 0.0000,  0.0000,  0.0000)
  34 Ag     5.672551    6.510632   16.993327    ( 0.0000,  0.0000,  0.0000)
  35 Pt     8.536659    6.523811   16.945068    ( 0.0000,  0.0000,  0.0000)
  36 Pt     0.029084    0.054427   19.297378    ( 0.0000,  0.0000,  0.0000)
  37 Pt     2.857662    0.038174   19.258498    ( 0.0000,  0.0000,  0.0000)
  38 Pt     5.628948   -0.016290   19.287409    ( 0.0000,  0.0000,  0.0000)
  39 Pt     1.417706    2.438724   19.143101    ( 0.0000,  0.0000,  0.0000)
  40 Pd     4.227936    2.448202   19.266073    ( 0.0000,  0.0000,  0.0000)
  41 Pd     7.124909    2.482390   19.264351    ( 0.0000,  0.0000,  0.0000)
  42 Pt     2.790656    4.944430   19.156311    ( 0.0000,  0.0000,  0.0000)
  43 Ag     5.670688    4.932343   19.468136    ( 0.0000,  0.0000,  0.0000)
  44 Pt     8.560664    4.935198   19.181838    ( 0.0000,  0.0000,  0.0000)
  45 H      7.041901    0.635833   20.145974    ( 0.0000,  0.0000,  0.0000)

Unit cell:
           periodic     x           y           z      points  spacing
  1. axis:    yes    8.517266    0.000000    0.000000    40     0.1844
  2. axis:    yes    4.258633    7.376169    0.000000    40     0.1844
  3. axis:    no     0.000000    0.000000   29.270571   140     0.2091

  Lengths:   8.517266   8.517266  29.270571
  Angles:   90.000000  90.000000  60.000000

Effective grid spacing dv^(1/3) = 0.2017

     iter     time        total  log10-change:
                         energy  eigst   dens
iter:   1 16:39:50  -200.743268  -4.83
iter:   2 16:40:49  -210.235958  -3.58  -2.52
iter:   3 16:41:48  -200.593086  -3.80  -1.77
iter:   4 16:42:47  -200.513483  -5.32  -2.76
iter:   5 16:43:46  -200.500263c -5.94  -3.19
iter:   6 16:44:45  -200.499539c -6.41  -3.79
iter:   7 16:45:45  -200.498190c -6.68  -3.82
iter:   8 16:46:45  -200.497998c -6.95  -4.13c
iter:   9 16:47:45  -200.498140c -7.28  -4.29c
iter:  10 16:48:45  -200.498078c -7.63c -4.13c

Converged after 10 iterations.

Dipole moment: (26.398528, 10.224762, -0.009394) |e|*Ang

Energy contributions relative to reference atoms: (reference = -14172748.147892)

Kinetic:       -323.823278
Potential:     +177.429790
External:        +0.000000
XC:             -41.930566
Entropy (-ST):   -2.323410
Local:          -11.012319
--------------------------
Free energy:   -201.659783
Extrapolated:  -200.498078

Showing only first 2 kpts
 Kpt  Band  Eigenvalues  Occupancy
  0   361      0.65899    1.00721
  0   362      0.68328    0.88626
  0   363      0.71587    0.72973
  0   364      0.72751    0.67669

  1   361      0.53050    1.57145
  1   362      0.56282    1.45268
  1   363      0.60313    1.27894
  1   364      0.63158    1.14328


Fermi level: 0.66044

No gap

Forces in eV/Ang:
  0 Pd    0.01225   -0.01218   -0.25529
  1 Pt    0.30326   -0.52345    0.38540
  2 Pt   -0.34744   -0.14242    0.01748
  3 Pd   -0.41357    0.18290   -0.08122
  4 Pd    0.22016   -0.22273   -0.24468
  5 Pt    0.22376    0.31690   -0.19701
  6 Pd   -0.21803    0.22933   -0.10059
  7 Pt    0.54437    0.16699    0.07209
  8 Ru   -0.48915    0.05662    1.34316
  9 Pd   -0.22385    0.15622    0.21335
 10 Pt    0.30516    0.03025   -0.22882
 11 Pd    0.05960    0.04208   -0.10357
 12 Pd    0.08421    0.08732   -0.01424
 13 Pt   -0.16824   -0.18354    0.15325
 14 Ag    0.05514   -0.14003    0.05180
 15 Ag    0.01278   -0.05716   -0.11045
 16 Ag   -0.08102   -0.06416    0.08110
 17 Pt    0.05091    0.22036   -0.58890
 18 Pt    0.00713    0.00840   -0.00216
 19 Pt   -0.02213   -0.00666   -0.00236
 20 Ru   -0.00105    0.01342   -0.02261
 21 Pt    0.00101   -0.00951    0.02487
 22 Pd   -0.00397    0.01328   -0.00908
 23 Pt    0.00228   -0.00311    0.00267
 24 Ag    0.01157   -0.00839   -0.02959
 25 Pt    0.00723   -0.00117    0.00967
 26 Ag   -0.01166   -0.01255   -0.02067
 27 Pt   -0.00365   -0.01335   -0.01445
 28 Pd   -0.00200    0.02807    0.00695
 29 Pd    0.00428    0.00044   -0.04775
 30 Ir   -0.00427    0.00723   -0.00319
 31 Pt    0.00727    0.00161    0.01305
 32 Pd    0.00759   -0.03109   -0.00674
 33 Pd    0.00943   -0.00393   -0.05376
 34 Ag   -0.00366   -0.00327   -0.02352
 35 Pt    0.02419    0.00623   -0.02908
 36 Pt   -0.01770   -0.01152    0.02145
 37 Pt   -0.02125    0.00512   -0.00311
 38 Pt    0.01802    0.01597    0.00066
 39 Pt    0.00351    0.00176    0.03632
 40 Pd    0.02611   -0.00359    0.01869
 41 Pd   -0.01462   -0.02382    0.01156
 42 Pt    0.00371   -0.00258    0.00252
 43 Ag    0.01147   -0.01264   -0.00496
 44 Pt   -0.02280   -0.03939    0.01394
 45 H     0.00781   -0.04609   -0.06802

Timing:                                      incl.     excl.
-------------------------------------------------------------------
Density initialized from wave functions:    40.916    40.915   0.2% |
 Symmetrize density:                         0.001     0.001   0.0% |
Forces:                                    194.523   194.523   1.2% |
Hamiltonian:                                21.369     0.123   0.0% |
 Atomic:                                     1.632     0.477   0.0% |
  XC Correction:                             1.154     1.154   0.0% |
 Calculate atomic Hamiltonians:             13.949    13.949   0.1% |
 Communicate:                                2.163     2.163   0.0% |
 Initialize Hamiltonian:                     0.000     0.000   0.0% |
 Poisson:                                    0.080     0.080   0.0% |
 XC 3D grid:                                 3.422     3.422   0.0% |
LCAO initialization:                       124.622     2.415   0.0% |
 LCAO eigensolver:                          14.244     0.001   0.0% |
  Blacs Orbital Layouts:                     0.669     0.000   0.0% |
   General diagonalize:                      0.663     0.663   0.0% |
   Redistribute coefs:                       0.003     0.003   0.0% |
   Send coefs to domains:                    0.003     0.003   0.0% |
  Calculate projections:                     0.006     0.006   0.0% |
  Distribute overlap matrix:                12.769     0.000   0.0% |
   Scalapack redistribute:                   0.014     0.014   0.0% |
   blocked summation:                       12.754    12.754   0.1% |
  Potential matrix:                          0.720     0.720   0.0% |
  SparseAtomicCorrection:                    0.004     0.004   0.0% |
  Sum over cells:                            0.075     0.075   0.0% |
 LCAO to grid:                             104.917   104.917   0.6% |
 Set positions (LCAO WFS):                   3.047     0.006   0.0% |
  Basic WFS set positions:                   0.003     0.003   0.0% |
  Basis functions set positions:             0.000     0.000   0.0% |
  P tci:                                     0.000     0.000   0.0% |
  ST tci:                                    0.283     0.283   0.0% |
  Scalapack redistribute:                    0.034     0.034   0.0% |
  blocked summation:                         2.604     2.604   0.0% |
  mktci:                                     0.117     0.117   0.0% |
PWDescriptor:                                0.580     0.580   0.0% |
Redistribute:                                0.015     0.015   0.0% |
SCF-cycle:                               15958.709   211.282   1.3% ||
 Davidson:                               14647.958  3318.412  20.2% |-------|
  Apply H:                                1573.690  1543.605   9.4% |---|
   HMM T:                                   30.085    30.085   0.2% |
  Subspace diag:                          1698.421     0.054   0.0% |
   calc_h_matrix:                         1112.946   318.801   1.9% ||
    Apply H:                               794.145   777.149   4.7% |-|
     HMM T:                                 16.996    16.996   0.1% |
   diagonalize:                             62.083    62.083   0.4% |
   rotate_psi:                             523.338   523.338   3.2% ||
  calc. matrices:                         5632.875  3334.236  20.3% |-------|
   Apply H:                               2298.639  2253.355  13.7% |----|
    HMM T:                                  45.284    45.284   0.3% |
  diagonalize:                             810.295   810.295   4.9% |-|
  rotate_psi:                             1614.265  1614.265   9.8% |---|
 Density:                                  690.499     0.010   0.0% |
  Atomic density matrices:                   5.142     5.142   0.0% |
  Mix:                                     250.032   250.032   1.5% ||
  Multipole moments:                         0.458     0.458   0.0% |
  Pseudo density:                          434.856   434.844   2.6% ||
   Symmetrize density:                       0.012     0.012   0.0% |
 Hamiltonian:                              350.185     1.887   0.0% |
  Atomic:                                   24.965     7.102   0.0% |
   XC Correction:                           17.863    17.863   0.1% |
  Calculate atomic Hamiltonians:           222.083   222.083   1.4% ||
  Communicate:                              41.365    41.365   0.3% |
  Poisson:                                   1.182     1.182   0.0% |
  XC 3D grid:                               58.703    58.703   0.4% |
 Orthonormalize:                            58.785     0.006   0.0% |
  calc_s_matrix:                             9.465     9.465   0.1% |
  inverse-cholesky:                          3.161     3.161   0.0% |
  projections:                              30.232    30.232   0.2% |
  rotate_psi_s:                             15.921    15.921   0.1% |
Set symmetry:                                0.002     0.002   0.0% |
Other:                                      68.884    68.884   0.4% |
-------------------------------------------------------------------
Total:                                             16409.619 100.0%

Memory usage: 856.22 MiB
Date: Fri Jun 14 16:48:59 2024
