
  ___ ___ ___ _ _ _  
 |   |   |_  | | | | 
 | | | | | . | | | | 
 |__ |  _|___|_____|  22.1.0
 |___|_|             

User:   clausen@node490.cluster
Date:   Thu Jun 13 20:19:02 2024
Arch:   x86_64
Pid:    101307
Python: 3.10.4
gpaw:   /groups/kemi/clausen/miniconda3/envs/gpaw22/lib/python3.10/site-packages/gpaw
_gpaw:  /groups/kemi/clausen/miniconda3/envs/gpaw22/lib/python3.10/site-packages/
        _gpaw.cpython-310-x86_64-linux-gnu.so
ase:    /groups/kemi/clausen/miniconda3/envs/gpaw22/lib/python3.10/site-packages/ase (version 3.22.1)
numpy:  /groups/kemi/clausen/miniconda3/envs/gpaw22/lib/python3.10/site-packages/numpy (version 1.23.1)
scipy:  /groups/kemi/clausen/miniconda3/envs/gpaw22/lib/python3.10/site-packages/scipy (version 1.8.1)
libxc:  5.2.3
units:  Angstrom and eV
cores: 24
OpenMP: True
OMP_NUM_THREADS: 1

Input parameters:
  eigensolver: {name: dav,
                niter: 3}
  kpts: [4 4 1]
  mixer: {backend: pulay,
          beta: 0.05,
          method: difference,
          nmaxold: 5,
          weight: 50.0}
  mode: {ecut: 400.0,
         name: pw}
  xc: RPBE

System changes: positions, numbers, cell, pbc, initial_charges, initial_magmoms 

Initialize ...

Pd-setup:
  name: Palladium
  id: 6da19bfba079f22767af9506641940b9
  Z: 46.0
  valence: 16
  core: 30
  charge: 0.0
  file: /groups/kemi/clausen/miniconda3/envs/gpaw22/share/gpaw/Pd.RPBE.gz
  compensation charges: gauss, rc=0.38, lmax=2
  cutoffs: 2.38(filt), 2.28(core),
  valence states:
                energy  radius
    5s(0.00)    -3.225   1.228
    4p(6.00)   -51.131   1.360
    5p(0.00)    -0.373   1.360
    4d(10.00)    -3.964   1.228
    *s          23.987   1.228
    *d          23.247   1.228

  Using partial waves for Pd as LCAO basis

Pt-setup:
  name: Platinum
  id: f04f522592575c47ad794f6b4a415b4b
  Z: 78.0
  valence: 16
  core: 62
  charge: 0.0
  file: /groups/kemi/clausen/miniconda3/envs/gpaw22/share/gpaw/Pt.RPBE.gz
  compensation charges: gauss, rc=0.41, lmax=2
  cutoffs: 2.26(filt), 2.26(core),
  valence states:
                energy  radius
    6s(1.00)    -5.516   1.307
    5p(6.00)   -55.971   1.371
    6p(0.00)    -0.856   1.371
    5d(9.00)    -6.087   1.307
    *s          21.695   1.307
    *d          21.125   1.307

  Using partial waves for Pt as LCAO basis

Ru-setup:
  name: Ruthenium
  id: 76477906e28f51dc1b29884d53556fe9
  Z: 44.0
  valence: 16
  core: 28
  charge: 0.0
  file: /groups/kemi/clausen/miniconda3/envs/gpaw22/share/gpaw/Ru.RPBE.gz
  compensation charges: gauss, rc=0.39, lmax=2
  cutoffs: 2.16(filt), 1.30(core),
  valence states:
                energy  radius
    4s(2.00)   -76.255   1.281
    5s(1.00)    -4.126   1.281
    4p(6.00)   -46.371   1.286
    5p(0.00)    -0.913   1.286
    4d(7.00)    -5.146   1.254
    *d          22.066   1.254

  Using partial waves for Ru as LCAO basis

Ag-setup:
  name: Silver
  id: c05e55bab2c3858b3f9398f6d75cb77c
  Z: 47.0
  valence: 17
  core: 30
  charge: 0.0
  file: /groups/kemi/clausen/miniconda3/envs/gpaw22/share/gpaw/Ag.RPBE.gz
  compensation charges: gauss, rc=0.40, lmax=2
  cutoffs: 2.35(filt), 2.19(core),
  valence states:
                energy  radius
    5s(1.00)    -4.277   1.286
    4p(6.00)   -58.523   1.328
    5p(0.00)    -0.755   1.328
    4d(10.00)    -7.386   1.180
    *s          22.934   1.286
    *d          19.826   1.180

  Using partial waves for Ag as LCAO basis

Ir-setup:
  name: Iridium
  id: 73b603359d1d5397a85ae3c2440f9033
  Z: 77.0
  valence: 15
  core: 62
  charge: 0.0
  file: /groups/kemi/clausen/miniconda3/envs/gpaw22/share/gpaw/Ir.RPBE.gz
  compensation charges: gauss, rc=0.40, lmax=2
  cutoffs: 2.40(filt), 2.36(core),
  valence states:
                energy  radius
    6s(2.00)    -6.219   1.296
    5p(6.00)   -54.684   1.328
    6p(0.00)    -1.215   1.328
    5d(7.00)    -7.118   1.286
    *s          20.992   1.296
    *d          20.093   1.286

  Using partial waves for Ir as LCAO basis

O-setup:
  name: Oxygen
  id: 08071ca1eed670e7821b24b7eb4d558c
  Z: 8.0
  valence: 6
  core: 2
  charge: 0.0
  file: /groups/kemi/clausen/miniconda3/envs/gpaw22/share/gpaw/O.RPBE.gz
  compensation charges: gauss, rc=0.21, lmax=2
  cutoffs: 1.17(filt), 0.83(core),
  valence states:
                energy  radius
    2s(2.00)   -24.041   0.688
    2p(4.00)    -8.984   0.598
    *s           3.170   0.688
    *p          18.228   0.598
    *d           0.000   0.619

  Using partial waves for O as LCAO basis

H-setup:
  name: Hydrogen
  id: ea3f9156a1dc40d47a60fdce8f8bd75d
  Z: 1.0
  valence: 1
  core: 0
  charge: 0.0
  file: /groups/kemi/clausen/miniconda3/envs/gpaw22/share/gpaw/H.RPBE.gz
  compensation charges: gauss, rc=0.15, lmax=2
  cutoffs: 0.85(filt), 0.53(core),
  valence states:
                energy  radius
    1s(1.00)    -6.572   0.476
    *s          20.639   0.476
    *p           0.000   0.476

  Using partial waves for H as LCAO basis

Reference energy: -14174791.127075

Spin-paired calculation

Convergence criteria:
 Maximum [total energy] change in last 3 cyles: 0.0005 eV / electron
 Maximum integral of absolute [dens]ity change: 0.0001 electrons / valence electron
 Maximum integral of absolute [eigenst]ate change: 4e-08 eV^2 / valence electron
 Maximum number of scf [iter]ations: 333
 (Square brackets indicate name in SCF output, whereas a 'c' in
 the SCF output indicates the quantity has converged.)

Symmetries present (total): 1

  ( 1  0  0)
  ( 0  1  0)
  ( 0  0  1)

16 k-points: 4 x 4 x 1 Monkhorst-Pack grid
8 k-points in the irreducible part of the Brillouin zone
       k-points in crystal coordinates                weights
   0:     0.12500000   -0.37500000    0.00000000          2/16
   1:     0.12500000   -0.12500000    0.00000000          2/16
   2:     0.12500000    0.12500000    0.00000000          2/16
   3:     0.12500000    0.37500000    0.00000000          2/16
   4:     0.37500000   -0.37500000    0.00000000          2/16
   5:     0.37500000   -0.12500000    0.00000000          2/16
   6:     0.37500000    0.12500000    0.00000000          2/16
   7:     0.37500000    0.37500000    0.00000000          2/16

Wave functions: Plane wave expansion
  Cutoff energy: 400.000 eV
  Number of coefficients (min, max): 33332, 33436
  Pulay-stress correction: 0.000000 eV/Ang^3 (de/decut=0.000000)
  Using FFTW library
  ScaLapack parameters: grid=3x1, blocksize=64
  Wavefunction extrapolation:
    Improved wavefunction reuse through dual PAW basis 

Occupation numbers: Fermi-Dirac: width=0.1000 eV
 

Eigensolver
   Davidson(niter=3) 

Densities:
  Coarse grid: 40*40*140 grid
  Fine grid: 80*80*280 grid
  Total Charge: 0.000000 

Density mixing:
  Method: separate
  Backend: pulay
  Linear mixing parameter: 0.05
  Mixing with 5 old densities
  Damping of long wave oscillations: 50 

Hamiltonian:
  XC and Coulomb potentials evaluated on a 80*80*280 grid
  Using the RPBE Exchange-Correlation functional
  External potential:
    NoExternalPotential
 

XC parameters: RPBE with 2 nearest neighbor stencil

Memory estimate:
  Process memory now: 194.50 MiB
  Calculator: 561.53 MiB
    Density: 50.45 MiB
      Arrays: 14.92 MiB
      Localized functions: 29.79 MiB
      Mixer: 5.74 MiB
    Hamiltonian: 10.71 MiB
      Arrays: 9.75 MiB
      XC: 0.00 MiB
      Poisson: 0.00 MiB
      vbar: 0.96 MiB
    Wavefunctions: 500.36 MiB
      Arrays psit_nG: 226.53 MiB
      Eigensolver: 259.17 MiB
      Projections: 1.87 MiB
      Projectors: 4.00 MiB
      PW-descriptor: 8.80 MiB

Total number of cores used: 24
Parallelization over k-points: 8
Domain decomposition: 1 x 1 x 3
                      2 x 2 x 6 (xc only)

Number of atoms: 47
Number of atomic orbitals: 547
Number of bands in calculation: 444
Number of valence electrons: 733
Bands to converge: occupied

... initialized

Initializing position-dependent things.

Density initialized from atomic densities
Creating initial wave functions:
  444 bands from LCAO basis set

                                             
                                             
                                             
                                             
                                             
                                             
                            H                
                          O                  
                 Pt     Ag     Pt            
                                             
            Pt    PPd    APd    Pt           
       Pt    IPt    PPt    Pd                
                                             
        Pt     Pd    APd    Pt     Ag        
                                             
                Pt     Pd     Pt             
           Pt    APt    ARu    Pt            
                                             
            Pd    PPt    PAg    Ru           
       Pd     Pt     Pd                      
             Pd     Pd     Pt                
        Pd     Pt     Pt                     
                                             
                                             
                                             
                                             
                                             

Positions:
   0 Pd     0.000000    1.639149   10.000000    ( 0.0000,  0.0000,  0.0000)
   1 Pt     2.839089    1.639149   10.000000    ( 0.0000,  0.0000,  0.0000)
   2 Pt     5.678177    1.639149   10.000000    ( 0.0000,  0.0000,  0.0000)
   3 Pd     1.419544    4.097872   10.000000    ( 0.0000,  0.0000,  0.0000)
   4 Pd     4.258633    4.097872   10.000000    ( 0.0000,  0.0000,  0.0000)
   5 Pt     7.097722    4.097872   10.000000    ( 0.0000,  0.0000,  0.0000)
   6 Pd     2.839089    6.556595   10.000000    ( 0.0000,  0.0000,  0.0000)
   7 Pt     5.678177    6.556595   10.000000    ( 0.0000,  0.0000,  0.0000)
   8 Ru     8.517266    6.556595   10.000000    ( 0.0000,  0.0000,  0.0000)
   9 Pd     0.000000    0.000000   12.317643    ( 0.0000,  0.0000,  0.0000)
  10 Pt     2.839089    0.000000   12.317643    ( 0.0000,  0.0000,  0.0000)
  11 Pd     5.678177    0.000000   12.317643    ( 0.0000,  0.0000,  0.0000)
  12 Pd     1.419544    2.458723   12.317643    ( 0.0000,  0.0000,  0.0000)
  13 Pt     4.258633    2.458723   12.317643    ( 0.0000,  0.0000,  0.0000)
  14 Ag     7.097722    2.458723   12.317643    ( 0.0000,  0.0000,  0.0000)
  15 Ag     2.839089    4.917446   12.317643    ( 0.0000,  0.0000,  0.0000)
  16 Ag     5.678177    4.917446   12.317643    ( 0.0000,  0.0000,  0.0000)
  17 Pt     8.517266    4.917446   12.317643    ( 0.0000,  0.0000,  0.0000)
  18 Pt     1.382601    0.802015   14.574458    ( 0.0000,  0.0000,  0.0000)
  19 Pt     4.320375    0.816336   14.613039    ( 0.0000,  0.0000,  0.0000)
  20 Ru     7.144265    0.918131   14.702206    ( 0.0000,  0.0000,  0.0000)
  21 Pt     2.831254    3.224549   14.674209    ( 0.0000,  0.0000,  0.0000)
  22 Pd     5.669505    3.253449   14.666412    ( 0.0000,  0.0000,  0.0000)
  23 Pt     8.531860    3.282380   14.648110    ( 0.0000,  0.0000,  0.0000)
  24 Ag     4.274318    5.722991   14.646070    ( 0.0000,  0.0000,  0.0000)
  25 Pt     7.164045    5.771726   14.621475    ( 0.0000,  0.0000,  0.0000)
  26 Ag     9.986908    5.738787   14.643456    ( 0.0000,  0.0000,  0.0000)
  27 Pt    -0.010030    1.649760   16.860047    ( 0.0000,  0.0000,  0.0000)
  28 Pd     2.846447    1.596866   16.907942    ( 0.0000,  0.0000,  0.0000)
  29 Pd     5.675289    1.629573   16.927321    ( 0.0000,  0.0000,  0.0000)
  30 Ir     1.434330    4.054121   16.976739    ( 0.0000,  0.0000,  0.0000)
  31 Pt     4.206017    4.046333   16.977057    ( 0.0000,  0.0000,  0.0000)
  32 Pd     7.080668    4.096815   16.929692    ( 0.0000,  0.0000,  0.0000)
  33 Pd     2.838049    6.583929   16.905471    ( 0.0000,  0.0000,  0.0000)
  34 Ag     5.672922    6.523405   16.970943    ( 0.0000,  0.0000,  0.0000)
  35 Pt     8.525101    6.536969   16.950374    ( 0.0000,  0.0000,  0.0000)
  36 Pt    -0.017716    0.053004   19.239954    ( 0.0000,  0.0000,  0.0000)
  37 Pt     2.857597    0.044181   19.266473    ( 0.0000,  0.0000,  0.0000)
  38 Pt     5.659519   -0.012970   19.233800    ( 0.0000,  0.0000,  0.0000)
  39 Pt     1.394642    2.415452   19.172426    ( 0.0000,  0.0000,  0.0000)
  40 Pd     4.249890    2.430035   19.273035    ( 0.0000,  0.0000,  0.0000)
  41 Pd     7.120027    2.427105   19.248801    ( 0.0000,  0.0000,  0.0000)
  42 Pt     2.796750    4.960022   19.159701    ( 0.0000,  0.0000,  0.0000)
  43 Ag     5.679377    4.925181   19.423236    ( 0.0000,  0.0000,  0.0000)
  44 Pt     8.558870    4.929592   19.192007    ( 0.0000,  0.0000,  0.0000)
  45 O      7.120027    2.427105   21.423236    ( 0.0000,  0.0000,  0.0000)
  46 H      7.770027    3.077105   21.823236    ( 0.0000,  0.0000,  0.0000)

Unit cell:
           periodic     x           y           z      points  spacing
  1. axis:    yes    8.517266    0.000000    0.000000    40     0.1844
  2. axis:    yes    4.258633    7.376169    0.000000    40     0.1844
  3. axis:    no     0.000000    0.000000   29.270571   140     0.2091

  Lengths:   8.517266   8.517266  29.270571
  Angles:   90.000000  90.000000  60.000000

Effective grid spacing dv^(1/3) = 0.2017

     iter     time        total  log10-change:
                         energy  eigst   dens
iter:   1 20:22:26  -261.656028
iter:   2 20:23:24  -226.559464  -1.65  -1.20
iter:   3 20:24:22  -262.843149  -2.13  -1.36
iter:   4 20:25:20  -228.376323  -2.33  -1.24
iter:   5 20:26:18  -230.779883  -2.20  -1.38
iter:   6 20:27:17  -211.844591  -2.74  -1.42
iter:   7 20:28:15  -207.043839  -2.95  -1.58
iter:   8 20:29:14  -206.034630  -3.48  -1.73
iter:   9 20:30:14  -209.328316  -2.99  -1.77
iter:  10 20:31:13  -210.053763  -3.73  -1.74
iter:  11 20:32:12  -207.499831  -2.95  -1.72
iter:  12 20:33:11  -205.295062  -3.50  -1.88
iter:  13 20:34:10  -204.710390  -3.43  -2.00
iter:  14 20:35:10  -204.635763  -4.17  -2.19
iter:  15 20:36:09  -204.670152c -4.22  -2.26
iter:  16 20:37:08  -204.555680c -4.24  -2.28
iter:  17 20:38:09  -204.639359c -3.91  -2.36
iter:  18 20:39:07  -205.068356  -4.15  -2.38
iter:  19 20:40:07  -204.352876  -4.11  -2.23
iter:  20 20:41:06  -204.315117  -4.52  -2.74
iter:  21 20:42:06  -204.313358c -5.24  -2.91
iter:  22 20:43:05  -204.308633c -5.23  -2.95
iter:  23 20:44:05  -204.304465c -5.50  -2.98
iter:  24 20:45:04  -204.307310c -5.65  -3.07
iter:  25 20:46:02  -204.302630c -5.31  -3.07
iter:  26 20:47:01  -204.301707c -5.79  -3.43
iter:  27 20:48:00  -204.303151c -5.94  -3.45
iter:  28 20:48:59  -204.301836c -6.66  -3.57
iter:  29 20:49:58  -204.303778c -6.63  -3.63
iter:  30 20:50:57  -204.302509c -7.00  -3.48
iter:  31 20:51:56  -204.302775c -6.98  -3.74
iter:  32 20:52:54  -204.302089c -6.69  -3.82
iter:  33 20:53:53  -204.302448c -7.06  -3.93
iter:  34 20:54:51  -204.302386c -7.13  -4.06c
iter:  35 20:55:50  -204.302215c -7.43c -3.86
iter:  36 20:56:48  -204.301984c -7.71c -4.21c

Converged after 36 iterations.

Dipole moment: (28.471864, 11.148899, -0.261663) |e|*Ang

Energy contributions relative to reference atoms: (reference = -14174791.127075)

Kinetic:       -330.386499
Potential:     +183.919052
External:        +0.000000
XC:             -45.587159
Entropy (-ST):   -2.378995
Local:          -11.057881
--------------------------
Free energy:   -205.491481
Extrapolated:  -204.301984

Showing only first 2 kpts
 Kpt  Band  Eigenvalues  Occupancy
  0   364      0.56179    1.08683
  0   365      0.60380    0.87760
  0   366      0.63578    0.72443
  0   367      0.64928    0.66327

  1   364      0.48568    1.43625
  1   365      0.49110    1.41408
  1   366      0.50268    1.36497
  1   367      0.55432    1.12377


Fermi level: 0.57920

No gap

Forces in eV/Ang:
  0 Pd    0.01126   -0.00966   -0.25435
  1 Pt    0.30412   -0.52575    0.38525
  2 Pt   -0.34137   -0.14301    0.02806
  3 Pd   -0.40789    0.17746   -0.08970
  4 Pd    0.22039   -0.22222   -0.24761
  5 Pt    0.21819    0.31231   -0.18156
  6 Pd   -0.21455    0.23203   -0.10430
  7 Pt    0.55971    0.16454    0.08513
  8 Ru   -0.49603    0.06704    1.33319
  9 Pd   -0.22914    0.16145    0.17046
 10 Pt    0.29268    0.00280   -0.31192
 11 Pd    0.03959    0.04396   -0.06675
 12 Pd    0.08157    0.09426   -0.00516
 13 Pt   -0.18979   -0.18110    0.15592
 14 Ag    0.05099   -0.12771    0.07400
 15 Ag   -0.01072   -0.06693   -0.09976
 16 Ag   -0.05961   -0.05585    0.07766
 17 Pt    0.03178    0.23711   -0.57433
 18 Pt    0.04204    0.02170   -0.00084
 19 Pt   -0.01259    0.00955   -0.02923
 20 Ru    0.00176   -0.04055   -0.07502
 21 Pt    0.03660   -0.01786   -0.01123
 22 Pd    0.05938   -0.02763    0.01176
 23 Pt   -0.02753   -0.05727    0.03823
 24 Ag    0.03259   -0.01344   -0.00859
 25 Pt    0.00036   -0.00217    0.02003
 26 Ag    0.01426    0.02361   -0.04658
 27 Pt   -0.10557    0.13590    0.06811
 28 Pd    0.00880    0.00819   -0.03324
 29 Pd    0.10023    0.04291    0.03882
 30 Ir    0.02384    0.02112   -0.03392
 31 Pt   -0.00659   -0.04039   -0.02607
 32 Pd   -0.00848   -0.08668   -0.04330
 33 Pd   -0.00617   -0.00171   -0.01348
 34 Ag   -0.01506   -0.05028    0.02477
 35 Pt    0.09341   -0.05509   -0.01676
 36 Pt    0.02071   -0.16566   -0.06293
 37 Pt    0.01506   -0.03454   -0.01237
 38 Pt   -0.12313   -0.18687   -0.12280
 39 Pt    0.20546    0.03320   -0.08707
 40 Pd   -0.13981    0.01449   -0.00697
 41 Pd    0.15398    0.15291    1.26329
 42 Pt   -0.05627    0.01785    0.00096
 43 Ag   -0.02639    0.04758    0.12408
 44 Pt    0.06737    0.12408   -0.08274
 45 O     0.12091    0.27904   -0.63482
 46 H    -0.29989   -0.30439   -0.52698

System changes: positions 

Initializing position-dependent things.

Density initialized from wave functions
                                             
                                             
                                             
                                             
                                             
                                             
                            H                
                          O                  
                 Pt     Ag     Pt            
                                             
            Pt    PPd    APd    Pt           
       Pt    IPt    PPt    Pd                
                                             
        Pt     Pd    APd    Pt     Ag        
                                             
                Pt     Pd     Pt             
           Pt    APt    ARu    Pt            
                                             
            Pd    PPt    PAg    Ru           
       Pd     Pt     Pd                      
             Pd     Pd     Pt                
        Pd     Pt     Pt                     
                                             
                                             
                                             
                                             
                                             

Positions:
   0 Pd     0.000000    1.639149   10.000000    ( 0.0000,  0.0000,  0.0000)
   1 Pt     2.839089    1.639149   10.000000    ( 0.0000,  0.0000,  0.0000)
   2 Pt     5.678177    1.639149   10.000000    ( 0.0000,  0.0000,  0.0000)
   3 Pd     1.419544    4.097872   10.000000    ( 0.0000,  0.0000,  0.0000)
   4 Pd     4.258633    4.097872   10.000000    ( 0.0000,  0.0000,  0.0000)
   5 Pt     7.097722    4.097872   10.000000    ( 0.0000,  0.0000,  0.0000)
   6 Pd     2.839089    6.556595   10.000000    ( 0.0000,  0.0000,  0.0000)
   7 Pt     5.678177    6.556595   10.000000    ( 0.0000,  0.0000,  0.0000)
   8 Ru     8.517266    6.556595   10.000000    ( 0.0000,  0.0000,  0.0000)
   9 Pd     0.000000    0.000000   12.317643    ( 0.0000,  0.0000,  0.0000)
  10 Pt     2.839089    0.000000   12.317643    ( 0.0000,  0.0000,  0.0000)
  11 Pd     5.678177    0.000000   12.317643    ( 0.0000,  0.0000,  0.0000)
  12 Pd     1.419544    2.458723   12.317643    ( 0.0000,  0.0000,  0.0000)
  13 Pt     4.258633    2.458723   12.317643    ( 0.0000,  0.0000,  0.0000)
  14 Ag     7.097722    2.458723   12.317643    ( 0.0000,  0.0000,  0.0000)
  15 Ag     2.839089    4.917446   12.317643    ( 0.0000,  0.0000,  0.0000)
  16 Ag     5.678177    4.917446   12.317643    ( 0.0000,  0.0000,  0.0000)
  17 Pt     8.517266    4.917446   12.317643    ( 0.0000,  0.0000,  0.0000)
  18 Pt     1.383201    0.802325   14.574445    ( 0.0000,  0.0000,  0.0000)
  19 Pt     4.320195    0.816472   14.612621    ( 0.0000,  0.0000,  0.0000)
  20 Ru     7.144290    0.917552   14.701134    ( 0.0000,  0.0000,  0.0000)
  21 Pt     2.831777    3.224293   14.674049    ( 0.0000,  0.0000,  0.0000)
  22 Pd     5.670353    3.253054   14.666580    ( 0.0000,  0.0000,  0.0000)
  23 Pt     8.531467    3.281562   14.648657    ( 0.0000,  0.0000,  0.0000)
  24 Ag     4.274784    5.722799   14.645947    ( 0.0000,  0.0000,  0.0000)
  25 Pt     7.164050    5.771695   14.621761    ( 0.0000,  0.0000,  0.0000)
  26 Ag     9.987112    5.739124   14.642790    ( 0.0000,  0.0000,  0.0000)
  27 Pt    -0.011538    1.651701   16.861020    ( 0.0000,  0.0000,  0.0000)
  28 Pd     2.846573    1.596982   16.907467    ( 0.0000,  0.0000,  0.0000)
  29 Pd     5.676721    1.630186   16.927875    ( 0.0000,  0.0000,  0.0000)
  30 Ir     1.434671    4.054422   16.976255    ( 0.0000,  0.0000,  0.0000)
  31 Pt     4.205923    4.045756   16.976685    ( 0.0000,  0.0000,  0.0000)
  32 Pd     7.080547    4.095577   16.929074    ( 0.0000,  0.0000,  0.0000)
  33 Pd     2.837961    6.583905   16.905278    ( 0.0000,  0.0000,  0.0000)
  34 Ag     5.672707    6.522687   16.971296    ( 0.0000,  0.0000,  0.0000)
  35 Pt     8.526435    6.536182   16.950135    ( 0.0000,  0.0000,  0.0000)
  36 Pt    -0.017420    0.050638   19.239055    ( 0.0000,  0.0000,  0.0000)
  37 Pt     2.857812    0.043688   19.266296    ( 0.0000,  0.0000,  0.0000)
  38 Pt     5.657760   -0.015640   19.232046    ( 0.0000,  0.0000,  0.0000)
  39 Pt     1.397577    2.415927   19.171182    ( 0.0000,  0.0000,  0.0000)
  40 Pd     4.247892    2.430242   19.272936    ( 0.0000,  0.0000,  0.0000)
  41 Pd     7.122227    2.429289   19.266848    ( 0.0000,  0.0000,  0.0000)
  42 Pt     2.795946    4.960277   19.159715    ( 0.0000,  0.0000,  0.0000)
  43 Ag     5.679000    4.925861   19.425008    ( 0.0000,  0.0000,  0.0000)
  44 Pt     8.559833    4.931365   19.190825    ( 0.0000,  0.0000,  0.0000)
  45 O      7.121754    2.431091   21.414167    ( 0.0000,  0.0000,  0.0000)
  46 H      7.765743    3.072757   21.815707    ( 0.0000,  0.0000,  0.0000)

Unit cell:
           periodic     x           y           z      points  spacing
  1. axis:    yes    8.517266    0.000000    0.000000    40     0.1844
  2. axis:    yes    4.258633    7.376169    0.000000    40     0.1844
  3. axis:    no     0.000000    0.000000   29.270571   140     0.2091

  Lengths:   8.517266   8.517266  29.270571
  Angles:   90.000000  90.000000  60.000000

Effective grid spacing dv^(1/3) = 0.2017

     iter     time        total  log10-change:
                         energy  eigst   dens
iter:   1 20:58:07  -204.394804  -4.22
iter:   2 20:59:05  -206.350991  -4.27  -2.85
iter:   3 21:00:04  -204.375097  -4.59  -2.07
iter:   4 21:01:02  -204.375057  -5.47  -2.96
iter:   5 21:02:01  -204.340378c -5.77  -2.91
iter:   6 21:02:59  -204.341749c -6.60  -3.59
iter:   7 21:03:58  -204.342339c -6.90  -3.87
iter:   8 21:04:56  -204.343062c -6.60  -3.62
iter:   9 21:05:56  -204.342481c -6.93  -3.65
iter:  10 21:06:54  -204.341373c -7.17  -4.10c
iter:  11 21:07:52  -204.341548c -7.81c -4.14c

Converged after 11 iterations.

Dipole moment: (28.445015, 11.369561, -0.245416) |e|*Ang

Energy contributions relative to reference atoms: (reference = -14174791.127075)

Kinetic:       -331.507589
Potential:     +185.097768
External:        +0.000000
XC:             -45.685064
Entropy (-ST):   -2.376533
Local:          -11.058397
--------------------------
Free energy:   -205.529815
Extrapolated:  -204.341548

Showing only first 2 kpts
 Kpt  Band  Eigenvalues  Occupancy
  0   364      0.56957    1.08493
  0   365      0.61130    0.87711
  0   366      0.64315    0.72454
  0   367      0.65689    0.66235

  1   364      0.49274    1.43761
  1   365      0.49872    1.41314
  1   366      0.50900    1.36962
  1   367      0.56099    1.12737


Fermi level: 0.58660

No gap

Forces in eV/Ang:
  0 Pd    0.01165   -0.00960   -0.25031
  1 Pt    0.30164   -0.52198    0.38521
  2 Pt   -0.33872   -0.14516    0.02718
  3 Pd   -0.40781    0.18117   -0.08415
  4 Pd    0.21610   -0.22014   -0.24086
  5 Pt    0.22450    0.31004   -0.18459
  6 Pd   -0.21425    0.22844   -0.09413
  7 Pt    0.55229    0.16572    0.08730
  8 Ru   -0.49259    0.06506    1.34646
  9 Pd   -0.23159    0.15896    0.17595
 10 Pt    0.28714   -0.00287   -0.30143
 11 Pd    0.04626    0.04318   -0.06715
 12 Pd    0.07985    0.10187   -0.00285
 13 Pt   -0.18865   -0.16667    0.16310
 14 Ag    0.05353   -0.12747    0.06878
 15 Ag   -0.00874   -0.06821   -0.10257
 16 Ag   -0.06334   -0.05704    0.07836
 17 Pt    0.03468    0.22821   -0.56689
 18 Pt    0.02506    0.00954    0.00296
 19 Pt   -0.00259    0.00449   -0.01832
 20 Ru    0.01488   -0.04250   -0.04810
 21 Pt    0.03082   -0.00345   -0.01322
 22 Pd    0.04508   -0.02577    0.01301
 23 Pt   -0.01605   -0.04611    0.02352
 24 Ag    0.03336   -0.00979   -0.00580
 25 Pt    0.00048   -0.00178    0.01869
 26 Ag    0.01122    0.01694   -0.04597
 27 Pt   -0.11496    0.11355    0.07744
 28 Pd    0.01111   -0.00741   -0.04630
 29 Pd    0.10590    0.04680    0.06730
 30 Ir    0.01791    0.00452   -0.04649
 31 Pt    0.01093   -0.03649   -0.02045
 32 Pd   -0.01691   -0.08711   -0.01082
 33 Pd    0.01111    0.01952   -0.02490
 34 Ag   -0.00724   -0.04418    0.01428
 35 Pt    0.05942   -0.03831   -0.04733
 36 Pt    0.01453   -0.13082   -0.08785
 37 Pt    0.00369   -0.02649   -0.01598
 38 Pt   -0.09628   -0.12510   -0.11581
 39 Pt    0.17663    0.00936   -0.11918
 40 Pd   -0.10136    0.00939   -0.03172
 41 Pd    0.12793    0.11216    1.01093
 42 Pt   -0.02248    0.00969    0.00004
 43 Ag   -0.03241    0.03754    0.07252
 44 Pt    0.04040    0.09949   -0.11722
 45 O    -0.14100    0.02858   -0.70899
 46 H    -0.06957   -0.07528   -0.40811

System changes: positions 

Initializing position-dependent things.

Density initialized from wave functions
                                             
                                             
                                             
                                             
                                             
                                             
                            H                
                          O                  
                 Pt     Ag     Pt            
                   Pd     Pd                 
            Pt    Pd     Ag     Pt           
       Pt    IPt    PPt    Pd                
                                             
        Pt     Pd    APd    Pt     Ag        
                       Pd     Pt             
                Pt                           
           Pt    APt    ARu    Pt            
                                             
            Pd    PPt    PAg    Ru           
       Pd     Pt     Pd                      
             Pd     Pd     Pt                
        Pd     Pt     Pt                     
                                             
                                             
                                             
                                             
                                             

Positions:
   0 Pd     0.000000    1.639149   10.000000    ( 0.0000,  0.0000,  0.0000)
   1 Pt     2.839089    1.639149   10.000000    ( 0.0000,  0.0000,  0.0000)
   2 Pt     5.678177    1.639149   10.000000    ( 0.0000,  0.0000,  0.0000)
   3 Pd     1.419544    4.097872   10.000000    ( 0.0000,  0.0000,  0.0000)
   4 Pd     4.258633    4.097872   10.000000    ( 0.0000,  0.0000,  0.0000)
   5 Pt     7.097722    4.097872   10.000000    ( 0.0000,  0.0000,  0.0000)
   6 Pd     2.839089    6.556595   10.000000    ( 0.0000,  0.0000,  0.0000)
   7 Pt     5.678177    6.556595   10.000000    ( 0.0000,  0.0000,  0.0000)
   8 Ru     8.517266    6.556595   10.000000    ( 0.0000,  0.0000,  0.0000)
   9 Pd     0.000000    0.000000   12.317643    ( 0.0000,  0.0000,  0.0000)
  10 Pt     2.839089    0.000000   12.317643    ( 0.0000,  0.0000,  0.0000)
  11 Pd     5.678177    0.000000   12.317643    ( 0.0000,  0.0000,  0.0000)
  12 Pd     1.419544    2.458723   12.317643    ( 0.0000,  0.0000,  0.0000)
  13 Pt     4.258633    2.458723   12.317643    ( 0.0000,  0.0000,  0.0000)
  14 Ag     7.097722    2.458723   12.317643    ( 0.0000,  0.0000,  0.0000)
  15 Ag     2.839089    4.917446   12.317643    ( 0.0000,  0.0000,  0.0000)
  16 Ag     5.678177    4.917446   12.317643    ( 0.0000,  0.0000,  0.0000)
  17 Pt     8.517266    4.917446   12.317643    ( 0.0000,  0.0000,  0.0000)
  18 Pt     1.385756    0.803421   14.574621    ( 0.0000,  0.0000,  0.0000)
  19 Pt     4.319752    0.816974   14.610786    ( 0.0000,  0.0000,  0.0000)
  20 Ru     7.145303    0.913887   14.696354    ( 0.0000,  0.0000,  0.0000)
  21 Pt     2.834591    3.223679   14.672939    ( 0.0000,  0.0000,  0.0000)
  22 Pd     5.674596    3.250765   14.667688    ( 0.0000,  0.0000,  0.0000)
  23 Pt     8.529817    3.277297   14.651028    ( 0.0000,  0.0000,  0.0000)
  24 Ag     4.277677    5.721866   14.645381    ( 0.0000,  0.0000,  0.0000)
  25 Pt     7.164089    5.771531   14.623420    ( 0.0000,  0.0000,  0.0000)
  26 Ag     9.988157    5.740747   14.638768    ( 0.0000,  0.0000,  0.0000)
  27 Pt    -0.021362    1.662092   16.867572    ( 0.0000,  0.0000,  0.0000)
  28 Pd     2.847492    1.596675   16.903712    ( 0.0000,  0.0000,  0.0000)
  29 Pd     5.685836    1.634184   16.933128    ( 0.0000,  0.0000,  0.0000)
  30 Ir     1.436362    4.055177   16.972472    ( 0.0000,  0.0000,  0.0000)
  31 Pt     4.206496    4.042488   16.974778    ( 0.0000,  0.0000,  0.0000)
  32 Pd     7.079254    4.087987   16.927425    ( 0.0000,  0.0000,  0.0000)
  33 Pd     2.838555    6.585147   16.903355    ( 0.0000,  0.0000,  0.0000)
  34 Ag     5.671906    6.518701   16.972770    ( 0.0000,  0.0000,  0.0000)
  35 Pt     8.532357    6.532476   16.946670    ( 0.0000,  0.0000,  0.0000)
  36 Pt    -0.016018    0.038469   19.231933    ( 0.0000,  0.0000,  0.0000)
  37 Pt     2.858381    0.041202   19.264980    ( 0.0000,  0.0000,  0.0000)
  38 Pt     5.648778   -0.027894   19.221792    ( 0.0000,  0.0000,  0.0000)
  39 Pt     1.413611    2.417261   19.161483    ( 0.0000,  0.0000,  0.0000)
  40 Pd     4.238215    2.431171   19.270706    ( 0.0000,  0.0000,  0.0000)
  41 Pd     7.133952    2.439959   19.360515    ( 0.0000,  0.0000,  0.0000)
  42 Pt     2.793251    4.961300   19.159738    ( 0.0000,  0.0000,  0.0000)
  43 Ag     5.676304    4.929354   19.432454    ( 0.0000,  0.0000,  0.0000)
  44 Pt     8.563943    4.940578   19.181348    ( 0.0000,  0.0000,  0.0000)
  45 O      7.115143    2.439025   21.353931    ( 0.0000,  0.0000,  0.0000)
  46 H      7.754671    3.061213   21.777525    ( 0.0000,  0.0000,  0.0000)

Unit cell:
           periodic     x           y           z      points  spacing
  1. axis:    yes    8.517266    0.000000    0.000000    40     0.1844
  2. axis:    yes    4.258633    7.376169    0.000000    40     0.1844
  3. axis:    no     0.000000    0.000000   29.270571   140     0.2091

  Lengths:   8.517266   8.517266  29.270571
  Angles:   90.000000  90.000000  60.000000

Effective grid spacing dv^(1/3) = 0.2017

     iter     time        total  log10-change:
                         energy  eigst   dens
iter:   1 21:09:11  -204.856541  -2.87
iter:   2 21:10:10  -205.937449  -3.50  -2.47
iter:   3 21:11:08  -208.870099  -3.59  -2.20
iter:   4 21:12:06  -204.873263  -3.97  -1.88
iter:   5 21:13:05  -204.486963  -4.73  -2.41
iter:   6 21:14:03  -204.466594  -5.43  -2.97
iter:   7 21:15:02  -204.467094c -5.71  -3.07
iter:   8 21:16:00  -204.508654c -5.09  -3.06
iter:   9 21:16:58  -204.447823c -5.48  -2.75
iter:  10 21:17:57  -204.452594c -5.83  -3.42
iter:  11 21:18:55  -204.444330c -6.09  -3.22
iter:  12 21:19:54  -204.445973c -6.58  -3.62
iter:  13 21:20:52  -204.444912c -6.77  -3.75
iter:  14 21:21:51  -204.444970c -6.63  -3.81
iter:  15 21:22:49  -204.444695c -6.87  -3.69
iter:  16 21:23:48  -204.445001c -6.92  -3.83
iter:  17 21:24:47  -204.445059c -6.96  -3.74
iter:  18 21:25:46  -204.444339c -7.21  -3.79
iter:  19 21:26:44  -204.444781c -7.35  -4.13c
iter:  20 21:27:44  -204.444317c -7.53c -4.10c

Converged after 20 iterations.

Dipole moment: (28.106699, 12.411504, -0.152143) |e|*Ang

Energy contributions relative to reference atoms: (reference = -14174791.127075)

Kinetic:       -327.719710
Potential:     +181.869330
External:        +0.000000
XC:             -46.326744
Entropy (-ST):   -2.365258
Local:          -11.084563
--------------------------
Free energy:   -205.626945
Extrapolated:  -204.444317

Showing only first 2 kpts
 Kpt  Band  Eigenvalues  Occupancy
  0   364      0.61469    1.07993
  0   365      0.65539    0.87723
  0   366      0.68572    0.73169
  0   367      0.70024    0.66569

  1   364      0.53537    1.44358
  1   365      0.54406    1.40804
  1   366      0.54784    1.39215
  1   367      0.60126    1.14618


Fermi level: 0.63071

No gap

Forces in eV/Ang:
  0 Pd    0.01083   -0.00979   -0.25244
  1 Pt    0.29975   -0.52106    0.38173
  2 Pt   -0.33795   -0.14342    0.02577
  3 Pd   -0.40802    0.18031   -0.08155
  4 Pd    0.21573   -0.22037   -0.24113
  5 Pt    0.22449    0.30889   -0.18819
  6 Pd   -0.21304    0.22822   -0.09241
  7 Pt    0.55231    0.16660    0.08475
  8 Ru   -0.49452    0.06535    1.34731
  9 Pd   -0.23307    0.16319    0.18151
 10 Pt    0.28998   -0.00450   -0.30728
 11 Pd    0.05255    0.05135   -0.07436
 12 Pd    0.08069    0.10135   -0.00176
 13 Pt   -0.18508   -0.16571    0.16160
 14 Ag    0.05428   -0.12962    0.06005
 15 Ag   -0.00440   -0.06941   -0.11197
 16 Ag   -0.06101   -0.06047    0.07831
 17 Pt    0.03138    0.22581   -0.56888
 18 Pt    0.01418    0.00041   -0.00438
 19 Pt    0.00362    0.00342   -0.02720
 20 Ru    0.02380   -0.02301   -0.03197
 21 Pt    0.02232    0.00746   -0.02346
 22 Pd    0.01744   -0.02132   -0.01638
 23 Pt    0.01342   -0.01436   -0.01102
 24 Ag    0.02390   -0.01653   -0.00775
 25 Pt    0.00971   -0.00828   -0.00169
 26 Ag    0.01292   -0.00699   -0.03663
 27 Pt   -0.03230    0.04474    0.12112
 28 Pd    0.01614   -0.03043   -0.05071
 29 Pd    0.04652    0.01111    0.12600
 30 Ir    0.03858    0.01683   -0.06238
 31 Pt   -0.02713   -0.00753   -0.01622
 32 Pd    0.00369   -0.03200    0.07931
 33 Pd    0.01057   -0.02365   -0.04023
 34 Ag    0.01901   -0.01854   -0.00648
 35 Pt    0.01396   -0.00634   -0.08553
 36 Pt    0.00583   -0.04686   -0.06143
 37 Pt    0.00098   -0.02687   -0.04558
 38 Pt   -0.04911   -0.05726   -0.07437
 39 Pt    0.09171   -0.00988   -0.05050
 40 Pd   -0.05705    0.01031   -0.01104
 41 Pd    0.16223    0.10547   -0.29921
 42 Pt    0.00257   -0.00023   -0.04340
 43 Ag   -0.00797    0.00944    0.06306
 44 Pt   -0.03365    0.00934   -0.00271
 45 O    -0.31643   -0.11649    0.28978
 46 H     0.10930    0.09411   -0.30069

System changes: positions 

Initializing position-dependent things.

Density initialized from wave functions
                                             
                                             
                                             
                                             
                                             
                                             
                            H                
                          O                  
                 Pt     Ag     Pt            
                   Pd     Pd                 
            Pt    Pd     Ag     Pt           
       Pt    IPt    PPt    Pd                
                                             
        Pt     Pd    APd    Pt     Ag        
                Pt     Pd     Pt             
                                             
           Pt    APt    ARu    Pt            
                                             
            Pd    PPt    PAg    Ru           
       Pd     Pt     Pd                      
             Pd     Pd     Pt                
        Pd     Pt     Pt                     
                                             
                                             
                                             
                                             
                                             

Positions:
   0 Pd     0.000000    1.639149   10.000000    ( 0.0000,  0.0000,  0.0000)
   1 Pt     2.839089    1.639149   10.000000    ( 0.0000,  0.0000,  0.0000)
   2 Pt     5.678177    1.639149   10.000000    ( 0.0000,  0.0000,  0.0000)
   3 Pd     1.419544    4.097872   10.000000    ( 0.0000,  0.0000,  0.0000)
   4 Pd     4.258633    4.097872   10.000000    ( 0.0000,  0.0000,  0.0000)
   5 Pt     7.097722    4.097872   10.000000    ( 0.0000,  0.0000,  0.0000)
   6 Pd     2.839089    6.556595   10.000000    ( 0.0000,  0.0000,  0.0000)
   7 Pt     5.678177    6.556595   10.000000    ( 0.0000,  0.0000,  0.0000)
   8 Ru     8.517266    6.556595   10.000000    ( 0.0000,  0.0000,  0.0000)
   9 Pd     0.000000    0.000000   12.317643    ( 0.0000,  0.0000,  0.0000)
  10 Pt     2.839089    0.000000   12.317643    ( 0.0000,  0.0000,  0.0000)
  11 Pd     5.678177    0.000000   12.317643    ( 0.0000,  0.0000,  0.0000)
  12 Pd     1.419544    2.458723   12.317643    ( 0.0000,  0.0000,  0.0000)
  13 Pt     4.258633    2.458723   12.317643    ( 0.0000,  0.0000,  0.0000)
  14 Ag     7.097722    2.458723   12.317643    ( 0.0000,  0.0000,  0.0000)
  15 Ag     2.839089    4.917446   12.317643    ( 0.0000,  0.0000,  0.0000)
  16 Ag     5.678177    4.917446   12.317643    ( 0.0000,  0.0000,  0.0000)
  17 Pt     8.517266    4.917446   12.317643    ( 0.0000,  0.0000,  0.0000)
  18 Pt     1.385804    0.803375   14.574549    ( 0.0000,  0.0000,  0.0000)
  19 Pt     4.319812    0.816994   14.610536    ( 0.0000,  0.0000,  0.0000)
  20 Ru     7.145528    0.913820   14.696202    ( 0.0000,  0.0000,  0.0000)
  21 Pt     2.834712    3.223793   14.672710    ( 0.0000,  0.0000,  0.0000)
  22 Pd     5.674579    3.250630   14.667409    ( 0.0000,  0.0000,  0.0000)
  23 Pt     8.530074    3.277359   14.650761    ( 0.0000,  0.0000,  0.0000)
  24 Ag     4.277805    5.721707   14.645313    ( 0.0000,  0.0000,  0.0000)
  25 Pt     7.164210    5.771435   14.623299    ( 0.0000,  0.0000,  0.0000)
  26 Ag     9.988262    5.740567   14.638544    ( 0.0000,  0.0000,  0.0000)
  27 Pt    -0.021163    1.662058   16.868708    ( 0.0000,  0.0000,  0.0000)
  28 Pd     2.847639    1.596325   16.903310    ( 0.0000,  0.0000,  0.0000)
  29 Pd     5.685867    1.634077   16.934380    ( 0.0000,  0.0000,  0.0000)
  30 Ir     1.436759    4.055368   16.971922    ( 0.0000,  0.0000,  0.0000)
  31 Pt     4.206092    4.042587   16.974680    ( 0.0000,  0.0000,  0.0000)
  32 Pd     7.079391    4.088042   16.928497    ( 0.0000,  0.0000,  0.0000)
  33 Pd     2.838631    6.584742   16.902973    ( 0.0000,  0.0000,  0.0000)
  34 Ag     5.672187    6.518699   16.972611    ( 0.0000,  0.0000,  0.0000)
  35 Pt     8.532218    6.532599   16.945828    ( 0.0000,  0.0000,  0.0000)
  36 Pt    -0.016021    0.038568   19.231615    ( 0.0000,  0.0000,  0.0000)
  37 Pt     2.858373    0.041000   19.264483    ( 0.0000,  0.0000,  0.0000)
  38 Pt     5.648664   -0.027958   19.221459    ( 0.0000,  0.0000,  0.0000)
  39 Pt     1.413842    2.417085   19.161471    ( 0.0000,  0.0000,  0.0000)
  40 Pd     4.238027    2.431253   19.270733    ( 0.0000,  0.0000,  0.0000)
  41 Pd     7.135343    2.440708   19.351306    ( 0.0000,  0.0000,  0.0000)
  42 Pt     2.793404    4.961245   19.159184    ( 0.0000,  0.0000,  0.0000)
  43 Ag     5.676374    4.929274   19.432872    ( 0.0000,  0.0000,  0.0000)
  44 Pt     8.563297    4.940167   19.181936    ( 0.0000,  0.0000,  0.0000)
  45 O      7.111843    2.437377   21.361403    ( 0.0000,  0.0000,  0.0000)
  46 H      7.756445    3.062823   21.775859    ( 0.0000,  0.0000,  0.0000)

Unit cell:
           periodic     x           y           z      points  spacing
  1. axis:    yes    8.517266    0.000000    0.000000    40     0.1844
  2. axis:    yes    4.258633    7.376169    0.000000    40     0.1844
  3. axis:    no     0.000000    0.000000   29.270571   140     0.2091

  Lengths:   8.517266   8.517266  29.270571
  Angles:   90.000000  90.000000  60.000000

Effective grid spacing dv^(1/3) = 0.2017

     iter     time        total  log10-change:
                         energy  eigst   dens
iter:   1 21:29:03  -204.621852  -4.62
iter:   2 21:30:01  -210.357037  -3.81  -2.60
iter:   3 21:31:00  -204.513140  -3.96  -1.82
iter:   4 21:31:58  -204.528883  -5.14  -2.82
iter:   5 21:32:57  -204.469814c -5.88  -2.77
iter:   6 21:33:56  -204.450376c -6.16  -3.06
iter:   7 21:34:54  -204.451665c -6.81  -3.77
iter:   8 21:35:53  -204.450359c -7.00  -3.81
iter:   9 21:36:52  -204.450918c -7.29  -3.98
iter:  10 21:37:51  -204.450715c -7.16  -3.98
iter:  11 21:38:50  -204.450230c -7.76c -3.83
iter:  12 21:39:48  -204.450401c -7.41c -4.16c

Converged after 12 iterations.

Dipole moment: (28.103505, 12.421614, -0.169665) |e|*Ang

Energy contributions relative to reference atoms: (reference = -14174791.127075)

Kinetic:       -328.345063
Potential:     +182.430235
External:        +0.000000
XC:             -46.222767
Entropy (-ST):   -2.366046
Local:          -11.129783
--------------------------
Free energy:   -205.633424
Extrapolated:  -204.450401

Showing only first 2 kpts
 Kpt  Band  Eigenvalues  Occupancy
  0   364      0.60780    1.07909
  0   365      0.64840    0.87689
  0   366      0.67861    0.73194
  0   367      0.69347    0.66445

  1   364      0.52861    1.44239
  1   365      0.53665    1.40948
  1   366      0.54169    1.38829
  1   367      0.59431    1.14565


Fermi level: 0.62365

No gap

Forces in eV/Ang:
  0 Pd    0.01054   -0.00936   -0.24987
  1 Pt    0.30081   -0.52394    0.38380
  2 Pt   -0.33871   -0.14435    0.02865
  3 Pd   -0.40886    0.18137   -0.07999
  4 Pd    0.21696   -0.22055   -0.23870
  5 Pt    0.22447    0.31038   -0.18398
  6 Pd   -0.21408    0.22846   -0.09143
  7 Pt    0.55494    0.16651    0.08896
  8 Ru   -0.49608    0.06709    1.35287
  9 Pd   -0.23135    0.16267    0.18288
 10 Pt    0.28973   -0.00833   -0.30800
 11 Pd    0.05165    0.05056   -0.07312
 12 Pd    0.07843    0.10328    0.00046
 13 Pt   -0.18260   -0.16438    0.16090
 14 Ag    0.05448   -0.12744    0.06258
 15 Ag   -0.00439   -0.06966   -0.11132
 16 Ag   -0.05956   -0.06082    0.07816
 17 Pt    0.02973    0.22400   -0.56512
 18 Pt    0.00648   -0.00026    0.01273
 19 Pt    0.00778    0.00305   -0.00959
 20 Ru    0.02573   -0.02080   -0.01046
 21 Pt    0.01897    0.00415   -0.01759
 22 Pd    0.02613   -0.02630    0.00229
 23 Pt    0.00743   -0.02186    0.00207
 24 Ag    0.02554   -0.00944   -0.00210
 25 Pt    0.00796   -0.00763    0.00551
 26 Ag    0.01228   -0.00404   -0.03393
 27 Pt   -0.04589    0.04004    0.10807
 28 Pd    0.01725   -0.03150   -0.05156
 29 Pd    0.05667    0.01730    0.11093
 30 Ir    0.02175    0.00597   -0.05653
 31 Pt   -0.00242   -0.01714   -0.01148
 32 Pd   -0.00350   -0.04110    0.06559
 33 Pd    0.01680    0.00246   -0.04079
 34 Ag    0.01448   -0.01793   -0.01013
 35 Pt    0.01287   -0.00373   -0.08443
 36 Pt   -0.00222   -0.03130   -0.04097
 37 Pt   -0.00237   -0.01668   -0.02303
 38 Pt   -0.03721   -0.03478   -0.05120
 39 Pt    0.08259   -0.01431   -0.03565
 40 Pd   -0.04475    0.00504    0.00348
 41 Pd    0.14779    0.08058   -0.00079
 42 Pt    0.00314   -0.00028   -0.01622
 43 Ag   -0.01176    0.00673    0.06883
 44 Pt   -0.02331    0.00402   -0.00315
 45 O    -0.29758   -0.10766    0.25147
 46 H     0.06147    0.04670   -0.29515

System changes: positions 

Initializing position-dependent things.

Density initialized from wave functions
                                             
                                             
                                             
                                             
                                             
                                             
                            H                
                          O                  
                 Pt     Ag     Pt            
                   Pd     Pd                 
            Pt    Pd     Ag     Pt           
       Pt    IPt    PPt    Pd                
                                             
        Pt     Pd    APd    Pt     Ag        
                Pt     Pd     Pt             
                                             
           Pt    APt    ARu    Pt            
                                             
            Pd    PPt    PAg    Ru           
       Pd     Pt     Pd                      
             Pd     Pd     Pt                
        Pd     Pt     Pt                     
                                             
                                             
                                             
                                             
                                             

Positions:
   0 Pd     0.000000    1.639149   10.000000    ( 0.0000,  0.0000,  0.0000)
   1 Pt     2.839089    1.639149   10.000000    ( 0.0000,  0.0000,  0.0000)
   2 Pt     5.678177    1.639149   10.000000    ( 0.0000,  0.0000,  0.0000)
   3 Pd     1.419544    4.097872   10.000000    ( 0.0000,  0.0000,  0.0000)
   4 Pd     4.258633    4.097872   10.000000    ( 0.0000,  0.0000,  0.0000)
   5 Pt     7.097722    4.097872   10.000000    ( 0.0000,  0.0000,  0.0000)
   6 Pd     2.839089    6.556595   10.000000    ( 0.0000,  0.0000,  0.0000)
   7 Pt     5.678177    6.556595   10.000000    ( 0.0000,  0.0000,  0.0000)
   8 Ru     8.517266    6.556595   10.000000    ( 0.0000,  0.0000,  0.0000)
   9 Pd     0.000000    0.000000   12.317643    ( 0.0000,  0.0000,  0.0000)
  10 Pt     2.839089    0.000000   12.317643    ( 0.0000,  0.0000,  0.0000)
  11 Pd     5.678177    0.000000   12.317643    ( 0.0000,  0.0000,  0.0000)
  12 Pd     1.419544    2.458723   12.317643    ( 0.0000,  0.0000,  0.0000)
  13 Pt     4.258633    2.458723   12.317643    ( 0.0000,  0.0000,  0.0000)
  14 Ag     7.097722    2.458723   12.317643    ( 0.0000,  0.0000,  0.0000)
  15 Ag     2.839089    4.917446   12.317643    ( 0.0000,  0.0000,  0.0000)
  16 Ag     5.678177    4.917446   12.317643    ( 0.0000,  0.0000,  0.0000)
  17 Pt     8.517266    4.917446   12.317643    ( 0.0000,  0.0000,  0.0000)
  18 Pt     1.386551    0.803458   14.574824    ( 0.0000,  0.0000,  0.0000)
  19 Pt     4.320114    0.817229   14.609346    ( 0.0000,  0.0000,  0.0000)
  20 Ru     7.147007    0.912446   14.694731    ( 0.0000,  0.0000,  0.0000)
  21 Pt     2.836046    3.224059   14.671445    ( 0.0000,  0.0000,  0.0000)
  22 Pd     5.676069    3.249108   14.667006    ( 0.0000,  0.0000,  0.0000)
  23 Pt     8.530635    3.276120   14.650610    ( 0.0000,  0.0000,  0.0000)
  24 Ag     4.279365    5.720883   14.644996    ( 0.0000,  0.0000,  0.0000)
  25 Pt     7.164758    5.770936   14.623451    ( 0.0000,  0.0000,  0.0000)
  26 Ag     9.989073    5.740277   14.636318    ( 0.0000,  0.0000,  0.0000)
  27 Pt    -0.023634    1.664892   16.875825    ( 0.0000,  0.0000,  0.0000)
  28 Pd     2.848676    1.594479   16.900170    ( 0.0000,  0.0000,  0.0000)
  29 Pd     5.689131    1.634977   16.941612    ( 0.0000,  0.0000,  0.0000)
  30 Ir     1.438656    4.056162   16.968272    ( 0.0000,  0.0000,  0.0000)
  31 Pt     4.205116    4.041754   16.973780    ( 0.0000,  0.0000,  0.0000)
  32 Pd     7.079426    4.085698   16.932792    ( 0.0000,  0.0000,  0.0000)
  33 Pd     2.839398    6.584012   16.900497    ( 0.0000,  0.0000,  0.0000)
  34 Ag     5.673173    6.517501   16.972156    ( 0.0000,  0.0000,  0.0000)
  35 Pt     8.533293    6.532167   16.940683    ( 0.0000,  0.0000,  0.0000)
  36 Pt    -0.015879    0.035878   19.228567    ( 0.0000,  0.0000,  0.0000)
  37 Pt     2.858395    0.039597   19.262399    ( 0.0000,  0.0000,  0.0000)
  38 Pt     5.645778   -0.031231   19.217481    ( 0.0000,  0.0000,  0.0000)
  39 Pt     1.419536    2.416471   19.158948    ( 0.0000,  0.0000,  0.0000)
  40 Pd     4.234584    2.431758   19.270663    ( 0.0000,  0.0000,  0.0000)
  41 Pd     7.145227    2.446778   19.344591    ( 0.0000,  0.0000,  0.0000)
  42 Pt     2.793365    4.961284   19.157381    ( 0.0000,  0.0000,  0.0000)
  43 Ag     5.675771    4.929854   19.437359    ( 0.0000,  0.0000,  0.0000)
  44 Pt     8.561724    4.940774   19.181907    ( 0.0000,  0.0000,  0.0000)
  45 O      7.094234    2.431945   21.378351    ( 0.0000,  0.0000,  0.0000)
  46 H      7.760232    3.065679   21.756314    ( 0.0000,  0.0000,  0.0000)

Unit cell:
           periodic     x           y           z      points  spacing
  1. axis:    yes    8.517266    0.000000    0.000000    40     0.1844
  2. axis:    yes    4.258633    7.376169    0.000000    40     0.1844
  3. axis:    no     0.000000    0.000000   29.270571   140     0.2091

  Lengths:   8.517266   8.517266  29.270571
  Angles:   90.000000  90.000000  60.000000

Effective grid spacing dv^(1/3) = 0.2017

     iter     time        total  log10-change:
                         energy  eigst   dens
iter:   1 21:41:08  -206.833259  -3.80
iter:   2 21:42:08  -267.091613  -2.58  -2.03
iter:   3 21:43:07  -208.290006  -2.93  -1.38
iter:   4 21:44:06  -204.674808  -3.95  -1.99
iter:   5 21:45:05  -204.495138  -4.79  -2.58
iter:   6 21:46:04  -204.483744c -5.27  -3.10
iter:   7 21:47:03  -204.484633c -5.64  -3.06
iter:   8 21:48:02  -204.467403c -5.78  -3.11
iter:   9 21:49:01  -204.468042c -6.28  -3.49
iter:  10 21:50:00  -204.466574c -6.39  -3.49
iter:  11 21:50:58  -204.468957c -6.17  -3.59
iter:  12 21:51:57  -204.465071c -6.68  -3.41
iter:  13 21:52:56  -204.465200c -6.82  -3.96
iter:  14 21:53:55  -204.465316c -7.27  -3.79
iter:  15 21:54:54  -204.465132c -7.33  -3.84
iter:  16 21:56:00  -204.464638c -7.88c -4.17c

Converged after 16 iterations.

Dipole moment: (27.966030, 12.706754, -0.196281) |e|*Ang

Energy contributions relative to reference atoms: (reference = -14174791.127075)

Kinetic:       -327.080308
Potential:     +181.104300
External:        +0.000000
XC:             -46.191137
Entropy (-ST):   -2.367685
Local:          -11.113652
--------------------------
Free energy:   -205.648481
Extrapolated:  -204.464638

Showing only first 2 kpts
 Kpt  Band  Eigenvalues  Occupancy
  0   364      0.59739    1.07530
  0   365      0.63709    0.87756
  0   366      0.66719    0.73304
  0   367      0.68191    0.66613

  1   364      0.51740    1.44255
  1   365      0.52482    1.41224
  1   366      0.53015    1.38984
  1   367      0.58316    1.14554


Fermi level: 0.61248

No gap

Forces in eV/Ang:
  0 Pd    0.01066   -0.00855   -0.24579
  1 Pt    0.29957   -0.52123    0.38876
  2 Pt   -0.33779   -0.13994    0.03190
  3 Pd   -0.40832    0.17879   -0.07219
  4 Pd    0.21869   -0.22124   -0.23405
  5 Pt    0.22213    0.30888   -0.17830
  6 Pd   -0.21263    0.22773   -0.08352
  7 Pt    0.55525    0.16593    0.09633
  8 Ru   -0.49753    0.06611    1.35533
  9 Pd   -0.22435    0.16222    0.18065
 10 Pt    0.28938   -0.01295   -0.31479
 11 Pd    0.04854    0.05003   -0.08294
 12 Pd    0.07974    0.10297   -0.00471
 13 Pt   -0.18273   -0.16281    0.15384
 14 Ag    0.05554   -0.12310    0.05440
 15 Ag   -0.00358   -0.07114   -0.11979
 16 Ag   -0.05646   -0.06106    0.07450
 17 Pt    0.02858    0.22355   -0.56920
 18 Pt   -0.00902    0.00245    0.02821
 19 Pt    0.02038    0.00574    0.00770
 20 Ru    0.03028   -0.00554    0.02465
 21 Pt    0.01171   -0.00158   -0.01761
 22 Pd    0.02439   -0.02642    0.02246
 23 Pt    0.00526   -0.01990    0.02152
 24 Ag    0.02872   -0.00665   -0.00042
 25 Pt    0.00838   -0.01625    0.00292
 26 Ag    0.00839   -0.00573   -0.03499
 27 Pt   -0.00560    0.00636    0.02457
 28 Pd    0.01697   -0.02983   -0.04296
 29 Pd    0.00916    0.00379    0.03911
 30 Ir    0.00272   -0.00122   -0.04175
 31 Pt    0.01913   -0.01954   -0.00690
 32 Pd   -0.00990   -0.00022    0.02669
 33 Pd    0.01970    0.01077   -0.04015
 34 Ag    0.00970   -0.01626   -0.01318
 35 Pt    0.00778   -0.00648   -0.06328
 36 Pt   -0.01769    0.00454   -0.02278
 37 Pt   -0.00034   -0.01181   -0.02746
 38 Pt   -0.00694    0.00201   -0.03872
 39 Pt    0.05002   -0.00855   -0.01548
 40 Pd    0.00024    0.00082    0.00110
 41 Pd    0.05954   -0.00947    0.22118
 42 Pt   -0.00069    0.00173   -0.01305
 43 Ag   -0.01163   -0.01052    0.05716
 44 Pt   -0.00609   -0.00836   -0.01536
 45 O    -0.05535    0.11738   -0.08843
 46 H    -0.08832   -0.09954   -0.31082

System changes: positions 

Initializing position-dependent things.

Density initialized from wave functions
                                             
                                             
                                             
                                             
                                             
                                             
                            H                
                          O                  
                 Pt     Ag     Pt            
                   Pd     Pd                 
            Pt    Pd     Ag     Pt           
       Pt    IPt    PPt    Pd                
                                             
        Pt     Pd    APd    Pt     Ag        
                Pt     Pd     Pt             
                                             
           Pt    APt    ARu    Pt            
                                             
            Pd    PPt    PAg    Ru           
       Pd     Pt     Pd                      
             Pd     Pd     Pt                
        Pd     Pt     Pt                     
                                             
                                             
                                             
                                             
                                             

Positions:
   0 Pd     0.000000    1.639149   10.000000    ( 0.0000,  0.0000,  0.0000)
   1 Pt     2.839089    1.639149   10.000000    ( 0.0000,  0.0000,  0.0000)
   2 Pt     5.678177    1.639149   10.000000    ( 0.0000,  0.0000,  0.0000)
   3 Pd     1.419544    4.097872   10.000000    ( 0.0000,  0.0000,  0.0000)
   4 Pd     4.258633    4.097872   10.000000    ( 0.0000,  0.0000,  0.0000)
   5 Pt     7.097722    4.097872   10.000000    ( 0.0000,  0.0000,  0.0000)
   6 Pd     2.839089    6.556595   10.000000    ( 0.0000,  0.0000,  0.0000)
   7 Pt     5.678177    6.556595   10.000000    ( 0.0000,  0.0000,  0.0000)
   8 Ru     8.517266    6.556595   10.000000    ( 0.0000,  0.0000,  0.0000)
   9 Pd     0.000000    0.000000   12.317643    ( 0.0000,  0.0000,  0.0000)
  10 Pt     2.839089    0.000000   12.317643    ( 0.0000,  0.0000,  0.0000)
  11 Pd     5.678177    0.000000   12.317643    ( 0.0000,  0.0000,  0.0000)
  12 Pd     1.419544    2.458723   12.317643    ( 0.0000,  0.0000,  0.0000)
  13 Pt     4.258633    2.458723   12.317643    ( 0.0000,  0.0000,  0.0000)
  14 Ag     7.097722    2.458723   12.317643    ( 0.0000,  0.0000,  0.0000)
  15 Ag     2.839089    4.917446   12.317643    ( 0.0000,  0.0000,  0.0000)
  16 Ag     5.678177    4.917446   12.317643    ( 0.0000,  0.0000,  0.0000)
  17 Pt     8.517266    4.917446   12.317643    ( 0.0000,  0.0000,  0.0000)
  18 Pt     1.387345    0.803722   14.575264    ( 0.0000,  0.0000,  0.0000)
  19 Pt     4.320562    0.817565   14.608170    ( 0.0000,  0.0000,  0.0000)
  20 Ru     7.148638    0.910917   14.693223    ( 0.0000,  0.0000,  0.0000)
  21 Pt     2.837572    3.224171   14.670042    ( 0.0000,  0.0000,  0.0000)
  22 Pd     5.677924    3.247399   14.667003    ( 0.0000,  0.0000,  0.0000)
  23 Pt     8.530971    3.274488   14.651025    ( 0.0000,  0.0000,  0.0000)
  24 Ag     4.281284    5.719975   14.644609    ( 0.0000,  0.0000,  0.0000)
  25 Pt     7.165306    5.770271   14.623707    ( 0.0000,  0.0000,  0.0000)
  26 Ag     9.989908    5.740155   14.633621    ( 0.0000,  0.0000,  0.0000)
  27 Pt    -0.026439    1.668345   16.881984    ( 0.0000,  0.0000,  0.0000)
  28 Pd     2.849772    1.592705   16.896835    ( 0.0000,  0.0000,  0.0000)
  29 Pd     5.692475    1.636068   16.947977    ( 0.0000,  0.0000,  0.0000)
  30 Ir     1.440450    4.056943   16.964514    ( 0.0000,  0.0000,  0.0000)
  31 Pt     4.204503    4.040564   16.972725    ( 0.0000,  0.0000,  0.0000)
  32 Pd     7.079207    4.083305   16.936063    ( 0.0000,  0.0000,  0.0000)
  33 Pd     2.840238    6.583464   16.897890    ( 0.0000,  0.0000,  0.0000)
  34 Ag     5.673958    6.515862   16.971880    ( 0.0000,  0.0000,  0.0000)
  35 Pt     8.534968    6.531210   16.935684    ( 0.0000,  0.0000,  0.0000)
  36 Pt    -0.015792    0.032290   19.224843    ( 0.0000,  0.0000,  0.0000)
  37 Pt     2.858540    0.037952   19.259965    ( 0.0000,  0.0000,  0.0000)
  38 Pt     5.642348   -0.035375   19.212376    ( 0.0000,  0.0000,  0.0000)
  39 Pt     1.426511    2.416178   19.155444    ( 0.0000,  0.0000,  0.0000)
  40 Pd     4.230831    2.432318   19.270082    ( 0.0000,  0.0000,  0.0000)
  41 Pd     7.154567    2.452395   19.352238    ( 0.0000,  0.0000,  0.0000)
  42 Pt     2.792942    4.961484   19.155507    ( 0.0000,  0.0000,  0.0000)
  43 Ag     5.674858    4.930554   19.442257    ( 0.0000,  0.0000,  0.0000)
  44 Pt     8.560988    4.942368   19.180301    ( 0.0000,  0.0000,  0.0000)
  45 O      7.080679    2.431671   21.379898    ( 0.0000,  0.0000,  0.0000)
  46 H      7.760258    3.064822   21.732484    ( 0.0000,  0.0000,  0.0000)

Unit cell:
           periodic     x           y           z      points  spacing
  1. axis:    yes    8.517266    0.000000    0.000000    40     0.1844
  2. axis:    yes    4.258633    7.376169    0.000000    40     0.1844
  3. axis:    no     0.000000    0.000000   29.270571   140     0.2091

  Lengths:   8.517266   8.517266  29.270571
  Angles:   90.000000  90.000000  60.000000

Effective grid spacing dv^(1/3) = 0.2017

     iter     time        total  log10-change:
                         energy  eigst   dens
iter:   1 21:57:32  -204.586968  -4.07
iter:   2 21:58:40  -206.768218  -4.10  -2.72
iter:   3 21:59:49  -204.755262  -4.20  -2.01
iter:   4 22:00:58  -204.485852  -5.08  -2.46
iter:   5 22:02:08  -204.481478c -6.28  -3.30
iter:   6 22:03:17  -204.476938c -6.62  -3.28
iter:   7 22:04:26  -204.476757c -6.89  -3.66
iter:   8 22:05:36  -204.476141c -6.41  -3.77
iter:   9 22:06:46  -204.476615c -6.85  -3.80
iter:  10 22:07:56  -204.476080c -7.23  -3.95
iter:  11 22:09:05  -204.476009c -7.62c -3.91
iter:  12 22:10:14  -204.476040c -7.65c -4.07c

Converged after 12 iterations.

Dipole moment: (27.829587, 13.068916, -0.205767) |e|*Ang

Energy contributions relative to reference atoms: (reference = -14174791.127075)

Kinetic:       -328.103704
Potential:     +182.110740
External:        +0.000000
XC:             -46.212247
Entropy (-ST):   -2.366171
Local:          -11.087744
--------------------------
Free energy:   -205.659125
Extrapolated:  -204.476040

Showing only first 2 kpts
 Kpt  Band  Eigenvalues  Occupancy
  0   364      0.59582    1.07090
  0   365      0.63478    0.87687
  0   366      0.66409    0.73608
  0   367      0.67982    0.66452

  1   364      0.51501    1.44227
  1   365      0.52188    1.41426
  1   366      0.52764    1.39009
  1   367      0.58011    1.14849


Fermi level: 0.61003

No gap

Forces in eV/Ang:
  0 Pd    0.01139   -0.00899   -0.24628
  1 Pt    0.30086   -0.52508    0.39046
  2 Pt   -0.34017   -0.14114    0.03260
  3 Pd   -0.41005    0.17983   -0.07457
  4 Pd    0.21986   -0.22249   -0.23415
  5 Pt    0.22266    0.31096   -0.17568
  6 Pd   -0.21360    0.22906   -0.08730
  7 Pt    0.55872    0.16806    0.10013
  8 Ru   -0.49932    0.06889    1.36343
  9 Pd   -0.21870    0.16193    0.18486
 10 Pt    0.28833   -0.01877   -0.31966
 11 Pd    0.04945    0.05558   -0.08658
 12 Pd    0.07829    0.10323   -0.00422
 13 Pt   -0.17768   -0.16219    0.14969
 14 Ag    0.05580   -0.12038    0.05518
 15 Ag    0.00029   -0.07254   -0.12940
 16 Ag   -0.05145   -0.06237    0.07288
 17 Pt    0.02081    0.21891   -0.57077
 18 Pt   -0.02784   -0.00079    0.05178
 19 Pt    0.03251    0.00991    0.02889
 20 Ru    0.03393    0.01023    0.06136
 21 Pt    0.00607   -0.01084   -0.01695
 22 Pd    0.02876   -0.03078    0.04129
 23 Pt   -0.00224   -0.02379    0.03009
 24 Ag    0.03335    0.00122    0.00451
 25 Pt    0.00107   -0.02301    0.00323
 26 Ag    0.00891   -0.00522   -0.03121
 27 Pt    0.01335   -0.03077   -0.02924
 28 Pd    0.02014   -0.04070   -0.06049
 29 Pd   -0.01318   -0.00251   -0.01244
 30 Ir   -0.01799   -0.01317   -0.03460
 31 Pt    0.05070   -0.01851   -0.00662
 32 Pd   -0.02111    0.01707    0.01351
 33 Pd    0.03207    0.03194   -0.05730
 34 Ag    0.00728   -0.01128   -0.03393
 35 Pt   -0.00996    0.00543   -0.07022
 36 Pt   -0.03205    0.05660    0.02302
 37 Pt   -0.00610    0.00030    0.01017
 38 Pt    0.03124    0.05909    0.01195
 39 Pt   -0.00403   -0.01521    0.02926
 40 Pd    0.04310   -0.01183    0.01151
 41 Pd    0.00534   -0.09968    0.08872
 42 Pt    0.00145   -0.00072    0.02525
 43 Ag   -0.01526   -0.01516    0.04828
 44 Pt    0.00024   -0.04178    0.00120
 45 O    -0.01637    0.13018   -0.07900
 46 H    -0.08774   -0.10106   -0.23197

System changes: positions 

Initializing position-dependent things.

Density initialized from wave functions
                                             
                                             
                                             
                                             
                                             
                                             
                            H                
                          O                  
                 Pt     Ag     Pt            
                   Pd     Pd                 
            Pt    Pd     Ag     Pt           
       Pt    IPt    PPt    Pd                
                                             
        Pt     Pd    APd    Pt     Ag        
                Pt     Pd     Pt             
                                             
           Pt    APt    ARu    Pt            
                                             
            Pd    PPt    PAg    Ru           
       Pd     Pt     Pd                      
             Pd     Pd     Pt                
        Pd     Pt     Pt                     
                                             
                                             
                                             
                                             
                                             

Positions:
   0 Pd     0.000000    1.639149   10.000000    ( 0.0000,  0.0000,  0.0000)
   1 Pt     2.839089    1.639149   10.000000    ( 0.0000,  0.0000,  0.0000)
   2 Pt     5.678177    1.639149   10.000000    ( 0.0000,  0.0000,  0.0000)
   3 Pd     1.419544    4.097872   10.000000    ( 0.0000,  0.0000,  0.0000)
   4 Pd     4.258633    4.097872   10.000000    ( 0.0000,  0.0000,  0.0000)
   5 Pt     7.097722    4.097872   10.000000    ( 0.0000,  0.0000,  0.0000)
   6 Pd     2.839089    6.556595   10.000000    ( 0.0000,  0.0000,  0.0000)
   7 Pt     5.678177    6.556595   10.000000    ( 0.0000,  0.0000,  0.0000)
   8 Ru     8.517266    6.556595   10.000000    ( 0.0000,  0.0000,  0.0000)
   9 Pd     0.000000    0.000000   12.317643    ( 0.0000,  0.0000,  0.0000)
  10 Pt     2.839089    0.000000   12.317643    ( 0.0000,  0.0000,  0.0000)
  11 Pd     5.678177    0.000000   12.317643    ( 0.0000,  0.0000,  0.0000)
  12 Pd     1.419544    2.458723   12.317643    ( 0.0000,  0.0000,  0.0000)
  13 Pt     4.258633    2.458723   12.317643    ( 0.0000,  0.0000,  0.0000)
  14 Ag     7.097722    2.458723   12.317643    ( 0.0000,  0.0000,  0.0000)
  15 Ag     2.839089    4.917446   12.317643    ( 0.0000,  0.0000,  0.0000)
  16 Ag     5.678177    4.917446   12.317643    ( 0.0000,  0.0000,  0.0000)
  17 Pt     8.517266    4.917446   12.317643    ( 0.0000,  0.0000,  0.0000)
  18 Pt     1.387449    0.803907   14.576640    ( 0.0000,  0.0000,  0.0000)
  19 Pt     4.321558    0.818048   14.607761    ( 0.0000,  0.0000,  0.0000)
  20 Ru     7.150616    0.909863   14.693148    ( 0.0000,  0.0000,  0.0000)
  21 Pt     2.838957    3.224024   14.668558    ( 0.0000,  0.0000,  0.0000)
  22 Pd     5.680025    3.245396   14.667791    ( 0.0000,  0.0000,  0.0000)
  23 Pt     8.531158    3.272657   14.651908    ( 0.0000,  0.0000,  0.0000)
  24 Ag     4.283520    5.719269   14.644380    ( 0.0000,  0.0000,  0.0000)
  25 Pt     7.165727    5.769280   14.623985    ( 0.0000,  0.0000,  0.0000)
  26 Ag     9.990781    5.739980   14.630812    ( 0.0000,  0.0000,  0.0000)
  27 Pt    -0.028564    1.670590   16.886461    ( 0.0000,  0.0000,  0.0000)
  28 Pd     2.851067    1.590427   16.892809    ( 0.0000,  0.0000,  0.0000)
  29 Pd     5.695036    1.636946   16.952911    ( 0.0000,  0.0000,  0.0000)
  30 Ir     1.441568    4.057314   16.960747    ( 0.0000,  0.0000,  0.0000)
  31 Pt     4.205029    4.039253   16.971693    ( 0.0000,  0.0000,  0.0000)
  32 Pd     7.078582    4.081595   16.939021    ( 0.0000,  0.0000,  0.0000)
  33 Pd     2.841583    6.583669   16.894565    ( 0.0000,  0.0000,  0.0000)
  34 Ag     5.674733    6.514291   16.970929    ( 0.0000,  0.0000,  0.0000)
  35 Pt     8.536120    6.530560   16.930153    ( 0.0000,  0.0000,  0.0000)
  36 Pt    -0.016322    0.030448   19.222309    ( 0.0000,  0.0000,  0.0000)
  37 Pt     2.858516    0.036620   19.258341    ( 0.0000,  0.0000,  0.0000)
  38 Pt     5.640147   -0.037605   19.208521    ( 0.0000,  0.0000,  0.0000)
  39 Pt     1.432094    2.415623   19.153166    ( 0.0000,  0.0000,  0.0000)
  40 Pd     4.228571    2.432511   19.269803    ( 0.0000,  0.0000,  0.0000)
  41 Pd     7.162343    2.454985   19.358955    ( 0.0000,  0.0000,  0.0000)
  42 Pt     2.792622    4.961624   19.154606    ( 0.0000,  0.0000,  0.0000)
  43 Ag     5.673778    4.930917   19.447169    ( 0.0000,  0.0000,  0.0000)
  44 Pt     8.560407    4.942850   19.178999    ( 0.0000,  0.0000,  0.0000)
  45 O      7.068690    2.433309   21.379820    ( 0.0000,  0.0000,  0.0000)
  46 H      7.759161    3.062729   21.708861    ( 0.0000,  0.0000,  0.0000)

Unit cell:
           periodic     x           y           z      points  spacing
  1. axis:    yes    8.517266    0.000000    0.000000    40     0.1844
  2. axis:    yes    4.258633    7.376169    0.000000    40     0.1844
  3. axis:    no     0.000000    0.000000   29.270571   140     0.2091

  Lengths:   8.517266   8.517266  29.270571
  Angles:   90.000000  90.000000  60.000000

Effective grid spacing dv^(1/3) = 0.2017

     iter     time        total  log10-change:
                         energy  eigst   dens
iter:   1 22:11:47  -205.386934  -4.13
iter:   2 22:12:56  -235.414753  -2.97  -2.22
iter:   3 22:14:06  -206.017267  -3.29  -1.53
iter:   4 22:15:16  -204.593588  -4.35  -2.16
iter:   5 22:16:25  -204.492739  -5.23  -2.70
iter:   6 22:17:35  -204.486148c -5.72  -3.33
iter:   7 22:18:45  -204.487208c -6.11  -3.56
iter:   8 22:19:54  -204.483635c -6.13  -3.45
iter:   9 22:21:02  -204.482481c -6.41  -3.80
iter:  10 22:22:10  -204.483906c -6.72  -3.95
iter:  11 22:23:18  -204.483324c -6.92  -3.85
iter:  12 22:24:27  -204.482711c -7.21  -3.79
iter:  13 22:25:35  -204.482349c -7.39  -4.06c
iter:  14 22:26:43  -204.482816c -7.45c -4.24c

Converged after 14 iterations.

Dipole moment: (27.735920, 13.271190, -0.210508) |e|*Ang

Energy contributions relative to reference atoms: (reference = -14174791.127075)

Kinetic:       -327.312717
Potential:     +181.409862
External:        +0.000000
XC:             -46.306894
Entropy (-ST):   -2.364924
Local:          -11.090605
--------------------------
Free energy:   -205.665278
Extrapolated:  -204.482816

Showing only first 2 kpts
 Kpt  Band  Eigenvalues  Occupancy
  0   364      0.59488    1.06852
  0   365      0.63346    0.87636
  0   366      0.66238    0.73742
  0   367      0.67869    0.66325

  1   364      0.51387    1.44118
  1   365      0.51994    1.41642
  1   366      0.52599    1.39110
  1   367      0.57835    1.15015


Fermi level: 0.60861

No gap

Forces in eV/Ang:
  0 Pd    0.01055   -0.00807   -0.24546
  1 Pt    0.30035   -0.52529    0.38694
  2 Pt   -0.33928   -0.14255    0.03043
  3 Pd   -0.40967    0.18201   -0.07457
  4 Pd    0.21879   -0.22154   -0.23351
  5 Pt    0.22369    0.31122   -0.17681
  6 Pd   -0.21560    0.22781   -0.08690
  7 Pt    0.55997    0.16843    0.09848
  8 Ru   -0.49866    0.06952    1.36142
  9 Pd   -0.21847    0.16165    0.19444
 10 Pt    0.28784   -0.01952   -0.31126
 11 Pd    0.05358    0.05505   -0.08311
 12 Pd    0.07761    0.10213    0.00114
 13 Pt   -0.17507   -0.16081    0.15502
 14 Ag    0.05745   -0.12194    0.05654
 15 Ag    0.00365   -0.07059   -0.12782
 16 Ag   -0.05252   -0.06430    0.07698
 17 Pt    0.02297    0.21609   -0.56416
 18 Pt   -0.01955   -0.00415    0.03098
 19 Pt    0.03280   -0.00030    0.01892
 20 Ru    0.02362    0.00537    0.05111
 21 Pt    0.00283    0.00150   -0.01526
 22 Pd    0.02250   -0.02460    0.03672
 23 Pt    0.00642   -0.00375    0.02671
 24 Ag    0.02008   -0.00852   -0.00452
 25 Pt    0.00957   -0.02327   -0.00641
 26 Ag    0.01436   -0.01165   -0.02745
 27 Pt    0.03811   -0.03225   -0.01973
 28 Pd    0.01841   -0.02701   -0.03282
 29 Pd   -0.03273   -0.01221   -0.02293
 30 Ir   -0.00695   -0.00858   -0.01327
 31 Pt    0.03135   -0.01257    0.00750
 32 Pd   -0.01224    0.02783    0.02443
 33 Pd    0.01776    0.00748   -0.03993
 34 Ag    0.00714   -0.01067   -0.01300
 35 Pt   -0.00091   -0.00411   -0.03722
 36 Pt   -0.02507    0.04688    0.00911
 37 Pt    0.00073   -0.00556   -0.00976
 38 Pt    0.03029    0.04992    0.00750
 39 Pt    0.00263   -0.01029    0.00474
 40 Pd    0.04789   -0.00725    0.00409
 41 Pd   -0.04203   -0.11808    0.01130
 42 Pt    0.00342   -0.00178   -0.00418
 43 Ag   -0.01469   -0.01754    0.02715
 44 Pt    0.00451   -0.02518   -0.02441
 45 O    -0.09404    0.06305   -0.10639
 46 H    -0.01553   -0.03306   -0.09003

System changes: positions 

Initializing position-dependent things.

Density initialized from wave functions
                                             
                                             
                                             
                                             
                                             
                                             
                            H                
                          O                  
                 Pt     Ag     Pt            
                   Pd     Pd                 
            Pt    Pd     Ag     Pt           
       Pt    IPt    PPt    Pd                
                                             
        Pt     Pd    APd    Pt     Ag        
                Pt     Pd     Pt             
                                             
           Pt    APt    ARu    Pt            
                                             
            Pd    PPt    PAg    Ru           
       Pd     Pt     Pd                      
             Pd     Pd     Pt                
        Pd     Pt     Pt                     
                                             
                                             
                                             
                                             
                                             

Positions:
   0 Pd     0.000000    1.639149   10.000000    ( 0.0000,  0.0000,  0.0000)
   1 Pt     2.839089    1.639149   10.000000    ( 0.0000,  0.0000,  0.0000)
   2 Pt     5.678177    1.639149   10.000000    ( 0.0000,  0.0000,  0.0000)
   3 Pd     1.419544    4.097872   10.000000    ( 0.0000,  0.0000,  0.0000)
   4 Pd     4.258633    4.097872   10.000000    ( 0.0000,  0.0000,  0.0000)
   5 Pt     7.097722    4.097872   10.000000    ( 0.0000,  0.0000,  0.0000)
   6 Pd     2.839089    6.556595   10.000000    ( 0.0000,  0.0000,  0.0000)
   7 Pt     5.678177    6.556595   10.000000    ( 0.0000,  0.0000,  0.0000)
   8 Ru     8.517266    6.556595   10.000000    ( 0.0000,  0.0000,  0.0000)
   9 Pd     0.000000    0.000000   12.317643    ( 0.0000,  0.0000,  0.0000)
  10 Pt     2.839089    0.000000   12.317643    ( 0.0000,  0.0000,  0.0000)
  11 Pd     5.678177    0.000000   12.317643    ( 0.0000,  0.0000,  0.0000)
  12 Pd     1.419544    2.458723   12.317643    ( 0.0000,  0.0000,  0.0000)
  13 Pt     4.258633    2.458723   12.317643    ( 0.0000,  0.0000,  0.0000)
  14 Ag     7.097722    2.458723   12.317643    ( 0.0000,  0.0000,  0.0000)
  15 Ag     2.839089    4.917446   12.317643    ( 0.0000,  0.0000,  0.0000)
  16 Ag     5.678177    4.917446   12.317643    ( 0.0000,  0.0000,  0.0000)
  17 Pt     8.517266    4.917446   12.317643    ( 0.0000,  0.0000,  0.0000)
  18 Pt     1.387335    0.803982   14.578088    ( 0.0000,  0.0000,  0.0000)
  19 Pt     4.322911    0.818359   14.607599    ( 0.0000,  0.0000,  0.0000)
  20 Ru     7.152555    0.909001   14.693753    ( 0.0000,  0.0000,  0.0000)
  21 Pt     2.840156    3.224028   14.667073    ( 0.0000,  0.0000,  0.0000)
  22 Pd     5.682125    3.243362   14.668994    ( 0.0000,  0.0000,  0.0000)
  23 Pt     8.531491    3.271222   14.653070    ( 0.0000,  0.0000,  0.0000)
  24 Ag     4.285607    5.718432   14.644021    ( 0.0000,  0.0000,  0.0000)
  25 Pt     7.166322    5.768068   14.624029    ( 0.0000,  0.0000,  0.0000)
  26 Ag     9.991807    5.739592   14.628023    ( 0.0000,  0.0000,  0.0000)
  27 Pt    -0.029523    1.672015   16.890045    ( 0.0000,  0.0000,  0.0000)
  28 Pd     2.852439    1.588220   16.889162    ( 0.0000,  0.0000,  0.0000)
  29 Pd     5.696505    1.637402   16.956614    ( 0.0000,  0.0000,  0.0000)
  30 Ir     1.442526    4.057560   16.957557    ( 0.0000,  0.0000,  0.0000)
  31 Pt     4.205756    4.037988   16.971066    ( 0.0000,  0.0000,  0.0000)
  32 Pd     7.077956    4.080683   16.941984    ( 0.0000,  0.0000,  0.0000)
  33 Pd     2.842844    6.583696   16.891298    ( 0.0000,  0.0000,  0.0000)
  34 Ag     5.675493    6.512781   16.970142    ( 0.0000,  0.0000,  0.0000)
  35 Pt     8.537223    6.529823   16.925228    ( 0.0000,  0.0000,  0.0000)
  36 Pt    -0.017091    0.029467   19.220176    ( 0.0000,  0.0000,  0.0000)
  37 Pt     2.858590    0.035329   19.256601    ( 0.0000,  0.0000,  0.0000)
  38 Pt     5.638699   -0.038894   19.205290    ( 0.0000,  0.0000,  0.0000)
  39 Pt     1.437005    2.415070   19.151085    ( 0.0000,  0.0000,  0.0000)
  40 Pd     4.227395    2.432615   19.269583    ( 0.0000,  0.0000,  0.0000)
  41 Pd     7.167866    2.455211   19.364593    ( 0.0000,  0.0000,  0.0000)
  42 Pt     2.792380    4.961717   19.153476    ( 0.0000,  0.0000,  0.0000)
  43 Ag     5.672639    4.930936   19.451636    ( 0.0000,  0.0000,  0.0000)
  44 Pt     8.560064    4.943071   19.177281    ( 0.0000,  0.0000,  0.0000)
  45 O      7.056596    2.435386   21.377780    ( 0.0000,  0.0000,  0.0000)
  46 H      7.758369    3.060776   21.688546    ( 0.0000,  0.0000,  0.0000)

Unit cell:
           periodic     x           y           z      points  spacing
  1. axis:    yes    8.517266    0.000000    0.000000    40     0.1844
  2. axis:    yes    4.258633    7.376169    0.000000    40     0.1844
  3. axis:    no     0.000000    0.000000   29.270571   140     0.2091

  Lengths:   8.517266   8.517266  29.270571
  Angles:   90.000000  90.000000  60.000000

Effective grid spacing dv^(1/3) = 0.2017

     iter     time        total  log10-change:
                         energy  eigst   dens
iter:   1 22:28:16  -207.802566  -3.98
iter:   2 22:29:25  -287.948069  -2.39  -1.95
iter:   3 22:30:34  -211.880537  -2.81  -1.32
iter:   4 22:31:44  -205.355436  -3.67  -1.89
iter:   5 22:32:54  -204.552389  -4.55  -2.26
iter:   6 22:34:01  -204.503019  -5.08  -2.94
iter:   7 22:35:10  -204.504924c -5.44  -3.27
iter:   8 22:36:18  -204.489073c -5.71  -3.12
iter:   9 22:37:26  -204.489843c -6.10  -3.48
iter:  10 22:38:34  -204.487832c -6.21  -3.57
iter:  11 22:39:42  -204.487750c -6.47  -3.74
iter:  12 22:40:50  -204.486733c -6.42  -3.65
iter:  13 22:41:58  -204.487025c -6.94  -3.81
iter:  14 22:43:06  -204.486236c -7.27  -3.77
iter:  15 22:44:14  -204.486139c -7.60c -3.90
iter:  16 22:45:23  -204.485878c -7.65c -4.08c

Converged after 16 iterations.

Dipole moment: (27.664295, 13.384723, -0.213053) |e|*Ang

Energy contributions relative to reference atoms: (reference = -14174791.127075)

Kinetic:       -325.242610
Potential:     +179.513842
External:        +0.000000
XC:             -46.484217
Entropy (-ST):   -2.364379
Local:          -11.090704
--------------------------
Free energy:   -205.668067
Extrapolated:  -204.485878

Showing only first 2 kpts
 Kpt  Band  Eigenvalues  Occupancy
  0   364      0.59643    1.06748
  0   365      0.63500    0.87538
  0   366      0.66364    0.73779
  0   367      0.68005    0.66316

  1   364      0.51534    1.44064
  1   365      0.52072    1.41868
  1   366      0.52677    1.39346
  1   367      0.57962    1.15048


Fermi level: 0.60994

No gap

Forces in eV/Ang:
  0 Pd    0.01083   -0.00724   -0.23454
  1 Pt    0.29934   -0.52690    0.40119
  2 Pt   -0.33924   -0.13943    0.04480
  3 Pd   -0.41168    0.17939   -0.06046
  4 Pd    0.22254   -0.22221   -0.22324
  5 Pt    0.22102    0.31291   -0.16221
  6 Pd   -0.21413    0.22908   -0.07299
  7 Pt    0.56243    0.16616    0.11276
  8 Ru   -0.50332    0.06948    1.37459
  9 Pd   -0.21261    0.16821    0.19725
 10 Pt    0.28914   -0.01802   -0.30750
 11 Pd    0.04932    0.06078   -0.08998
 12 Pd    0.07708    0.09516    0.00321
 13 Pt   -0.17404   -0.16714    0.15564
 14 Ag    0.05988   -0.12282    0.05812
 15 Ag    0.00583   -0.07236   -0.13497
 16 Ag   -0.04665   -0.06639    0.07475
 17 Pt    0.01778    0.21433   -0.56662
 18 Pt   -0.01085   -0.00536    0.01206
 19 Pt    0.02529   -0.00423    0.00885
 20 Ru    0.01710    0.01139    0.04724
 21 Pt   -0.00055   -0.00458   -0.00865
 22 Pd    0.01378   -0.01633    0.03162
 23 Pt    0.00944    0.00616    0.02430
 24 Ag    0.01578   -0.01187   -0.00637
 25 Pt    0.01262   -0.01862   -0.01136
 26 Ag    0.01186   -0.01472   -0.01868
 27 Pt    0.05344   -0.03603   -0.03247
 28 Pd    0.01260   -0.01182   -0.01151
 29 Pd   -0.04290   -0.01796   -0.04834
 30 Ir   -0.00358   -0.01086   -0.00497
 31 Pt    0.01976   -0.00848    0.00772
 32 Pd   -0.00383    0.03458    0.01324
 33 Pd    0.00877   -0.00345   -0.02104
 34 Ag    0.00611   -0.00720   -0.00252
 35 Pt    0.00106   -0.00875   -0.01391
 36 Pt   -0.01662    0.04310    0.01063
 37 Pt    0.00182   -0.00631   -0.01539
 38 Pt    0.03714    0.04154    0.01553
 39 Pt   -0.00826   -0.00490    0.00418
 40 Pd    0.05260   -0.00892    0.00558
 41 Pd   -0.08098   -0.12782   -0.10106
 42 Pt    0.00065    0.00070   -0.01383
 43 Ag   -0.00835   -0.01671    0.01674
 44 Pt    0.00937   -0.02043   -0.02309
 45 O    -0.06141    0.10249   -0.11854
 46 H    -0.00502   -0.02245   -0.03309

System changes: positions 

Initializing position-dependent things.

Density initialized from wave functions
                                             
                                             
                                             
                                             
                                             
                                             
                            H                
                          O                  
                 Pt     Ag     Pt            
                   Pd    APd                 
            Pt    Pd            Pt           
       Pt    IPt    PPt    Pd                
                                             
        Pt     Pd    APd    Pt     Ag        
                Pt     Pd     Pt             
[...]
  20 Ru     7.174945    0.894352   14.680119    ( 0.0000,  0.0000,  0.0000)
  21 Pt     2.855984    3.209926   14.663916    ( 0.0000,  0.0000,  0.0000)
  22 Pd     5.697438    3.233209   14.662130    ( 0.0000,  0.0000,  0.0000)
  23 Pt     8.549376    3.264105   14.651404    ( 0.0000,  0.0000,  0.0000)
  24 Ag     4.301830    5.702946   14.644483    ( 0.0000,  0.0000,  0.0000)
  25 Pt     7.181434    5.752744   14.627403    ( 0.0000,  0.0000,  0.0000)
  26 Ag    10.010919    5.729299   14.625863    ( 0.0000,  0.0000,  0.0000)
  27 Pt    -0.013287    1.646701   16.875204    ( 0.0000,  0.0000,  0.0000)
  28 Pd     2.865442    1.565552   16.880822    ( 0.0000,  0.0000,  0.0000)
  29 Pd     5.704096    1.603988   16.918267    ( 0.0000,  0.0000,  0.0000)
  30 Ir     1.460568    4.039842   16.947620    ( 0.0000,  0.0000,  0.0000)
  31 Pt     4.227263    4.018891   16.973421    ( 0.0000,  0.0000,  0.0000)
  32 Pd     7.085457    4.063510   16.930680    ( 0.0000,  0.0000,  0.0000)
  33 Pd     2.864668    6.574326   16.889078    ( 0.0000,  0.0000,  0.0000)
  34 Ag     5.688685    6.492891   16.972326    ( 0.0000,  0.0000,  0.0000)
  35 Pt     8.552450    6.510353   16.917390    ( 0.0000,  0.0000,  0.0000)
  36 Pt     0.006326    0.012908   19.225244    ( 0.0000,  0.0000,  0.0000)
  37 Pt     2.871668    0.020742   19.248347    ( 0.0000,  0.0000,  0.0000)
  38 Pt     5.655200   -0.055364   19.199643    ( 0.0000,  0.0000,  0.0000)
  39 Pt     1.432039    2.400070   19.142409    ( 0.0000,  0.0000,  0.0000)
  40 Pd     4.230252    2.408318   19.246145    ( 0.0000,  0.0000,  0.0000)
  41 Pd     7.139803    2.408583   19.281347    ( 0.0000,  0.0000,  0.0000)
  42 Pt     2.810869    4.946937   19.150028    ( 0.0000,  0.0000,  0.0000)
  43 Ag     5.689040    4.912130   19.482635    ( 0.0000,  0.0000,  0.0000)
  44 Pt     8.574796    4.915556   19.160709    ( 0.0000,  0.0000,  0.0000)
  45 O      6.851431    2.655780   21.275013    ( 0.0000,  0.0000,  0.0000)
  46 H      7.725356    2.993908   21.604539    ( 0.0000,  0.0000,  0.0000)

Unit cell:
           periodic     x           y           z      points  spacing
  1. axis:    yes    8.517266    0.000000    0.000000    40     0.1844
  2. axis:    yes    4.258633    7.376169    0.000000    40     0.1844
  3. axis:    no     0.000000    0.000000   29.270571   140     0.2091

  Lengths:   8.517266   8.517266  29.270571
  Angles:   90.000000  90.000000  60.000000

Effective grid spacing dv^(1/3) = 0.2017

     iter     time        total  log10-change:
                         energy  eigst   dens
iter:   1 02:41:07  -205.029408  -4.59
iter:   2 02:42:06  -223.549504  -3.22  -2.33
iter:   3 02:43:05  -205.413343  -3.52  -1.62
iter:   4 02:44:04  -204.593986  -4.46  -2.31
iter:   5 02:45:04  -204.563125  -5.55  -2.97
iter:   6 02:46:03  -204.543001c -5.74  -3.10
iter:   7 02:47:02  -204.541751c -6.34  -3.43
iter:   8 02:48:01  -204.538794c -6.58  -3.76
iter:   9 02:49:00  -204.539075c -7.03  -4.05c
iter:  10 02:49:59  -204.538646c -7.30  -4.02c
iter:  11 02:50:58  -204.539083c -7.29  -4.12c
iter:  12 02:51:57  -204.538487c -7.66c -3.78
iter:  13 02:52:56  -204.538386c -7.71c -3.98
iter:  14 02:53:55  -204.538203c -8.16c -4.51c

Converged after 14 iterations.

Dipole moment: (27.792845, 13.895757, -0.178583) |e|*Ang

Energy contributions relative to reference atoms: (reference = -14174791.127075)

Kinetic:       -324.239837
Potential:     +178.885041
External:        +0.000000
XC:             -46.914113
Entropy (-ST):   -2.354523
Local:          -11.092031
--------------------------
Free energy:   -205.715464
Extrapolated:  -204.538203

Showing only first 2 kpts
 Kpt  Band  Eigenvalues  Occupancy
  0   364      0.60010    1.09725
  0   365      0.64543    0.87163
  0   366      0.67453    0.73213
  0   367      0.68904    0.66618

  1   364      0.52581    1.43740
  1   365      0.53000    1.42031
  1   366      0.53539    1.39787
  1   367      0.59140    1.14013


Fermi level: 0.61961

No gap

Forces in eV/Ang:
  0 Pd    0.00909   -0.00718   -0.26157
  1 Pt    0.29177   -0.51856    0.36202
  2 Pt   -0.33674   -0.14430    0.00530
  3 Pd   -0.40995    0.18624   -0.09475
  4 Pd    0.21388   -0.21876   -0.24895
  5 Pt    0.22496    0.30773   -0.19777
  6 Pd   -0.22033    0.22666   -0.10560
  7 Pt    0.55457    0.17097    0.06980
  8 Ru   -0.49475    0.06462    1.33940
  9 Pd   -0.20263    0.14104    0.19134
 10 Pt    0.31268   -0.04874   -0.32414
 11 Pd    0.08276    0.03955   -0.12782
 12 Pd    0.09369    0.07932   -0.00974
 13 Pt   -0.15632   -0.17406    0.12610
 14 Ag    0.07756   -0.12500    0.02766
 15 Ag    0.02568   -0.08011   -0.15375
 16 Ag   -0.03770   -0.06955    0.05775
 17 Pt    0.04424    0.20203   -0.58729
 18 Pt    0.01444    0.00076   -0.03012
 19 Pt   -0.00888   -0.00589   -0.01701
 20 Ru   -0.01654    0.01579    0.02896
 21 Pt   -0.01160    0.01919   -0.00396
 22 Pd    0.00058   -0.01947    0.01125
 23 Pt   -0.01368   -0.00750    0.00400
 24 Ag   -0.00020   -0.01334   -0.02069
 25 Pt   -0.01383    0.00356   -0.05674
 26 Ag   -0.00395   -0.00055   -0.02572
 27 Pt    0.01967    0.03686    0.01724
 28 Pd   -0.00287    0.01387   -0.02326
 29 Pd   -0.02637    0.03069    0.00426
 30 Ir    0.00721    0.00020    0.00833
 31 Pt   -0.01463    0.00661   -0.02439
 32 Pd    0.01986    0.02199    0.00685
 33 Pd   -0.01792   -0.07202   -0.02573
 34 Ag    0.02220   -0.03099    0.01532
 35 Pt    0.00117   -0.01995    0.00849
 36 Pt   -0.03794    0.00928   -0.02459
 37 Pt   -0.01636   -0.04386   -0.01494
 38 Pt   -0.00398    0.00621   -0.01131
 39 Pt    0.04808   -0.02426   -0.02326
 40 Pd    0.03471    0.00308    0.00014
 41 Pd   -0.00521   -0.03679    0.08210
 42 Pt   -0.01945   -0.00233   -0.05984
 43 Ag   -0.01167   -0.01174   -0.01494
 44 Pt    0.03573    0.02256   -0.03595
 45 O     0.09090    0.09683    0.05377
 46 H    -0.16112   -0.05651   -0.01661

System changes: positions 

Initializing position-dependent things.

Density initialized from wave functions
                                             
                                             
                                             
                                             
                                             
                                             
                            H                
                        AgO                  
                 Pt            Pt            
            Pt     Pd    APd    Pt           
                                             
       Pt    IPt    PPt    Pd                
                                             
        Pt     Pd    APd    Pt     Ag        
                Pt     Pd     Pt             
                                             
           Pt    APt    ARu    Pt            
                                             
            Pd    PPt    PAg    Ru           
       Pd     Pt     Pd                      
             Pd     Pd     Pt                
        Pd     Pt     Pt                     
                                             
                                             
                                             
                                             
                                             

Positions:
   0 Pd     0.000000    1.639149   10.000000    ( 0.0000,  0.0000,  0.0000)
   1 Pt     2.839089    1.639149   10.000000    ( 0.0000,  0.0000,  0.0000)
   2 Pt     5.678177    1.639149   10.000000    ( 0.0000,  0.0000,  0.0000)
   3 Pd     1.419544    4.097872   10.000000    ( 0.0000,  0.0000,  0.0000)
   4 Pd     4.258633    4.097872   10.000000    ( 0.0000,  0.0000,  0.0000)
   5 Pt     7.097722    4.097872   10.000000    ( 0.0000,  0.0000,  0.0000)
   6 Pd     2.839089    6.556595   10.000000    ( 0.0000,  0.0000,  0.0000)
   7 Pt     5.678177    6.556595   10.000000    ( 0.0000,  0.0000,  0.0000)
   8 Ru     8.517266    6.556595   10.000000    ( 0.0000,  0.0000,  0.0000)
   9 Pd     0.000000    0.000000   12.317643    ( 0.0000,  0.0000,  0.0000)
  10 Pt     2.839089    0.000000   12.317643    ( 0.0000,  0.0000,  0.0000)
  11 Pd     5.678177    0.000000   12.317643    ( 0.0000,  0.0000,  0.0000)
  12 Pd     1.419544    2.458723   12.317643    ( 0.0000,  0.0000,  0.0000)
  13 Pt     4.258633    2.458723   12.317643    ( 0.0000,  0.0000,  0.0000)
  14 Ag     7.097722    2.458723   12.317643    ( 0.0000,  0.0000,  0.0000)
  15 Ag     2.839089    4.917446   12.317643    ( 0.0000,  0.0000,  0.0000)
  16 Ag     5.678177    4.917446   12.317643    ( 0.0000,  0.0000,  0.0000)
  17 Pt     8.517266    4.917446   12.317643    ( 0.0000,  0.0000,  0.0000)
  18 Pt     1.399158    0.787175   14.575838    ( 0.0000,  0.0000,  0.0000)
  19 Pt     4.333804    0.803439   14.598995    ( 0.0000,  0.0000,  0.0000)
  20 Ru     7.176428    0.892772   14.678445    ( 0.0000,  0.0000,  0.0000)
  21 Pt     2.856979    3.210000   14.663447    ( 0.0000,  0.0000,  0.0000)
  22 Pd     5.698484    3.230847   14.660918    ( 0.0000,  0.0000,  0.0000)
  23 Pt     8.550613    3.262325   14.650387    ( 0.0000,  0.0000,  0.0000)
  24 Ag     4.302707    5.701894   14.644360    ( 0.0000,  0.0000,  0.0000)
  25 Pt     7.181982    5.751057   14.625722    ( 0.0000,  0.0000,  0.0000)
  26 Ag    10.011702    5.728482   14.625648    ( 0.0000,  0.0000,  0.0000)
  27 Pt    -0.012454    1.645557   16.874624    ( 0.0000,  0.0000,  0.0000)
  28 Pd     2.866105    1.563271   16.879050    ( 0.0000,  0.0000,  0.0000)
  29 Pd     5.704661    1.601857   16.916045    ( 0.0000,  0.0000,  0.0000)
  30 Ir     1.462444    4.038069   16.947636    ( 0.0000,  0.0000,  0.0000)
  31 Pt     4.229569    4.016544   16.972755    ( 0.0000,  0.0000,  0.0000)
  32 Pd     7.086970    4.062186   16.928131    ( 0.0000,  0.0000,  0.0000)
  33 Pd     2.866575    6.571261   16.889140    ( 0.0000,  0.0000,  0.0000)
  34 Ag     5.691363    6.489589   16.972909    ( 0.0000,  0.0000,  0.0000)
  35 Pt     8.553886    6.507682   16.917665    ( 0.0000,  0.0000,  0.0000)
  36 Pt     0.006653    0.010852   19.223476    ( 0.0000,  0.0000,  0.0000)
  37 Pt     2.872176    0.017600   19.248470    ( 0.0000,  0.0000,  0.0000)
  38 Pt     5.656044   -0.057363   19.196952    ( 0.0000,  0.0000,  0.0000)
  39 Pt     1.432930    2.397046   19.139810    ( 0.0000,  0.0000,  0.0000)
  40 Pd     4.230803    2.406342   19.242096    ( 0.0000,  0.0000,  0.0000)
  41 Pd     7.140539    2.406645   19.282488    ( 0.0000,  0.0000,  0.0000)
  42 Pt     2.812683    4.944176   19.148332    ( 0.0000,  0.0000,  0.0000)
  43 Ag     5.691470    4.908692   19.483760    ( 0.0000,  0.0000,  0.0000)
  44 Pt     8.577484    4.913179   19.157960    ( 0.0000,  0.0000,  0.0000)
  45 O      6.833353    2.681647   21.267667    ( 0.0000,  0.0000,  0.0000)
  46 H      7.715699    2.985418   21.598584    ( 0.0000,  0.0000,  0.0000)

Unit cell:
           periodic     x           y           z      points  spacing
  1. axis:    yes    8.517266    0.000000    0.000000    40     0.1844
  2. axis:    yes    4.258633    7.376169    0.000000    40     0.1844
  3. axis:    no     0.000000    0.000000   29.270571   140     0.2091

  Lengths:   8.517266   8.517266  29.270571
  Angles:   90.000000  90.000000  60.000000

Effective grid spacing dv^(1/3) = 0.2017

     iter     time        total  log10-change:
                         energy  eigst   dens
iter:   1 02:55:15  -205.640555  -4.18
iter:   2 02:56:14  -242.698938  -2.89  -2.19
iter:   3 02:57:13  -205.923606  -3.19  -1.48
iter:   4 02:58:12  -204.673875  -4.35  -2.18
iter:   5 02:59:11  -204.632613  -5.27  -2.72
iter:   6 03:00:10  -204.548975c -5.33  -2.75
iter:   7 03:01:08  -204.547070c -6.01  -3.42
iter:   8 03:02:07  -204.543086c -6.13  -3.57
iter:   9 03:03:06  -204.544056c -6.56  -3.65
iter:  10 03:04:05  -204.543438c -6.83  -3.66
iter:  11 03:05:04  -204.543502c -6.81  -3.76
iter:  12 03:06:03  -204.542429c -7.08  -3.70
iter:  13 03:07:02  -204.542523c -7.35  -4.11c
iter:  14 03:08:00  -204.541761c -7.39  -4.04c
iter:  15 03:08:59  -204.542269c -7.65c -4.04c

Converged after 15 iterations.

Dipole moment: (27.745387, 14.019731, -0.176068) |e|*Ang

Energy contributions relative to reference atoms: (reference = -14174791.127075)

Kinetic:       -323.040903
Potential:     +177.829074
External:        +0.000000
XC:             -47.069777
Entropy (-ST):   -2.353232
Local:          -11.084047
--------------------------
Free energy:   -205.718885
Extrapolated:  -204.542269

Showing only first 2 kpts
 Kpt  Band  Eigenvalues  Occupancy
  0   364      0.60160    1.09787
  0   365      0.64709    0.87148
  0   366      0.67569    0.73427
  0   367      0.69102    0.66459

  1   364      0.52745    1.43734
  1   365      0.53120    1.42204
  1   366      0.53718    1.39716
  1   367      0.59288    1.14087


Fermi level: 0.62124

No gap

Forces in eV/Ang:
  0 Pd    0.00967   -0.00645   -0.26160
  1 Pt    0.29160   -0.52099    0.36448
  2 Pt   -0.33696   -0.14569    0.00579
  3 Pd   -0.41064    0.18767   -0.09303
  4 Pd    0.21439   -0.21779   -0.24608
  5 Pt    0.22470    0.31061   -0.19611
  6 Pd   -0.22178    0.22596   -0.10398
  7 Pt    0.55817    0.16980    0.07233
  8 Ru   -0.49723    0.06508    1.34200
  9 Pd   -0.20076    0.13893    0.18755
 10 Pt    0.31544   -0.05052   -0.33325
 11 Pd    0.08388    0.03748   -0.13382
 12 Pd    0.09662    0.07805   -0.01446
 13 Pt   -0.15607   -0.17565    0.11772
 14 Ag    0.07820   -0.12566    0.02081
 15 Ag    0.02558   -0.07964   -0.16015
 16 Ag   -0.03761   -0.07049    0.04802
 17 Pt    0.04741    0.20088   -0.59659
 18 Pt    0.01224   -0.00277   -0.02426
 19 Pt   -0.01242   -0.01409   -0.00933
 20 Ru   -0.02056    0.01419    0.04312
 21 Pt   -0.01599    0.00987   -0.00182
 22 Pd    0.00172   -0.01272    0.01530
 23 Pt   -0.01519   -0.00245    0.01173
 24 Ag    0.00126   -0.00779   -0.01543
 25 Pt   -0.00873    0.01095   -0.04041
 26 Ag   -0.00785    0.00312   -0.02078
 27 Pt    0.00705    0.02796    0.01384
 28 Pd    0.00108    0.00650   -0.02385
 29 Pd   -0.01414    0.02517    0.00309
 30 Ir    0.00115    0.00059   -0.01256
 31 Pt   -0.01850    0.01534   -0.03617
 32 Pd    0.02499    0.01110    0.00222
 33 Pd   -0.01510   -0.05575   -0.04240
 34 Ag    0.01176   -0.01978    0.00443
 35 Pt   -0.00618   -0.00582   -0.01556
 36 Pt   -0.04323    0.02654    0.01277
 37 Pt   -0.01012   -0.02335   -0.00644
 38 Pt    0.00746    0.02280    0.03344
 39 Pt    0.03549   -0.03059    0.01820
 40 Pd    0.02214   -0.02602    0.01833
 41 Pd    0.00783   -0.07848    0.03349
 42 Pt   -0.02417    0.00896   -0.03718
 43 Ag   -0.02198    0.01165   -0.01317
 44 Pt    0.04203    0.01670   -0.00923
 45 O    -0.00548    0.02953    0.04997
 46 H    -0.04655   -0.00933    0.04187

Timing:                                      incl.     excl.
-------------------------------------------------------------------
Density initialized from wave functions:    78.708    78.707   0.3% |
 Symmetrize density:                         0.001     0.001   0.0% |
Forces:                                    355.034   355.034   1.4% ||
Hamiltonian:                                43.936     0.215   0.0% |
 Atomic:                                     2.309     0.656   0.0% |
  XC Correction:                             1.653     1.653   0.0% |
 Calculate atomic Hamiltonians:             28.553    28.553   0.1% |
 Communicate:                                6.307     6.307   0.0% |
 Initialize Hamiltonian:                     0.001     0.001   0.0% |
 Poisson:                                    0.122     0.122   0.0% |
 XC 3D grid:                                 6.428     6.428   0.0% |
LCAO initialization:                       131.179     2.817   0.0% |
 LCAO eigensolver:                          14.898     0.001   0.0% |
  Blacs Orbital Layouts:                     0.270     0.000   0.0% |
   General diagonalize:                      0.267     0.267   0.0% |
   Redistribute coefs:                       0.002     0.002   0.0% |
   Send coefs to domains:                    0.001     0.001   0.0% |
  Calculate projections:                     0.003     0.003   0.0% |
  Distribute overlap matrix:                13.825     0.000   0.0% |
   Scalapack redistribute:                   0.007     0.007   0.0% |
   blocked summation:                       13.818    13.818   0.1% |
  Potential matrix:                          0.760     0.760   0.0% |
  SparseAtomicCorrection:                    0.003     0.003   0.0% |
  Sum over cells:                            0.036     0.036   0.0% |
 LCAO to grid:                             110.081   110.081   0.4% |
 Set positions (LCAO WFS):                   3.383     0.006   0.0% |
  Basic WFS set positions:                   0.002     0.002   0.0% |
  Basis functions set positions:             0.000     0.000   0.0% |
  P tci:                                     0.000     0.000   0.0% |
  ST tci:                                    0.276     0.276   0.0% |
  Scalapack redistribute:                    0.007     0.007   0.0% |
  blocked summation:                         2.980     2.980   0.0% |
  mktci:                                     0.111     0.111   0.0% |
PWDescriptor:                                0.548     0.548   0.0% |
Redistribute:                                0.022     0.022   0.0% |
SCF-cycle:                               23891.368  1529.912   6.2% |-|
 Davidson:                               20595.327  4883.037  19.8% |-------|
  Apply H:                                1982.134  1945.835   7.9% |--|
   HMM T:                                   36.299    36.299   0.1% |
  Subspace diag:                          2378.452     0.062   0.0% |
   calc_h_matrix:                         1540.196   465.637   1.9% ||
    Apply H:                              1074.559  1054.657   4.3% |-|
     HMM T:                                 19.903    19.903   0.1% |
   diagonalize:                             80.206    80.206   0.3% |
   rotate_psi:                             757.988   757.988   3.1% ||
  calc. matrices:                         7823.373  4853.186  19.7% |-------|
   Apply H:                               2970.187  2914.325  11.8% |----|
    HMM T:                                  55.862    55.862   0.2% |
  diagonalize:                            1173.454  1173.454   4.8% |-|
  rotate_psi:                             2354.877  2354.877   9.6% |---|
 Density:                                 1088.050     0.013   0.0% |
  Atomic density matrices:                   7.032     7.032   0.0% |
  Mix:                                     429.497   429.497   1.7% ||
  Multipole moments:                         0.545     0.545   0.0% |
  Pseudo density:                          650.963   650.949   2.6% ||
   Symmetrize density:                       0.014     0.014   0.0% |
 Hamiltonian:                              584.861     2.908   0.0% |
  Atomic:                                   35.245    11.728   0.0% |
   XC Correction:                           23.517    23.517   0.1% |
  Calculate atomic Hamiltonians:           382.757   382.757   1.6% ||
  Communicate:                              74.189    74.189   0.3% |
  Poisson:                                   1.611     1.611   0.0% |
  XC 3D grid:                               88.152    88.152   0.4% |
 Orthonormalize:                            93.217     0.006   0.0% |
  calc_s_matrix:                            14.972    14.972   0.1% |
  inverse-cholesky:                          4.348     4.348   0.0% |
  projections:                              48.732    48.732   0.2% |
  rotate_psi_s:                             25.159    25.159   0.1% |
Set symmetry:                                0.002     0.002   0.0% |
Other:                                     108.558   108.558   0.4% |
-------------------------------------------------------------------
Total:                                             24609.357 100.0%

Memory usage: 868.76 MiB
Date: Fri Jun 14 03:09:12 2024
