
  ___ ___ ___ _ _ _  
 |   |   |_  | | | | 
 | | | | | . | | | | 
 |__ |  _|___|_____|  22.1.0
 |___|_|             

User:   clausen@node490.cluster
Date:   Thu Jun 13 21:54:50 2024
Arch:   x86_64
Pid:    101619
Python: 3.10.4
gpaw:   /groups/kemi/clausen/miniconda3/envs/gpaw22/lib/python3.10/site-packages/gpaw
_gpaw:  /groups/kemi/clausen/miniconda3/envs/gpaw22/lib/python3.10/site-packages/
        _gpaw.cpython-310-x86_64-linux-gnu.so
ase:    /groups/kemi/clausen/miniconda3/envs/gpaw22/lib/python3.10/site-packages/ase (version 3.22.1)
numpy:  /groups/kemi/clausen/miniconda3/envs/gpaw22/lib/python3.10/site-packages/numpy (version 1.23.1)
scipy:  /groups/kemi/clausen/miniconda3/envs/gpaw22/lib/python3.10/site-packages/scipy (version 1.8.1)
libxc:  5.2.3
units:  Angstrom and eV
cores: 24
OpenMP: True
OMP_NUM_THREADS: 1

Input parameters:
  eigensolver: {name: dav,
                niter: 3}
  kpts: [4 4 1]
  mixer: {backend: pulay,
          beta: 0.05,
          method: difference,
          nmaxold: 5,
          weight: 50.0}
  mode: {ecut: 400.0,
         name: pw}
  xc: RPBE

System changes: positions, numbers, cell, pbc, initial_charges, initial_magmoms 

Initialize ...

Pd-setup:
  name: Palladium
  id: 6da19bfba079f22767af9506641940b9
  Z: 46.0
  valence: 16
  core: 30
  charge: 0.0
  file: /groups/kemi/clausen/miniconda3/envs/gpaw22/share/gpaw/Pd.RPBE.gz
  compensation charges: gauss, rc=0.38, lmax=2
  cutoffs: 2.38(filt), 2.28(core),
  valence states:
                energy  radius
    5s(0.00)    -3.225   1.228
    4p(6.00)   -51.131   1.360
    5p(0.00)    -0.373   1.360
    4d(10.00)    -3.964   1.228
    *s          23.987   1.228
    *d          23.247   1.228

  Using partial waves for Pd as LCAO basis

Pt-setup:
  name: Platinum
  id: f04f522592575c47ad794f6b4a415b4b
  Z: 78.0
  valence: 16
  core: 62
  charge: 0.0
  file: /groups/kemi/clausen/miniconda3/envs/gpaw22/share/gpaw/Pt.RPBE.gz
  compensation charges: gauss, rc=0.41, lmax=2
  cutoffs: 2.26(filt), 2.26(core),
  valence states:
                energy  radius
    6s(1.00)    -5.516   1.307
    5p(6.00)   -55.971   1.371
    6p(0.00)    -0.856   1.371
    5d(9.00)    -6.087   1.307
    *s          21.695   1.307
    *d          21.125   1.307

  Using partial waves for Pt as LCAO basis

Ag-setup:
  name: Silver
  id: c05e55bab2c3858b3f9398f6d75cb77c
  Z: 47.0
  valence: 17
  core: 30
  charge: 0.0
  file: /groups/kemi/clausen/miniconda3/envs/gpaw22/share/gpaw/Ag.RPBE.gz
  compensation charges: gauss, rc=0.40, lmax=2
  cutoffs: 2.35(filt), 2.19(core),
  valence states:
                energy  radius
    5s(1.00)    -4.277   1.286
    4p(6.00)   -58.523   1.328
    5p(0.00)    -0.755   1.328
    4d(10.00)    -7.386   1.180
    *s          22.934   1.286
    *d          19.826   1.180

  Using partial waves for Ag as LCAO basis

Ir-setup:
  name: Iridium
  id: 73b603359d1d5397a85ae3c2440f9033
  Z: 77.0
  valence: 15
  core: 62
  charge: 0.0
  file: /groups/kemi/clausen/miniconda3/envs/gpaw22/share/gpaw/Ir.RPBE.gz
  compensation charges: gauss, rc=0.40, lmax=2
  cutoffs: 2.40(filt), 2.36(core),
  valence states:
                energy  radius
    6s(2.00)    -6.219   1.296
    5p(6.00)   -54.684   1.328
    6p(0.00)    -1.215   1.328
    5d(7.00)    -7.118   1.286
    *s          20.992   1.296
    *d          20.093   1.286

  Using partial waves for Ir as LCAO basis

Ru-setup:
  name: Ruthenium
  id: 76477906e28f51dc1b29884d53556fe9
  Z: 44.0
  valence: 16
  core: 28
  charge: 0.0
  file: /groups/kemi/clausen/miniconda3/envs/gpaw22/share/gpaw/Ru.RPBE.gz
  compensation charges: gauss, rc=0.39, lmax=2
  cutoffs: 2.16(filt), 1.30(core),
  valence states:
                energy  radius
    4s(2.00)   -76.255   1.281
    5s(1.00)    -4.126   1.281
    4p(6.00)   -46.371   1.286
    5p(0.00)    -0.913   1.286
    4d(7.00)    -5.146   1.254
    *d          22.066   1.254

  Using partial waves for Ru as LCAO basis

O-setup:
  name: Oxygen
  id: 08071ca1eed670e7821b24b7eb4d558c
  Z: 8.0
  valence: 6
  core: 2
  charge: 0.0
  file: /groups/kemi/clausen/miniconda3/envs/gpaw22/share/gpaw/O.RPBE.gz
  compensation charges: gauss, rc=0.21, lmax=2
  cutoffs: 1.17(filt), 0.83(core),
  valence states:
                energy  radius
    2s(2.00)   -24.041   0.688
    2p(4.00)    -8.984   0.598
    *s           3.170   0.688
    *p          18.228   0.598
    *d           0.000   0.619

  Using partial waves for O as LCAO basis

Reference energy: -12373358.334139

Spin-paired calculation

Convergence criteria:
 Maximum [total energy] change in last 3 cyles: 0.0005 eV / electron
 Maximum integral of absolute [dens]ity change: 0.0001 electrons / valence electron
 Maximum integral of absolute [eigenst]ate change: 4e-08 eV^2 / valence electron
 Maximum number of scf [iter]ations: 333
 (Square brackets indicate name in SCF output, whereas a 'c' in
 the SCF output indicates the quantity has converged.)

Symmetries present (total): 1

  ( 1  0  0)
  ( 0  1  0)
  ( 0  0  1)

16 k-points: 4 x 4 x 1 Monkhorst-Pack grid
8 k-points in the irreducible part of the Brillouin zone
       k-points in crystal coordinates                weights
   0:     0.12500000   -0.37500000    0.00000000          2/16
   1:     0.12500000   -0.12500000    0.00000000          2/16
   2:     0.12500000    0.12500000    0.00000000          2/16
   3:     0.12500000    0.37500000    0.00000000          2/16
   4:     0.37500000   -0.37500000    0.00000000          2/16
   5:     0.37500000   -0.12500000    0.00000000          2/16
   6:     0.37500000    0.12500000    0.00000000          2/16
   7:     0.37500000    0.37500000    0.00000000          2/16

Wave functions: Plane wave expansion
  Cutoff energy: 400.000 eV
  Number of coefficients (min, max): 33288, 33380
  Pulay-stress correction: 0.000000 eV/Ang^3 (de/decut=0.000000)
  Using FFTW library
  ScaLapack parameters: grid=3x1, blocksize=64
  Wavefunction extrapolation:
    Improved wavefunction reuse through dual PAW basis 

Occupation numbers: Fermi-Dirac: width=0.1000 eV
 

Eigensolver
   Davidson(niter=3) 

Densities:
  Coarse grid: 40*40*140 grid
  Fine grid: 80*80*280 grid
  Total Charge: 0.000000 

Density mixing:
  Method: separate
  Backend: pulay
  Linear mixing parameter: 0.05
  Mixing with 5 old densities
  Damping of long wave oscillations: 50 

Hamiltonian:
  XC and Coulomb potentials evaluated on a 80*80*280 grid
  Using the RPBE Exchange-Correlation functional
  External potential:
    NoExternalPotential
 

XC parameters: RPBE with 2 nearest neighbor stencil

Memory estimate:
  Process memory now: 194.09 MiB
  Calculator: 560.79 MiB
    Density: 47.40 MiB
      Arrays: 14.92 MiB
      Localized functions: 26.74 MiB
      Mixer: 5.74 MiB
    Hamiltonian: 10.59 MiB
      Arrays: 9.75 MiB
      XC: 0.00 MiB
      Poisson: 0.00 MiB
      vbar: 0.84 MiB
    Wavefunctions: 502.80 MiB
      Arrays psit_nG: 227.67 MiB
      Eigensolver: 260.72 MiB
      Projections: 1.87 MiB
      Projectors: 3.74 MiB
      PW-descriptor: 8.80 MiB

Total number of cores used: 24
Parallelization over k-points: 8
Domain decomposition: 1 x 1 x 3
                      2 x 2 x 6 (xc only)

Number of atoms: 46
Number of atomic orbitals: 547
Number of bands in calculation: 447
Number of valence electrons: 737
Bands to converge: occupied

... initialized

Initializing position-dependent things.

Density initialized from atomic densities
Creating initial wave functions:
  447 bands from LCAO basis set

                                             
                                             
                                             
                                             
                                             
                                             
                               Ag            
                  Or    Pt                   
             Pt   PRu     Pt    Pd           
                         Pt                  
       Pt    APt    PAg    Ru                
                                             
        Ag     Ag    PPt    Pt     Ag        
                       Pd     Pt             
                Ru                           
           Ag    PAg    PPt    Pd            
                                             
            Ir     Pt    PAg    Pd           
       Pd     Pd     Pt                      
             Pd     Ag     Ag                
        Pd     Pt     Ag                     
                                             
                                             
                                             
                                             
                                             

Positions:
   0 Pd     0.000000    1.637674   10.000000    ( 0.0000,  0.0000,  0.0000)
   1 Pt     2.836535    1.637674   10.000000    ( 0.0000,  0.0000,  0.0000)
   2 Ag     5.673071    1.637674   10.000000    ( 0.0000,  0.0000,  0.0000)
   3 Pd     1.418268    4.094186   10.000000    ( 0.0000,  0.0000,  0.0000)
   4 Ag     4.254803    4.094186   10.000000    ( 0.0000,  0.0000,  0.0000)
   5 Ag     7.091338    4.094186   10.000000    ( 0.0000,  0.0000,  0.0000)
   6 Ag     2.836535    6.550698   10.000000    ( 0.0000,  0.0000,  0.0000)
   7 Pd     5.673071    6.550698   10.000000    ( 0.0000,  0.0000,  0.0000)
   8 Pd     8.509606    6.550698   10.000000    ( 0.0000,  0.0000,  0.0000)
   9 Pd     0.000000    0.000000   12.317643    ( 0.0000,  0.0000,  0.0000)
  10 Pd     2.836535    0.000000   12.317643    ( 0.0000,  0.0000,  0.0000)
  11 Pt     5.673071    0.000000   12.317643    ( 0.0000,  0.0000,  0.0000)
  12 Ir     1.418268    2.456512   12.317643    ( 0.0000,  0.0000,  0.0000)
  13 Pt     4.254803    2.456512   12.317643    ( 0.0000,  0.0000,  0.0000)
  14 Ag     7.091338    2.456512   12.317643    ( 0.0000,  0.0000,  0.0000)
  15 Pt     2.836535    4.913023   12.317643    ( 0.0000,  0.0000,  0.0000)
  16 Pd     5.673071    4.913023   12.317643    ( 0.0000,  0.0000,  0.0000)
  17 Pd     8.509606    4.913023   12.317643    ( 0.0000,  0.0000,  0.0000)
  18 Ag     1.389069    0.761593   14.611341    ( 0.0000,  0.0000,  0.0000)
  19 Ag     4.222794    0.791242   14.654783    ( 0.0000,  0.0000,  0.0000)
  20 Pt     7.073540    0.805567   14.664382    ( 0.0000,  0.0000,  0.0000)
  21 Ru     2.749307    3.307485   14.388094    ( 0.0000,  0.0000,  0.0000)
  22 Pd     5.607707    3.222150   14.639274    ( 0.0000,  0.0000,  0.0000)
  23 Pt     8.524948    3.259735   14.660441    ( 0.0000,  0.0000,  0.0000)
  24 Pt     4.174602    5.656474   14.614052    ( 0.0000,  0.0000,  0.0000)
  25 Pt     7.045997    5.607689   14.670733    ( 0.0000,  0.0000,  0.0000)
  26 Ag     9.879948    5.755300   14.695121    ( 0.0000,  0.0000,  0.0000)
  27 Ag     0.017308    1.615647   16.996175    ( 0.0000,  0.0000,  0.0000)
  28 Ag     2.800366    1.626414   16.880782    ( 0.0000,  0.0000,  0.0000)
  29 Pt     5.672197    1.642004   17.012334    ( 0.0000,  0.0000,  0.0000)
  30 Ag     1.343075    4.094522   17.005234    ( 0.0000,  0.0000,  0.0000)
  31 Pd     4.166190    4.037462   16.812922    ( 0.0000,  0.0000,  0.0000)
  32 Ru     6.951751    4.066498   16.866913    ( 0.0000,  0.0000,  0.0000)
  33 Pd     2.796571    6.569134   17.026379    ( 0.0000,  0.0000,  0.0000)
  34 Pt     5.661494    6.420339   16.911143    ( 0.0000,  0.0000,  0.0000)
  35 Pd     8.433103    6.505308   17.066448    ( 0.0000,  0.0000,  0.0000)
  36 Pt     0.070793   -0.041697   19.273531    ( 0.0000,  0.0000,  0.0000)
  37 Pt     2.805116    0.091543   19.247171    ( 0.0000,  0.0000,  0.0000)
  38 Ag     5.703172    0.006706   19.481189    ( 0.0000,  0.0000,  0.0000)
  39 Pt     1.550859    2.466264   19.402929    ( 0.0000,  0.0000,  0.0000)
  40 Ru     4.237408    2.607644   19.096110    ( 0.0000,  0.0000,  0.0000)
  41 Pt     7.106116    2.494030   19.217545    ( 0.0000,  0.0000,  0.0000)
  42 Ir     3.043460    4.824551   19.141209    ( 0.0000,  0.0000,  0.0000)
  43 Pt     5.709443    4.866601   19.167406    ( 0.0000,  0.0000,  0.0000)
  44 Ag     8.567230    4.895418   19.518661    ( 0.0000,  0.0000,  0.0000)
  45 O      4.248566    0.901964   20.818661    ( 0.0000,  0.0000,  0.0000)

Unit cell:
           periodic     x           y           z      points  spacing
  1. axis:    yes    8.509606    0.000000    0.000000    40     0.1842
  2. axis:    yes    4.254803    7.369535    0.000000    40     0.1842
  3. axis:    no     0.000000    0.000000   29.270571   140     0.2091

  Lengths:   8.509606   8.509606  29.270571
  Angles:   90.000000  90.000000  60.000000

Effective grid spacing dv^(1/3) = 0.2016

     iter     time        total  log10-change:
                         energy  eigst   dens
iter:   1 21:58:33  -246.236585
iter:   2 21:59:40  -357.279839  -1.41  -1.22
iter:   3 22:00:47  -218.336321  -1.93  -1.08
iter:   4 22:01:56  -201.166096  -2.46  -1.36
iter:   5 22:03:04  -197.044883  -2.80  -1.48
iter:   6 22:04:14  -196.196055  -2.92  -1.56
iter:   7 22:05:24  -195.315261  -3.05  -1.58
iter:   8 22:06:34  -191.505299  -2.70  -1.65
iter:   9 22:07:43  -191.076150  -3.05  -1.90
iter:  10 22:08:52  -190.945685  -3.49  -2.04
iter:  11 22:10:01  -190.633511  -3.96  -2.10
iter:  12 22:11:09  -190.504795  -3.93  -2.21
iter:  13 22:12:18  -190.566894c -4.15  -2.29
iter:  14 22:13:27  -190.275920c -3.76  -2.31
iter:  15 22:14:36  -190.234845c -4.39  -2.64
iter:  16 22:15:45  -190.221014c -4.70  -2.80
iter:  17 22:16:55  -190.233559c -4.86  -2.92
iter:  18 22:18:05  -190.213575c -5.65  -2.93
iter:  19 22:19:14  -190.217914c -5.53  -3.05
iter:  20 22:20:24  -190.216921c -5.74  -3.11
iter:  21 22:21:33  -190.214184c -5.98  -3.19
iter:  22 22:22:42  -190.217843c -5.96  -3.22
iter:  23 22:23:51  -190.213333c -6.17  -3.30
iter:  24 22:25:00  -190.226345c -5.74  -3.30
iter:  25 22:26:09  -190.216746c -5.90  -3.24
iter:  26 22:27:18  -190.216747c -6.12  -3.43
iter:  27 22:28:27  -190.216371c -6.45  -3.69
iter:  28 22:29:37  -190.217196c -6.62  -3.83
iter:  29 22:30:47  -190.214573c -6.67  -3.88
iter:  30 22:31:57  -190.216291c -7.10  -3.97
iter:  31 22:33:06  -190.215725c -7.47c -4.08c

Converged after 31 iterations.

Dipole moment: (-5.488553, 7.042448, -0.540707) |e|*Ang

Energy contributions relative to reference atoms: (reference = -12373358.334139)

Kinetic:       -233.120783
Potential:     +107.220168
External:        +0.000000
XC:             -56.451253
Entropy (-ST):   -1.892853
Local:           -6.917430
--------------------------
Free energy:   -191.162151
Extrapolated:  -190.215725

Showing only first 2 kpts
 Kpt  Band  Eigenvalues  Occupancy
  0   366      0.65164    1.01333
  0   367      0.68222    0.86129
  0   368      0.71335    0.71303
  0   369      0.73541    0.61531

  1   366      0.51615    1.59848
  1   367      0.54347    1.50363
  1   368      0.58257    1.34402
  1   369      0.60423    1.24525


Fermi level: 0.65430

No gap

Forces in eV/Ang:
  0 Pd    0.70352    0.06223    0.10511
  1 Pt   -0.59104   -0.15090    0.56335
  2 Ag   -0.10580   -0.07873   -0.56358
  3 Pd   -0.04190   -0.33913    0.20585
  4 Ag   -0.01002    0.02594   -0.57467
  5 Ag    0.13983    0.16006   -0.49378
  6 Ag    0.04256   -0.00246   -0.47769
  7 Pd    0.22738    0.34685    0.06429
  8 Pd   -0.13035    0.14427    0.20180
  9 Pd   -0.00953    0.10134   -0.01376
 10 Pd    0.00756   -0.02329   -0.10483
 11 Pt   -0.02629   -0.13827    0.13257
 12 Ir    0.68284    0.14411   -0.02653
 13 Pt   -0.67767   -0.18170    0.25439
 14 Ag    0.10482   -0.01936    0.08845
 15 Pt   -0.30298    0.02569    0.09450
 16 Pd   -0.06808    0.26180    0.17085
 17 Pd    0.15185    0.00114    0.18487
 18 Ag   -0.00182    0.02108    0.01122
 19 Ag   -0.01797   -0.01605    0.01510
 20 Pt   -0.07048   -0.05313    0.01231
 21 Ru    0.06144   -0.00067    0.00172
 22 Pd   -0.04357    0.00350   -0.00418
 23 Pt   -0.01486   -0.01758   -0.00149
 24 Pt   -0.02902    0.08667   -0.07521
 25 Pt   -0.02728    0.01605   -0.04418
 26 Ag   -0.03594   -0.04239   -0.00389
 27 Ag   -0.04439   -0.03023   -0.02382
 28 Ag   -0.03316    0.00591   -0.07308
 29 Pt   -0.02319    0.06281   -0.13587
 30 Ag   -0.02154   -0.04195    0.03627
 31 Pd   -0.04129   -0.02334    0.02483
 32 Ru    0.02362   -0.07683    0.09418
 33 Pd   -0.04619   -0.03034    0.06162
 34 Pt    0.09974    0.13331    0.32888
 35 Pd    0.01679   -0.09281   -0.18301
 36 Pt    0.03317   -0.06114   -0.13642
 37 Pt    0.33033   -0.00137    1.18985
 38 Ag    0.61712   -0.25410    0.06653
 39 Pt   -0.30250    0.24189   -0.11956
 40 Ru    0.13667   -0.79754    1.86363
 41 Pt    0.24072    0.13796   -0.12581
 42 Ir    0.12333   -0.16741   -0.05265
 43 Pt    0.02969   -0.11373   -0.08552
 44 Ag    0.01583   -0.12121    0.00992
 45 O    -1.05878    0.88784   -2.35270

System changes: positions 

Initializing position-dependent things.

Density initialized from wave functions
                                             
                                             
                                             
                                             
                                             
                                             
                               Ag            
                  Or    Pt                   
             Pt   PRu     Pt    Pd           
                         Pt                  
       Pt    APt    PAg    Ru                
                                             
        Ag     Ag    PPt    Pt     Ag        
                       Pd     Pt             
                Ru                           
           Ag    PAg    PPt    Pd            
                                             
            Ir     Pt    PAg    Pd           
       Pd     Pd     Pt                      
             Pd     Ag     Ag                
        Pd     Pt     Ag                     
                                             
                                             
                                             
                                             
                                             

Positions:
   0 Pd     0.000000    1.637674   10.000000    ( 0.0000,  0.0000,  0.0000)
   1 Pt     2.836535    1.637674   10.000000    ( 0.0000,  0.0000,  0.0000)
   2 Ag     5.673071    1.637674   10.000000    ( 0.0000,  0.0000,  0.0000)
   3 Pd     1.418268    4.094186   10.000000    ( 0.0000,  0.0000,  0.0000)
   4 Ag     4.254803    4.094186   10.000000    ( 0.0000,  0.0000,  0.0000)
   5 Ag     7.091338    4.094186   10.000000    ( 0.0000,  0.0000,  0.0000)
   6 Ag     2.836535    6.550698   10.000000    ( 0.0000,  0.0000,  0.0000)
   7 Pd     5.673071    6.550698   10.000000    ( 0.0000,  0.0000,  0.0000)
   8 Pd     8.509606    6.550698   10.000000    ( 0.0000,  0.0000,  0.0000)
   9 Pd     0.000000    0.000000   12.317643    ( 0.0000,  0.0000,  0.0000)
  10 Pd     2.836535    0.000000   12.317643    ( 0.0000,  0.0000,  0.0000)
  11 Pt     5.673071    0.000000   12.317643    ( 0.0000,  0.0000,  0.0000)
  12 Ir     1.418268    2.456512   12.317643    ( 0.0000,  0.0000,  0.0000)
  13 Pt     4.254803    2.456512   12.317643    ( 0.0000,  0.0000,  0.0000)
  14 Ag     7.091338    2.456512   12.317643    ( 0.0000,  0.0000,  0.0000)
  15 Pt     2.836535    4.913023   12.317643    ( 0.0000,  0.0000,  0.0000)
  16 Pd     5.673071    4.913023   12.317643    ( 0.0000,  0.0000,  0.0000)
  17 Pd     8.509606    4.913023   12.317643    ( 0.0000,  0.0000,  0.0000)
  18 Ag     1.389043    0.761894   14.611501    ( 0.0000,  0.0000,  0.0000)
  19 Ag     4.222537    0.791012   14.654999    ( 0.0000,  0.0000,  0.0000)
  20 Pt     7.072533    0.804808   14.664558    ( 0.0000,  0.0000,  0.0000)
  21 Ru     2.750185    3.307476   14.388119    ( 0.0000,  0.0000,  0.0000)
  22 Pd     5.607085    3.222200   14.639214    ( 0.0000,  0.0000,  0.0000)
  23 Pt     8.524735    3.259484   14.660420    ( 0.0000,  0.0000,  0.0000)
  24 Pt     4.174187    5.657712   14.612977    ( 0.0000,  0.0000,  0.0000)
  25 Pt     7.045608    5.607918   14.670101    ( 0.0000,  0.0000,  0.0000)
  26 Ag     9.879434    5.754695   14.695066    ( 0.0000,  0.0000,  0.0000)
  27 Ag     0.016674    1.615215   16.995835    ( 0.0000,  0.0000,  0.0000)
  28 Ag     2.799892    1.626498   16.879738    ( 0.0000,  0.0000,  0.0000)
  29 Pt     5.671866    1.642901   17.010393    ( 0.0000,  0.0000,  0.0000)
  30 Ag     1.342767    4.093923   17.005752    ( 0.0000,  0.0000,  0.0000)
  31 Pd     4.165601    4.037128   16.813277    ( 0.0000,  0.0000,  0.0000)
  32 Ru     6.952088    4.065401   16.868259    ( 0.0000,  0.0000,  0.0000)
  33 Pd     2.795911    6.568701   17.027259    ( 0.0000,  0.0000,  0.0000)
  34 Pt     5.662919    6.422243   16.915842    ( 0.0000,  0.0000,  0.0000)
  35 Pd     8.433343    6.503982   17.063834    ( 0.0000,  0.0000,  0.0000)
  36 Pt     0.071267   -0.042570   19.271582    ( 0.0000,  0.0000,  0.0000)
  37 Pt     2.809835    0.091523   19.264169    ( 0.0000,  0.0000,  0.0000)
  38 Ag     5.711988    0.003076   19.482139    ( 0.0000,  0.0000,  0.0000)
  39 Pt     1.546538    2.469719   19.401221    ( 0.0000,  0.0000,  0.0000)
  40 Ru     4.239361    2.596251   19.122733    ( 0.0000,  0.0000,  0.0000)
  41 Pt     7.109555    2.496001   19.215748    ( 0.0000,  0.0000,  0.0000)
  42 Ir     3.045222    4.822159   19.140456    ( 0.0000,  0.0000,  0.0000)
  43 Pt     5.709867    4.864976   19.166184    ( 0.0000,  0.0000,  0.0000)
  44 Ag     8.567456    4.893686   19.518802    ( 0.0000,  0.0000,  0.0000)
  45 O      4.233440    0.914648   20.785051    ( 0.0000,  0.0000,  0.0000)

Unit cell:
           periodic     x           y           z      points  spacing
  1. axis:    yes    8.509606    0.000000    0.000000    40     0.1842
  2. axis:    yes    4.254803    7.369535    0.000000    40     0.1842
  3. axis:    no     0.000000    0.000000   29.270571   140     0.2091

  Lengths:   8.509606   8.509606  29.270571
  Angles:   90.000000  90.000000  60.000000

Effective grid spacing dv^(1/3) = 0.2016

     iter     time        total  log10-change:
                         energy  eigst   dens
iter:   1 22:34:40  -192.357806  -3.92
iter:   2 22:35:50  -224.929531  -2.85  -2.09
iter:   3 22:36:59  -192.602904  -2.95  -1.53
iter:   4 22:38:08  -190.654918  -4.03  -2.15
iter:   5 22:39:17  -190.522837  -4.75  -2.70
iter:   6 22:40:26  -190.457443c -5.43  -2.82
iter:   7 22:41:36  -190.435803c -5.80  -3.11
iter:   8 22:42:46  -190.421661c -5.80  -3.24
iter:   9 22:43:56  -190.447800c -5.98  -3.35
iter:  10 22:45:05  -190.422769c -5.86  -3.11
iter:  11 22:46:16  -190.416906c -5.78  -3.17
iter:  12 22:47:26  -190.418468c -6.73  -3.69
iter:  13 22:48:37  -190.417700c -7.25  -3.83
iter:  14 22:49:47  -190.416999c -6.72  -3.90
iter:  15 22:50:57  -190.418223c -7.56c -4.16c

Converged after 15 iterations.

Dipole moment: (-5.267576, 7.243749, -0.513669) |e|*Ang

Energy contributions relative to reference atoms: (reference = -12373358.334139)

Kinetic:       -232.990696
Potential:     +106.974247
External:        +0.000000
XC:             -56.494148
Entropy (-ST):   -1.886276
Local:           -6.964488
--------------------------
Free energy:   -191.361361
Extrapolated:  -190.418223

Showing only first 2 kpts
 Kpt  Band  Eigenvalues  Occupancy
  0   366      0.66536    1.01015
  0   367      0.69103    0.88233
  0   368      0.72663    0.71215
  0   369      0.75068    0.60605

  1   366      0.52767    1.60348
  1   367      0.55628    1.50465
  1   368      0.59476    1.34797
  1   369      0.61282    1.26628


Fermi level: 0.66739

No gap

Forces in eV/Ang:
  0 Pd    0.69803    0.06185    0.10767
  1 Pt   -0.59284   -0.15118    0.55466
  2 Ag   -0.09762   -0.07998   -0.56163
  3 Pd   -0.04974   -0.33465    0.20979
  4 Ag   -0.00609    0.03475   -0.57429
  5 Ag    0.14347    0.16536   -0.49414
  6 Ag    0.04469   -0.00181   -0.48089
  7 Pd    0.22708    0.33863    0.06244
  8 Pd   -0.13460    0.13185    0.20043
  9 Pd   -0.00575    0.10614   -0.01792
 10 Pd    0.00417   -0.03303   -0.11017
 11 Pt   -0.02749   -0.14131    0.13398
 12 Ir    0.68015    0.14324   -0.01301
 13 Pt   -0.67676   -0.18247    0.26398
 14 Ag    0.10853   -0.01892    0.08862
 15 Pt   -0.30255    0.02706    0.09998
 16 Pd   -0.05905    0.26897    0.17012
 17 Pd    0.14016    0.00581    0.17932
 18 Ag   -0.00433    0.01376    0.02039
 19 Ag   -0.01598   -0.01559    0.01418
 20 Pt   -0.06769   -0.04646    0.02194
 21 Ru    0.05083   -0.00037    0.00304
 22 Pd   -0.03908    0.01651    0.01338
 23 Pt   -0.01099   -0.01369    0.00965
 24 Pt   -0.02306    0.07213   -0.03752
 25 Pt   -0.03565    0.00908   -0.01858
 26 Ag   -0.03341   -0.04060    0.00630
 27 Ag   -0.03621   -0.03804   -0.03073
 28 Ag    0.01553    0.01484    0.03246
 29 Pt   -0.06581    0.08110   -0.06302
 30 Ag   -0.00099   -0.03682    0.03220
 31 Pd   -0.03093   -0.06808    0.07516
 32 Ru   -0.00508   -0.05538    0.06980
 33 Pd   -0.05318   -0.03931    0.05556
 34 Pt    0.12529    0.10371    0.28930
 35 Pd   -0.02481   -0.05966   -0.11829
 36 Pt    0.06240   -0.06538   -0.12289
 37 Pt    0.21744   -0.04566    0.99421
 38 Ag    0.65914   -0.31666    0.01379
 39 Pt   -0.30862    0.22794   -0.15680
 40 Ru    0.11784   -0.69940    1.64979
 41 Pt    0.23789    0.12822   -0.13035
 42 Ir    0.12197   -0.22978   -0.05077
 43 Pt    0.02034   -0.13697   -0.08637
 44 Ag    0.02471   -0.09793   -0.01800
 45 O    -1.04473    1.02144   -2.39870

System changes: positions 

Initializing position-dependent things.

Density initialized from wave functions
                                             
                                             
                                             
                                             
                                             
                                             
                               Ag            
                  Or    Pt                   
             Pt   PRu    PPt    Pd           
                                             
       Pt    APt    PAg    Ru                
                      Pt                     
        Ag     Ag    Pt     Pt     Ag        
                       Pd     Pt             
                Ru                           
           Ag    PAg    PPt    Pd            
                                             
            Ir     Pt    PAg    Pd           
       Pd    PPd    APt    Ag                
                                             
        Pd     Pt     Ag                     
                                             
                                             
                                             
                                             
                                             

Positions:
   0 Pd     0.000000    1.637674   10.000000    ( 0.0000,  0.0000,  0.0000)
   1 Pt     2.836535    1.637674   10.000000    ( 0.0000,  0.0000,  0.0000)
   2 Ag     5.673071    1.637674   10.000000    ( 0.0000,  0.0000,  0.0000)
   3 Pd     1.418268    4.094186   10.000000    ( 0.0000,  0.0000,  0.0000)
   4 Ag     4.254803    4.094186   10.000000    ( 0.0000,  0.0000,  0.0000)
   5 Ag     7.091338    4.094186   10.000000    ( 0.0000,  0.0000,  0.0000)
   6 Ag     2.836535    6.550698   10.000000    ( 0.0000,  0.0000,  0.0000)
   7 Pd     5.673071    6.550698   10.000000    ( 0.0000,  0.0000,  0.0000)
   8 Pd     8.509606    6.550698   10.000000    ( 0.0000,  0.0000,  0.0000)
   9 Pd     0.000000    0.000000   12.317643    ( 0.0000,  0.0000,  0.0000)
  10 Pd     2.836535    0.000000   12.317643    ( 0.0000,  0.0000,  0.0000)
  11 Pt     5.673071    0.000000   12.317643    ( 0.0000,  0.0000,  0.0000)
  12 Ir     1.418268    2.456512   12.317643    ( 0.0000,  0.0000,  0.0000)
  13 Pt     4.254803    2.456512   12.317643    ( 0.0000,  0.0000,  0.0000)
  14 Ag     7.091338    2.456512   12.317643    ( 0.0000,  0.0000,  0.0000)
  15 Pt     2.836535    4.913023   12.317643    ( 0.0000,  0.0000,  0.0000)
  16 Pd     5.673071    4.913023   12.317643    ( 0.0000,  0.0000,  0.0000)
  17 Pd     8.509606    4.913023   12.317643    ( 0.0000,  0.0000,  0.0000)
  18 Ag     1.388774    0.763003   14.612809    ( 0.0000,  0.0000,  0.0000)
  19 Ag     4.221358    0.789887   14.656031    ( 0.0000,  0.0000,  0.0000)
  20 Pt     7.067633    0.801365   14.665970    ( 0.0000,  0.0000,  0.0000)
  21 Ru     2.754008    3.307444   14.388315    ( 0.0000,  0.0000,  0.0000)
  22 Pd     5.604207    3.223166   14.639879    ( 0.0000,  0.0000,  0.0000)
  23 Pt     8.523882    3.258437   14.660925    ( 0.0000,  0.0000,  0.0000)
  24 Pt     4.172434    5.663128   14.609654    ( 0.0000,  0.0000,  0.0000)
  25 Pt     7.043192    5.608686   14.668339    ( 0.0000,  0.0000,  0.0000)
  26 Ag     9.876996    5.751754   14.695346    ( 0.0000,  0.0000,  0.0000)
  27 Ag     0.013941    1.612619   16.993747    ( 0.0000,  0.0000,  0.0000)
  28 Ag     2.800187    1.627412   16.880292    ( 0.0000,  0.0000,  0.0000)
  29 Pt     5.667864    1.648409   17.004651    ( 0.0000,  0.0000,  0.0000)
  30 Ag     1.342351    4.091197   17.008129    ( 0.0000,  0.0000,  0.0000)
  31 Pd     4.163209    4.032999   16.817819    ( 0.0000,  0.0000,  0.0000)
  32 Ru     6.952207    4.061069   16.873673    ( 0.0000,  0.0000,  0.0000)
  33 Pd     2.792215    6.566033   17.031345    ( 0.0000,  0.0000,  0.0000)
  34 Pt     5.671473    6.430177   16.937249    ( 0.0000,  0.0000,  0.0000)
  35 Pd     8.432263    6.499147   17.054265    ( 0.0000,  0.0000,  0.0000)
  36 Pt     0.075250   -0.047187   19.262544    ( 0.0000,  0.0000,  0.0000)
  37 Pt     2.827322    0.088994   19.338741    ( 0.0000,  0.0000,  0.0000)
  38 Ag     5.758542   -0.018577   19.484014    ( 0.0000,  0.0000,  0.0000)
  39 Pt     1.524512    2.486297   19.390605    ( 0.0000,  0.0000,  0.0000)
  40 Ru     4.248126    2.544455   19.244615    ( 0.0000,  0.0000,  0.0000)
  41 Pt     7.126659    2.505358   19.206478    ( 0.0000,  0.0000,  0.0000)
  42 Ir     3.053990    4.806732   19.136785    ( 0.0000,  0.0000,  0.0000)
  43 Pt     5.711483    4.855546   19.160006    ( 0.0000,  0.0000,  0.0000)
  44 Ag     8.569079    4.886273   19.517981    ( 0.0000,  0.0000,  0.0000)
  45 O      4.158297    0.985639   20.613838    ( 0.0000,  0.0000,  0.0000)

Unit cell:
           periodic     x           y           z      points  spacing
  1. axis:    yes    8.509606    0.000000    0.000000    40     0.1842
  2. axis:    yes    4.254803    7.369535    0.000000    40     0.1842
  3. axis:    no     0.000000    0.000000   29.270571   140     0.2091

  Lengths:   8.509606   8.509606  29.270571
  Angles:   90.000000  90.000000  60.000000

Effective grid spacing dv^(1/3) = 0.2016

     iter     time        total  log10-change:
                         energy  eigst   dens
iter:   1 22:52:30  -195.551262  -2.77
iter:   2 22:53:40  -203.929170  -2.79  -2.01
iter:   3 22:54:49  -210.574758  -2.80  -1.75
iter:   4 22:55:59  -192.017075  -3.39  -1.62
iter:   5 22:57:08  -191.599926  -4.47  -2.38
iter:   6 22:58:17  -191.492560  -4.63  -2.52
iter:   7 22:59:27  -191.331908c -4.62  -2.60
iter:   8 23:00:38  -191.293637c -5.26  -2.65
iter:   9 23:01:49  -191.279919c -4.79  -2.88
iter:  10 23:02:59  -191.244130c -5.22  -2.87
iter:  11 23:04:09  -191.219530c -5.23  -2.96
iter:  12 23:05:19  -191.217026c -5.90  -3.27
iter:  13 23:06:30  -191.223323c -6.20  -3.35
iter:  14 23:07:41  -191.212476c -6.25  -3.29
iter:  15 23:08:52  -191.214328c -6.43  -3.32
iter:  16 23:10:03  -191.214947c -6.58  -3.59
iter:  17 23:11:14  -191.213772c -6.43  -3.69
iter:  18 23:12:25  -191.214257c -6.60  -3.69
iter:  19 23:13:36  -191.214292c -6.83  -3.78
iter:  20 23:14:47  -191.211185c -6.97  -3.87
iter:  21 23:15:57  -191.213068c -7.20  -3.55
iter:  22 23:17:08  -191.213270c -7.51c -4.09c

Converged after 22 iterations.

Dipole moment: (-4.072970, 8.476706, -0.370390) |e|*Ang

Energy contributions relative to reference atoms: (reference = -12373358.334139)

Kinetic:       -229.785050
Potential:     +104.070550
External:        +0.000000
XC:             -57.583102
Entropy (-ST):   -1.859953
Local:           -6.985692
--------------------------
Free energy:   -192.143247
Extrapolated:  -191.213270

Showing only first 2 kpts
 Kpt  Band  Eigenvalues  Occupancy
  0   366      0.73328    1.03388
  0   367      0.75338    0.93346
  0   368      0.80226    0.69866
  0   369      0.83775    0.54702

  1   366      0.60234    1.59707
  1   367      0.63222    1.49239
  1   368      0.65648    1.39515
  1   369      0.66888    1.34158


Fermi level: 0.74006

No gap

Forces in eV/Ang:
  0 Pd    0.70763    0.06178    0.10598
  1 Pt   -0.60091   -0.15994    0.54898
  2 Ag   -0.09751   -0.08015   -0.55847
  3 Pd   -0.05452   -0.33180    0.20899
  4 Ag   -0.00262    0.03820   -0.57548
  5 Ag    0.14493    0.16886   -0.49367
  6 Ag    0.04322   -0.00333   -0.47738
  7 Pd    0.22921    0.34504    0.06319
  8 Pd   -0.13361    0.12993    0.19775
  9 Pd   -0.00513    0.10874   -0.00059
 10 Pd    0.00362   -0.03684   -0.10190
 11 Pt   -0.03459   -0.14459    0.13842
 12 Ir    0.68700    0.14035   -0.00937
 13 Pt   -0.66320   -0.19270    0.27145
 14 Ag    0.10334   -0.02086    0.09427
 15 Pt   -0.29728    0.03550    0.10887
 16 Pd   -0.06041    0.27102    0.16444
 17 Pd    0.13380    0.00842    0.17033
 18 Ag   -0.00847    0.00470    0.03329
 19 Ag   -0.02258   -0.01432   -0.01109
 20 Pt   -0.06497   -0.01349    0.02455
 21 Ru    0.01426   -0.00908    0.00025
 22 Pd   -0.04378    0.02550    0.00949
 23 Pt   -0.01070   -0.01515    0.01789
 24 Pt   -0.00116    0.04104    0.02681
 25 Pt   -0.05293    0.01404    0.03077
 26 Ag   -0.02228   -0.03897   -0.00057
 27 Ag   -0.03230   -0.05228   -0.08200
 28 Ag    0.06736   -0.02554    0.25147
 29 Pt   -0.02969   -0.00534    0.11539
 30 Ag   -0.02188   -0.01258   -0.01697
 31 Pd    0.03496    0.00733    0.05662
 32 Ru   -0.01419   -0.02729   -0.00203
 33 Pd   -0.00614   -0.07229   -0.03723
 34 Pt    0.06288   -0.00528    0.10241
 35 Pd   -0.05505   -0.00886    0.03854
 36 Pt    0.16654   -0.07827   -0.07137
 37 Pt   -0.43655   -0.26776    0.07875
 38 Ag    0.67897   -0.40622   -0.16690
 39 Pt   -0.28222    0.10024   -0.04807
 40 Ru    0.01611   -0.38135    0.90625
 41 Pt    0.26695    0.02371   -0.08572
 42 Ir    0.09933   -0.36853    0.11201
 43 Pt   -0.01415   -0.16845    0.02823
 44 Ag    0.03466   -0.00770   -0.02301
 45 O    -0.35541    1.42726   -0.95715

System changes: positions 

Initializing position-dependent things.

Density initialized from wave functions
                                             
                                             
                                             
                                             
                                             
                                             
                               Ag            
                  Or    Pt                   
             Pt   PRu    PPt    Pd           
              Pt     Ag                      
       Pt    Ag     Pd     Ru                
        Ag            Pt                     
               Ag    Pt     Pt     Ag        
                       Pd     Pt             
                Ru                           
           Ag    PAg    PPt    Pd            
                                             
            Ir     Pt    PAg    Pd           
       Pd    PPd    APt    Ag                
                                             
        Pd     Pt     Ag                     
                                             
                                             
                                             
                                             
                                             

Positions:
   0 Pd     0.000000    1.637674   10.000000    ( 0.0000,  0.0000,  0.0000)
   1 Pt     2.836535    1.637674   10.000000    ( 0.0000,  0.0000,  0.0000)
   2 Ag     5.673071    1.637674   10.000000    ( 0.0000,  0.0000,  0.0000)
   3 Pd     1.418268    4.094186   10.000000    ( 0.0000,  0.0000,  0.0000)
   4 Ag     4.254803    4.094186   10.000000    ( 0.0000,  0.0000,  0.0000)
   5 Ag     7.091338    4.094186   10.000000    ( 0.0000,  0.0000,  0.0000)
   6 Ag     2.836535    6.550698   10.000000    ( 0.0000,  0.0000,  0.0000)
   7 Pd     5.673071    6.550698   10.000000    ( 0.0000,  0.0000,  0.0000)
   8 Pd     8.509606    6.550698   10.000000    ( 0.0000,  0.0000,  0.0000)
   9 Pd     0.000000    0.000000   12.317643    ( 0.0000,  0.0000,  0.0000)
  10 Pd     2.836535    0.000000   12.317643    ( 0.0000,  0.0000,  0.0000)
  11 Pt     5.673071    0.000000   12.317643    ( 0.0000,  0.0000,  0.0000)
  12 Ir     1.418268    2.456512   12.317643    ( 0.0000,  0.0000,  0.0000)
  13 Pt     4.254803    2.456512   12.317643    ( 0.0000,  0.0000,  0.0000)
  14 Ag     7.091338    2.456512   12.317643    ( 0.0000,  0.0000,  0.0000)
  15 Pt     2.836535    4.913023   12.317643    ( 0.0000,  0.0000,  0.0000)
  16 Pd     5.673071    4.913023   12.317643    ( 0.0000,  0.0000,  0.0000)
  17 Pd     8.509606    4.913023   12.317643    ( 0.0000,  0.0000,  0.0000)
  18 Ag     1.388380    0.764142   14.614575    ( 0.0000,  0.0000,  0.0000)
  19 Ag     4.219793    0.788600   14.656604    ( 0.0000,  0.0000,  0.0000)
  20 Pt     7.061948    0.798112   14.667590    ( 0.0000,  0.0000,  0.0000)
  21 Ru     2.757652    3.307184   14.388459    ( 0.0000,  0.0000,  0.0000)
  22 Pd     5.600681    3.224394   14.640383    ( 0.0000,  0.0000,  0.0000)
  23 Pt     8.522854    3.257138   14.661615    ( 0.0000,  0.0000,  0.0000)
  24 Pt     4.170882    5.668812   14.607031    ( 0.0000,  0.0000,  0.0000)
  25 Pt     7.040014    5.609778   14.667280    ( 0.0000,  0.0000,  0.0000)
  26 Ag     9.874405    5.748340   14.695399    ( 0.0000,  0.0000,  0.0000)
  27 Ag     0.010764    1.609301   16.990075    ( 0.0000,  0.0000,  0.0000)
  28 Ag     2.801368    1.627368   16.885457    ( 0.0000,  0.0000,  0.0000)
  29 Pt     5.664523    1.652471   17.001750    ( 0.0000,  0.0000,  0.0000)
  30 Ag     1.341132    4.088576   17.009699    ( 0.0000,  0.0000,  0.0000)
  31 Pd     4.161984    4.030528   16.822162    ( 0.0000,  0.0000,  0.0000)
  32 Ru     6.952396    4.056509   16.878417    ( 0.0000,  0.0000,  0.0000)
  33 Pd     2.789159    6.562167   17.033824    ( 0.0000,  0.0000,  0.0000)
  34 Pt     5.679633    6.436973   16.957914    ( 0.0000,  0.0000,  0.0000)
  35 Pd     8.430644    6.494460   17.046424    ( 0.0000,  0.0000,  0.0000)
  36 Pt     0.082259   -0.052867   19.253156    ( 0.0000,  0.0000,  0.0000)
  37 Pt     2.832272    0.080837   19.404580    ( 0.0000,  0.0000,  0.0000)
  38 Ag     5.813035   -0.045538   19.482139    ( 0.0000,  0.0000,  0.0000)
  39 Pt     1.499504    2.502566   19.381324    ( 0.0000,  0.0000,  0.0000)
  40 Ru     4.255973    2.491030   19.370285    ( 0.0000,  0.0000,  0.0000)
  41 Pt     7.147413    2.513736   19.196822    ( 0.0000,  0.0000,  0.0000)
  42 Ir     3.063675    4.785797   19.136607    ( 0.0000,  0.0000,  0.0000)
  43 Pt     5.712588    4.843956   19.155703    ( 0.0000,  0.0000,  0.0000)
  44 Ag     8.571140    4.879671   19.517169    ( 0.0000,  0.0000,  0.0000)
  45 O      4.087842    1.077585   20.450798    ( 0.0000,  0.0000,  0.0000)

Unit cell:
           periodic     x           y           z      points  spacing
  1. axis:    yes    8.509606    0.000000    0.000000    40     0.1842
  2. axis:    yes    4.254803    7.369535    0.000000    40     0.1842
  3. axis:    no     0.000000    0.000000   29.270571   140     0.2091

  Lengths:   8.509606   8.509606  29.270571
  Angles:   90.000000  90.000000  60.000000

Effective grid spacing dv^(1/3) = 0.2016

     iter     time        total  log10-change:
                         energy  eigst   dens
iter:   1 23:18:41  -196.670551  -2.71
iter:   2 23:19:50  -226.548359  -2.59  -1.96
iter:   3 23:21:00  -204.837910  -2.59  -1.53
iter:   4 23:22:10  -193.801934  -3.60  -1.74
iter:   5 23:23:19  -192.942288  -4.45  -2.12
iter:   6 23:24:29  -191.646931  -4.33  -2.21
iter:   7 23:25:38  -191.380959  -4.48  -2.59
iter:   8 23:26:48  -191.328944c -5.10  -2.76
iter:   9 23:27:57  -191.345149c -5.17  -2.91
iter:  10 23:29:06  -191.384791c -4.97  -2.74
iter:  11 23:30:16  -191.304672c -4.84  -2.76
iter:  12 23:31:25  -191.276614c -5.16  -2.82
iter:  13 23:32:35  -191.271199c -5.91  -3.25
iter:  14 23:33:44  -191.270550c -6.39  -3.40
iter:  15 23:34:54  -191.270303c -6.61  -3.47
iter:  16 23:36:03  -191.275578c -6.40  -3.44
iter:  17 23:37:13  -191.268040c -6.64  -3.42
iter:  18 23:38:23  -191.271386c -6.90  -3.60
iter:  19 23:39:33  -191.269278c -6.76  -3.71
iter:  20 23:40:43  -191.271532c -6.76  -3.82
iter:  21 23:41:53  -191.271080c -6.88  -3.77
iter:  22 23:43:04  -191.270843c -7.07  -3.78
iter:  23 23:44:14  -191.269028c -7.55c -3.90
iter:  24 23:45:24  -191.270507c -7.73c -3.92
iter:  25 23:46:35  -191.269669c -7.84c -4.06c

Converged after 25 iterations.

Dipole moment: (-2.738098, 10.039599, -0.222168) |e|*Ang

Energy contributions relative to reference atoms: (reference = -12373358.334139)

Kinetic:       -215.549261
Potential:      +92.362774
External:        +0.000000
XC:             -59.992333
Entropy (-ST):   -1.830641
Local:           -7.175529
--------------------------
Free energy:   -192.184989
Extrapolated:  -191.269669

Showing only first 2 kpts
 Kpt  Band  Eigenvalues  Occupancy
  0   366      0.80627    1.03434
  0   367      0.82770    0.92734
  0   368      0.87406    0.70448
  0   369      0.90618    0.56569

  1   366      0.67762    1.58995
  1   367      0.70721    1.48514
  1   368      0.72908    1.39719
  1   369      0.74136    1.34424


Fermi level: 0.81314

No gap

Forces in eV/Ang:
  0 Pd    0.72276    0.05663    0.08750
  1 Pt   -0.61555   -0.17606    0.53314
  2 Ag   -0.09879   -0.08343   -0.56874
  3 Pd   -0.05438   -0.32918    0.19905
  4 Ag   -0.00187    0.04237   -0.58392
  5 Ag    0.14527    0.17520   -0.50296
  6 Ag    0.04162   -0.00444   -0.48608
  7 Pd    0.23550    0.35893    0.05172
  8 Pd   -0.13792    0.13140    0.18118
  9 Pd   -0.00242    0.11144    0.00857
 10 Pd   -0.00039   -0.04223   -0.10992
 11 Pt   -0.03983   -0.15025    0.13129
 12 Ir    0.69140    0.14213   -0.01619
 13 Pt   -0.64986   -0.20229    0.26092
 14 Ag    0.10043   -0.02288    0.10130
 15 Pt   -0.29510    0.04060    0.11561
 16 Pd   -0.06170    0.27393    0.15343
 17 Pd    0.12911    0.01002    0.15786
 18 Ag   -0.01361   -0.00402    0.05197
 19 Ag   -0.03587   -0.00910   -0.00594
 20 Pt   -0.04672    0.01608    0.00882
 21 Ru   -0.02673   -0.01133    0.00049
 22 Pd   -0.03556    0.03442    0.02933
 23 Pt   -0.01229   -0.00978    0.00852
 24 Pt    0.03613   -0.00529    0.09200
 25 Pt   -0.06593   -0.00141    0.08664
 26 Ag   -0.01297   -0.03750   -0.00743
 27 Ag    0.00909   -0.08682   -0.13692
 28 Ag    0.10046   -0.03805    0.39302
 29 Pt   -0.02728   -0.04893    0.23174
 30 Ag    0.01180   -0.00122   -0.05704
 31 Pd    0.08246    0.03779    0.02239
 32 Ru   -0.05712    0.02961   -0.08983
 33 Pd    0.04041   -0.11727   -0.13162
 34 Pt    0.01185   -0.09020   -0.09420
 35 Pd   -0.09069    0.04310    0.16796
 36 Pt    0.26142   -0.12460    0.02514
 37 Pt   -1.75366   -1.35813   -1.26852
 38 Ag    0.58073   -0.46780   -0.21354
 39 Pt   -0.34298    0.04147   -0.04590
 40 Ru    0.33041    2.16055   -1.63465
 41 Pt    0.25083   -0.08097    0.00141
 42 Ir    0.03175   -0.38458    0.27584
 43 Pt   -0.07051   -0.12636    0.16449
 44 Ag    0.03478    0.13690    0.01175
 45 O     0.75571    0.19998    2.52648

System changes: positions 

Initializing position-dependent things.

Density initialized from wave functions
                                             
                                             
                                             
                                             
                                             
                                             
                               Ag            
                  Or    Pt                   
             Pt   PRu    PPt    Pd           
                     Ag                      
       Pt    APt    Pd     Ru                
        Ag            Pt                     
               Ag    Pt     Pt     Ag        
                       Pd     Pt             
                Ru                           
           Ag    PAg    PPt    Pd            
                                             
            Ir     Pt    PAg    Pd           
       Pd    PPd    APt    Ag                
                                             
        Pd     Pt     Ag                     
                                             
                                             
                                             
                                             
                                             

Positions:
   0 Pd     0.000000    1.637674   10.000000    ( 0.0000,  0.0000,  0.0000)
   1 Pt     2.836535    1.637674   10.000000    ( 0.0000,  0.0000,  0.0000)
   2 Ag     5.673071    1.637674   10.000000    ( 0.0000,  0.0000,  0.0000)
   3 Pd     1.418268    4.094186   10.000000    ( 0.0000,  0.0000,  0.0000)
   4 Ag     4.254803    4.094186   10.000000    ( 0.0000,  0.0000,  0.0000)
   5 Ag     7.091338    4.094186   10.000000    ( 0.0000,  0.0000,  0.0000)
   6 Ag     2.836535    6.550698   10.000000    ( 0.0000,  0.0000,  0.0000)
   7 Pd     5.673071    6.550698   10.000000    ( 0.0000,  0.0000,  0.0000)
   8 Pd     8.509606    6.550698   10.000000    ( 0.0000,  0.0000,  0.0000)
   9 Pd     0.000000    0.000000   12.317643    ( 0.0000,  0.0000,  0.0000)
  10 Pd     2.836535    0.000000   12.317643    ( 0.0000,  0.0000,  0.0000)
  11 Pt     5.673071    0.000000   12.317643    ( 0.0000,  0.0000,  0.0000)
  12 Ir     1.418268    2.456512   12.317643    ( 0.0000,  0.0000,  0.0000)
  13 Pt     4.254803    2.456512   12.317643    ( 0.0000,  0.0000,  0.0000)
  14 Ag     7.091338    2.456512   12.317643    ( 0.0000,  0.0000,  0.0000)
  15 Pt     2.836535    4.913023   12.317643    ( 0.0000,  0.0000,  0.0000)
  16 Pd     5.673071    4.913023   12.317643    ( 0.0000,  0.0000,  0.0000)
  17 Pd     8.509606    4.913023   12.317643    ( 0.0000,  0.0000,  0.0000)
  18 Ag     1.388473    0.763621   14.614094    ( 0.0000,  0.0000,  0.0000)
  19 Ag     4.220226    0.789121   14.656182    ( 0.0000,  0.0000,  0.0000)
  20 Pt     7.064191    0.799779   14.666862    ( 0.0000,  0.0000,  0.0000)
  21 Ru     2.755760    3.307183   14.388372    ( 0.0000,  0.0000,  0.0000)
  22 Pd     5.601976    3.223997   14.640170    ( 0.0000,  0.0000,  0.0000)
  23 Pt     8.523210    3.257618   14.661317    ( 0.0000,  0.0000,  0.0000)
  24 Pt     4.171855    5.666201   14.608792    ( 0.0000,  0.0000,  0.0000)
  25 Pt     7.041010    5.609368   14.668327    ( 0.0000,  0.0000,  0.0000)
  26 Ag     9.875521    5.749631   14.695214    ( 0.0000,  0.0000,  0.0000)
  27 Ag     0.012183    1.610250   16.990676    ( 0.0000,  0.0000,  0.0000)
  28 Ag     2.801335    1.626871   16.885843    ( 0.0000,  0.0000,  0.0000)
  29 Pt     5.666382    1.649760   17.004805    ( 0.0000,  0.0000,  0.0000)
  30 Ag     1.341463    4.089826   17.008429    ( 0.0000,  0.0000,  0.0000)
  31 Pd     4.163292    4.032615   16.819868    ( 0.0000,  0.0000,  0.0000)
  32 Ru     6.952155    4.058691   16.875582    ( 0.0000,  0.0000,  0.0000)
  33 Pd     2.791066    6.563086   17.031490    ( 0.0000,  0.0000,  0.0000)
  34 Pt     5.675534    6.433060   16.947471    ( 0.0000,  0.0000,  0.0000)
  35 Pd     8.430993    6.496812   17.051243    ( 0.0000,  0.0000,  0.0000)
  36 Pt     0.081021   -0.051111   19.257646    ( 0.0000,  0.0000,  0.0000)
  37 Pt     2.817123    0.075667   19.364442    ( 0.0000,  0.0000,  0.0000)
  38 Ag     5.792025   -0.036309   19.481137    ( 0.0000,  0.0000,  0.0000)
  39 Pt     1.508795    2.494990   19.386071    ( 0.0000,  0.0000,  0.0000)
  40 Ru     4.253996    2.528290   19.302584    ( 0.0000,  0.0000,  0.0000)
  41 Pt     7.139852    2.509044   19.201397    ( 0.0000,  0.0000,  0.0000)
  42 Ir     3.059449    4.792562   19.139182    ( 0.0000,  0.0000,  0.0000)
  43 Pt     5.711569    4.848368   19.159213    ( 0.0000,  0.0000,  0.0000)
  44 Ag     8.570414    4.883715   19.517789    ( 0.0000,  0.0000,  0.0000)
  45 O      4.127212    1.039181   20.546188    ( 0.0000,  0.0000,  0.0000)

Unit cell:
           periodic     x           y           z      points  spacing
  1. axis:    yes    8.509606    0.000000    0.000000    40     0.1842
  2. axis:    yes    4.254803    7.369535    0.000000    40     0.1842
  3. axis:    no     0.000000    0.000000   29.270571   140     0.2091

  Lengths:   8.509606   8.509606  29.270571
  Angles:   90.000000  90.000000  60.000000

Effective grid spacing dv^(1/3) = 0.2016

     iter     time        total  log10-change:
                         energy  eigst   dens
iter:   1 23:48:06  -196.969683  -2.87
iter:   2 23:49:14  -240.843667  -2.65  -1.96
iter:   3 23:50:22  -193.340485  -2.77  -1.43
iter:   4 23:51:32  -195.139898  -3.47  -2.11
iter:   5 23:52:41  -191.906215  -3.93  -2.04
iter:   6 23:53:50  -191.573301  -4.44  -2.53
iter:   7 23:54:59  -191.514082  -4.96  -2.67
iter:   8 23:56:08  -191.491596c -5.15  -2.83
iter:   9 23:57:17  -191.468378c -5.05  -2.94
iter:  10 23:58:25  -191.501656c -5.42  -3.06
iter:  11 23:59:33  -191.484378c -5.31  -2.77
iter:  12 00:00:44  -191.465489c -5.34  -2.97
iter:  13 00:01:53  -191.443756c -5.90  -3.11
iter:  14 00:03:03  -191.449793c -6.47  -3.49
iter:  15 00:04:12  -191.443748c -6.36  -3.39
iter:  16 00:05:21  -191.444813c -6.98  -3.70
iter:  17 00:06:31  -191.442959c -6.57  -3.65
iter:  18 00:07:41  -191.443240c -6.78  -3.59
iter:  19 00:08:51  -191.443609c -7.33  -3.85
iter:  20 00:10:01  -191.444485c -7.20  -3.97
iter:  21 00:11:12  -191.442721c -7.33  -3.97
iter:  22 00:12:23  -191.444455c -7.31  -4.13c
iter:  23 00:13:35  -191.443664c -7.73c -4.09c

Converged after 23 iterations.

Dipole moment: (-3.061819, 9.888547, -0.313838) |e|*Ang

Energy contributions relative to reference atoms: (reference = -12373358.334139)

Kinetic:       -226.083518
Potential:     +100.941014
External:        +0.000000
XC:             -58.319973
Entropy (-ST):   -1.846274
Local:           -7.058051
--------------------------
Free energy:   -192.366801
Extrapolated:  -191.443664

Showing only first 2 kpts
 Kpt  Band  Eigenvalues  Occupancy
  0   366      0.76228    1.03850
  0   367      0.78378    0.93115
  0   368      0.83224    0.69837
  0   369      0.86951    0.53974

  1   366      0.63755    1.57981
  1   367      0.66547    1.47969
  1   368      0.68293    1.40973
  1   369      0.70084    1.33259


Fermi level: 0.76998

No gap

Forces in eV/Ang:
  0 Pd    0.71323    0.05726    0.11624
  1 Pt   -0.60484   -0.16069    0.56583
  2 Ag   -0.09900   -0.08299   -0.54964
  3 Pd   -0.04747   -0.33430    0.22428
  4 Ag   -0.00755    0.03566   -0.56470
  5 Ag    0.14423    0.16968   -0.48143
  6 Ag    0.04166   -0.00226   -0.46916
  7 Pd    0.23086    0.35358    0.07471
  8 Pd   -0.13482    0.13462    0.20831
  9 Pd   -0.00352    0.11529    0.00700
 10 Pd    0.00035   -0.03486   -0.10822
 11 Pt   -0.03707   -0.14757    0.13468
 12 Ir    0.69061    0.14488   -0.01284
 13 Pt   -0.66248   -0.19370    0.26242
 14 Ag    0.10416   -0.02172    0.10054
 15 Pt   -0.29871    0.02912    0.11698
 16 Pd   -0.06225    0.26943    0.16480
 17 Pd    0.13432    0.00526    0.16811
 18 Ag   -0.01246   -0.00135    0.03797
 19 Ag   -0.02918   -0.01096    0.00349
 20 Pt   -0.04864    0.00107    0.01023
 21 Ru   -0.00727   -0.00298   -0.00577
 22 Pd   -0.03487    0.03555    0.02111
 23 Pt   -0.01617   -0.00648    0.00068
 24 Pt    0.01924    0.01597    0.05460
 25 Pt   -0.06172   -0.00279    0.05484
 26 Ag   -0.01743   -0.03909   -0.00552
 27 Ag   -0.00210   -0.07534   -0.10862
 28 Ag    0.10246   -0.01270    0.32542
 29 Pt   -0.06385    0.00995    0.18020
 30 Ag    0.02054   -0.01406   -0.03877
 31 Pd    0.05336   -0.01478    0.06337
 32 Ru   -0.05949   -0.00129   -0.05540
 33 Pd    0.01534   -0.10084   -0.08489
 34 Pt    0.05339   -0.05102    0.00157
 35 Pd   -0.07967    0.02147    0.08606
 36 Pt    0.18036   -0.10256   -0.01766
 37 Pt   -0.66887   -0.48574   -0.32640
 38 Ag    0.50499   -0.37054   -0.13150
 39 Pt   -0.27811    0.04710   -0.11305
 40 Ru    0.06023    0.05804    0.22811
 41 Pt    0.20970   -0.02925   -0.05455
 42 Ir    0.06888   -0.37542    0.15668
 43 Pt   -0.03506   -0.16285    0.08630
 44 Ag    0.02692    0.09171   -0.00353
 45 O    -0.00878    1.22418   -0.32936

System changes: positions 

Initializing position-dependent things.

Density initialized from wave functions
                                             
                                             
                                             
                                             
                                             
                                             
                               Ag            
                  Or    Pt                   
             Pt   PRu    PPt    Pd           
                     Ag                      
       Pt    APt    Pd     Ru                
        Ag            Pt                     
               Ag    Pt     Pt     Ag        
                       Pd     Pt             
                Ru                           
           Ag    PAg    PPt    Pd            
                                             
            Ir     Pt    PAg    Pd           
       Pd    PPd    APt    Ag                
                                             
        Pd     Pt     Ag                     
                                             
                                             
                                             
                                             
                                             

Positions:
   0 Pd     0.000000    1.637674   10.000000    ( 0.0000,  0.0000,  0.0000)
   1 Pt     2.836535    1.637674   10.000000    ( 0.0000,  0.0000,  0.0000)
   2 Ag     5.673071    1.637674   10.000000    ( 0.0000,  0.0000,  0.0000)
   3 Pd     1.418268    4.094186   10.000000    ( 0.0000,  0.0000,  0.0000)
   4 Ag     4.254803    4.094186   10.000000    ( 0.0000,  0.0000,  0.0000)
   5 Ag     7.091338    4.094186   10.000000    ( 0.0000,  0.0000,  0.0000)
   6 Ag     2.836535    6.550698   10.000000    ( 0.0000,  0.0000,  0.0000)
   7 Pd     5.673071    6.550698   10.000000    ( 0.0000,  0.0000,  0.0000)
   8 Pd     8.509606    6.550698   10.000000    ( 0.0000,  0.0000,  0.0000)
   9 Pd     0.000000    0.000000   12.317643    ( 0.0000,  0.0000,  0.0000)
  10 Pd     2.836535    0.000000   12.317643    ( 0.0000,  0.0000,  0.0000)
  11 Pt     5.673071    0.000000   12.317643    ( 0.0000,  0.0000,  0.0000)
  12 Ir     1.418268    2.456512   12.317643    ( 0.0000,  0.0000,  0.0000)
  13 Pt     4.254803    2.456512   12.317643    ( 0.0000,  0.0000,  0.0000)
  14 Ag     7.091338    2.456512   12.317643    ( 0.0000,  0.0000,  0.0000)
  15 Pt     2.836535    4.913023   12.317643    ( 0.0000,  0.0000,  0.0000)
  16 Pd     5.673071    4.913023   12.317643    ( 0.0000,  0.0000,  0.0000)
  17 Pd     8.509606    4.913023   12.317643    ( 0.0000,  0.0000,  0.0000)
  18 Ag     1.388271    0.763820   14.614784    ( 0.0000,  0.0000,  0.0000)
  19 Ag     4.219572    0.788807   14.656314    ( 0.0000,  0.0000,  0.0000)
  20 Pt     7.062778    0.799349   14.667080    ( 0.0000,  0.0000,  0.0000)
  21 Ru     2.756180    3.307091   14.388307    ( 0.0000,  0.0000,  0.0000)
  22 Pd     5.600998    3.224505   14.640366    ( 0.0000,  0.0000,  0.0000)
  23 Pt     8.522814    3.257318   14.661286    ( 0.0000,  0.0000,  0.0000)
  24 Pt     4.171920    5.667239   14.608899    ( 0.0000,  0.0000,  0.0000)
  25 Pt     7.039824    5.609531   14.668762    ( 0.0000,  0.0000,  0.0000)
  26 Ag     9.874932    5.748634   14.695019    ( 0.0000,  0.0000,  0.0000)
  27 Ag     0.011720    1.608812   16.988681    ( 0.0000,  0.0000,  0.0000)
  28 Ag     2.802370    1.626544   16.890022    ( 0.0000,  0.0000,  0.0000)
  29 Pt     5.665605    1.650090   17.006264    ( 0.0000,  0.0000,  0.0000)
  30 Ag     1.341390    4.089262   17.008078    ( 0.0000,  0.0000,  0.0000)
  31 Pd     4.163839    4.032702   16.820627    ( 0.0000,  0.0000,  0.0000)
  32 Ru     6.951637    4.057952   16.875564    ( 0.0000,  0.0000,  0.0000)
  33 Pd     2.791048    6.561223   17.030541    ( 0.0000,  0.0000,  0.0000)
  34 Pt     5.676923    6.433434   16.950269    ( 0.0000,  0.0000,  0.0000)
  35 Pd     8.430104    6.496209   17.050928    ( 0.0000,  0.0000,  0.0000)
  36 Pt     0.084303   -0.053303   19.256209    ( 0.0000,  0.0000,  0.0000)
  37 Pt     2.806613    0.065706   19.367742    ( 0.0000,  0.0000,  0.0000)
  38 Ag     5.805553   -0.044402   19.479544    ( 0.0000,  0.0000,  0.0000)
  39 Pt     1.501604    2.497857   19.383812    ( 0.0000,  0.0000,  0.0000)
  40 Ru     4.256916    2.527540   19.318452    ( 0.0000,  0.0000,  0.0000)
  41 Pt     7.145499    2.509650   19.199634    ( 0.0000,  0.0000,  0.0000)
  42 Ir     3.061530    4.785390   19.141650    ( 0.0000,  0.0000,  0.0000)
  43 Pt     5.711217    4.845007   19.160121    ( 0.0000,  0.0000,  0.0000)
  44 Ag     8.570960    4.884091   19.518024    ( 0.0000,  0.0000,  0.0000)
  45 O      4.120244    1.063139   20.529623    ( 0.0000,  0.0000,  0.0000)

Unit cell:
           periodic     x           y           z      points  spacing
  1. axis:    yes    8.509606    0.000000    0.000000    40     0.1842
  2. axis:    yes    4.254803    7.369535    0.000000    40     0.1842
  3. axis:    no     0.000000    0.000000   29.270571   140     0.2091

  Lengths:   8.509606   8.509606  29.270571
  Angles:   90.000000  90.000000  60.000000

Effective grid spacing dv^(1/3) = 0.2016

     iter     time        total  log10-change:
                         energy  eigst   dens
iter:   1 00:15:09  -191.587739  -4.16
iter:   2 00:16:20  -191.713971  -4.58  -2.85
iter:   3 00:17:29  -191.856553c -4.69  -2.59
iter:   4 00:18:40  -191.515750c -5.10  -2.48
iter:   5 00:19:51  -191.518268c -6.01  -3.22
iter:   6 00:21:01  -191.506070c -6.20  -3.36
iter:   7 00:22:11  -191.508489c -6.75  -3.46
iter:   8 00:23:22  -191.506932c -6.77  -3.76
iter:   9 00:24:32  -191.510975c -6.41  -3.67
iter:  10 00:25:43  -191.505933c -6.79  -3.55
iter:  11 00:26:53  -191.507170c -6.99  -3.69
iter:  12 00:28:03  -191.506151c -7.70c -4.10c

Converged after 12 iterations.

Dipole moment: (-2.527839, 10.703309, -0.297432) |e|*Ang

Energy contributions relative to reference atoms: (reference = -12373358.334139)

Kinetic:       -225.035167
Potential:     +100.001631
External:        +0.000000
XC:             -58.520120
Entropy (-ST):   -1.844245
Local:           -7.030372
--------------------------
Free energy:   -192.428274
Extrapolated:  -191.506151

Showing only first 2 kpts
 Kpt  Band  Eigenvalues  Occupancy
  0   366      0.76795    1.03386
  0   367      0.78804    0.93351
  0   368      0.83778    0.69478
  0   369      0.87260    0.54626

  1   366      0.64210    1.58044
  1   367      0.67012    1.48001
  1   368      0.68818    1.40759
  1   369      0.70666    1.32775


Fermi level: 0.77472

No gap

Forces in eV/Ang:
  0 Pd    0.71163    0.05716    0.10405
  1 Pt   -0.60600   -0.16015    0.54808
  2 Ag   -0.09819   -0.08200   -0.55888
  3 Pd   -0.04902   -0.33184    0.20832
  4 Ag   -0.00545    0.03706   -0.57445
  5 Ag    0.14218    0.16987   -0.49019
  6 Ag    0.04181   -0.00288   -0.47951
  7 Pd    0.23004    0.35102    0.06248
  8 Pd   -0.13490    0.13201    0.19441
  9 Pd   -0.00317    0.11859    0.00853
 10 Pd   -0.00101   -0.03377   -0.10977
 11 Pt   -0.03738   -0.14678    0.13336
 12 Ir    0.68795    0.14283   -0.01352
 13 Pt   -0.65896   -0.19585    0.25882
 14 Ag    0.10407   -0.02257    0.09956
 15 Pt   -0.29915    0.03006    0.11579
 16 Pd   -0.06149    0.26868    0.15920
 17 Pd    0.13141    0.00472    0.16437
 18 Ag   -0.00673    0.00088    0.03303
 19 Ag   -0.03430   -0.00519    0.00785
 20 Pt   -0.04457    0.00554   -0.00423
 21 Ru   -0.01409   -0.01030   -0.00689
 22 Pd   -0.02818    0.02827    0.01329
 23 Pt   -0.01572   -0.00413   -0.01548
 24 Pt    0.02357    0.01034    0.05768
 25 Pt   -0.05694   -0.00514    0.04424
 26 Ag   -0.01781   -0.03356   -0.01265
 27 Ag    0.00272   -0.08089   -0.13239
 28 Ag    0.12556   -0.00231    0.33207
 29 Pt   -0.09386   -0.00111    0.21610
 30 Ag    0.03791   -0.00697   -0.05141
 31 Pd    0.04606   -0.02799    0.05254
 32 Ru   -0.07329    0.00237   -0.08023
 33 Pd    0.00865   -0.10570   -0.08964
 34 Pt    0.03680   -0.06999   -0.06166
 35 Pd   -0.04955    0.05061    0.11213
 36 Pt    0.10121   -0.11952    0.01230
 37 Pt   -0.49888   -0.43485   -0.32876
 38 Ag    0.38363   -0.34770   -0.10261
 39 Pt   -0.23407    0.01402   -0.13455
 40 Ru    0.09159    0.25048   -0.15186
 41 Pt    0.15512   -0.06271   -0.04082
 42 Ir    0.02818   -0.31437    0.13993
 43 Pt   -0.03579   -0.15962    0.09922
 44 Ag    0.03208    0.16721    0.02640
 45 O     0.03581    0.97914   -0.08273

System changes: positions 

Initializing position-dependent things.

Density initialized from wave functions
                                             
                                             
                                             
                                             
                                             
                                             
                               Ag            
                  Or    Pt                   
             Pt   PRu    PPt    Pd           
                      Ag                     
       Pt    APt    Pd     Ru                
        Ag            Pt                     
               Ag    Pt     Pt     Ag        
                       Pd     Pt             
                Ru                           
           Ag    PAg    PPt    Pd            
                                             
            Ir     Pt    PAg    Pd           
       Pd    PPd    APt    Ag                
                                             
        Pd     Pt     Ag                     
                                             
                                             
                                             
                                             
                                             

Positions:
   0 Pd     0.000000    1.637674   10.000000    ( 0.0000,  0.0000,  0.0000)
   1 Pt     2.836535    1.637674   10.000000    ( 0.0000,  0.0000,  0.0000)
   2 Ag     5.673071    1.637674   10.000000    ( 0.0000,  0.0000,  0.0000)
   3 Pd     1.418268    4.094186   10.000000    ( 0.0000,  0.0000,  0.0000)
   4 Ag     4.254803    4.094186   10.000000    ( 0.0000,  0.0000,  0.0000)
   5 Ag     7.091338    4.094186   10.000000    ( 0.0000,  0.0000,  0.0000)
   6 Ag     2.836535    6.550698   10.000000    ( 0.0000,  0.0000,  0.0000)
   7 Pd     5.673071    6.550698   10.000000    ( 0.0000,  0.0000,  0.0000)
   8 Pd     8.509606    6.550698   10.000000    ( 0.0000,  0.0000,  0.0000)
   9 Pd     0.000000    0.000000   12.317643    ( 0.0000,  0.0000,  0.0000)
  10 Pd     2.836535    0.000000   12.317643    ( 0.0000,  0.0000,  0.0000)
  11 Pt     5.673071    0.000000   12.317643    ( 0.0000,  0.0000,  0.0000)
  12 Ir     1.418268    2.456512   12.317643    ( 0.0000,  0.0000,  0.0000)
  13 Pt     4.254803    2.456512   12.317643    ( 0.0000,  0.0000,  0.0000)
  14 Ag     7.091338    2.456512   12.317643    ( 0.0000,  0.0000,  0.0000)
  15 Pt     2.836535    4.913023   12.317643    ( 0.0000,  0.0000,  0.0000)
  16 Pd     5.673071    4.913023   12.317643    ( 0.0000,  0.0000,  0.0000)
  17 Pd     8.509606    4.913023   12.317643    ( 0.0000,  0.0000,  0.0000)
  18 Ag     1.387793    0.764455   14.616954    ( 0.0000,  0.0000,  0.0000)
  19 Ag     4.217055    0.788077   14.656899    ( 0.0000,  0.0000,  0.0000)
  20 Pt     7.058486    0.798546   14.666985    ( 0.0000,  0.0000,  0.0000)
  21 Ru     2.756751    3.306458   14.387932    ( 0.0000,  0.0000,  0.0000)
  22 Pd     5.598116    3.226017   14.640684    ( 0.0000,  0.0000,  0.0000)
  23 Pt     8.521448    3.256515   14.660287    ( 0.0000,  0.0000,  0.0000)
  24 Pt     4.172705    5.669935   14.610117    ( 0.0000,  0.0000,  0.0000)
  25 Pt     7.035896    5.609839   14.670300    ( 0.0000,  0.0000,  0.0000)
  26 Ag     9.873108    5.745594   14.693908    ( 0.0000,  0.0000,  0.0000)
  27 Ag     0.010728    1.603466   16.980315    ( 0.0000,  0.0000,  0.0000)
  28 Ag     2.807598    1.625740   16.906564    ( 0.0000,  0.0000,  0.0000)
  29 Pt     5.661649    1.650135   17.014792    ( 0.0000,  0.0000,  0.0000)
  30 Ag     1.342181    4.087888   17.005696    ( 0.0000,  0.0000,  0.0000)
  31 Pd     4.166036    4.032833   16.822513    ( 0.0000,  0.0000,  0.0000)
  32 Ru     6.948780    4.056096   16.873257    ( 0.0000,  0.0000,  0.0000)
  33 Pd     2.791314    6.554282   17.025923    ( 0.0000,  0.0000,  0.0000)
  34 Pt     5.680102    6.432454   16.954110    ( 0.0000,  0.0000,  0.0000)
  35 Pd     8.428121    6.496220   17.052698    ( 0.0000,  0.0000,  0.0000)
  36 Pt     0.092391   -0.061647   19.253763    ( 0.0000,  0.0000,  0.0000)
  37 Pt     2.773866    0.032836   19.368304    ( 0.0000,  0.0000,  0.0000)
  38 Ag     5.842708   -0.070163   19.474637    ( 0.0000,  0.0000,  0.0000)
  39 Pt     1.480307    2.504097   19.375597    ( 0.0000,  0.0000,  0.0000)
  40 Ru     4.266935    2.536354   19.344178    ( 0.0000,  0.0000,  0.0000)
  41 Pt     7.161222    2.508718   19.195069    ( 0.0000,  0.0000,  0.0000)
  42 Ir     3.066095    4.763280   19.150762    ( 0.0000,  0.0000,  0.0000)
  43 Pt     5.709576    4.833785   19.165236    ( 0.0000,  0.0000,  0.0000)
  44 Ag     8.572968    4.890549   19.520369    ( 0.0000,  0.0000,  0.0000)
  45 O      4.107621    1.134813   20.499742    ( 0.0000,  0.0000,  0.0000)

Unit cell:
           periodic     x           y           z      points  spacing
  1. axis:    yes    8.509606    0.000000    0.000000    40     0.1842
  2. axis:    yes    4.254803    7.369535    0.000000    40     0.1842
  3. axis:    no     0.000000    0.000000   29.270571   140     0.2091

  Lengths:   8.509606   8.509606  29.270571
  Angles:   90.000000  90.000000  60.000000

Effective grid spacing dv^(1/3) = 0.2016

     iter     time        total  log10-change:
                         energy  eigst   dens
iter:   1 00:29:37  -197.022357  -3.22
iter:   2 00:30:47  -264.129741  -2.41  -1.89
iter:   3 00:31:58  -195.356330  -2.67  -1.36
iter:   4 00:33:07  -192.020997  -3.73  -2.04
iter:   5 00:34:18  -191.827006  -4.57  -2.50
iter:   6 00:35:28  -191.729817c -5.01  -2.66
iter:   7 00:36:38  -191.679816c -5.34  -2.82
iter:   8 00:37:49  -191.625062c -5.02  -2.90
iter:   9 00:38:59  -191.631921c -5.72  -3.19
iter:  10 00:40:10  -191.627184c -5.62  -3.20
iter:  11 00:41:20  -191.614531c -5.64  -3.01
iter:  12 00:42:31  -191.614360c -6.09  -3.55
iter:  13 00:43:42  -191.613566c -6.74  -3.63
iter:  14 00:44:51  -191.614038c -6.96  -3.78
iter:  15 00:46:01  -191.612601c -6.84  -3.86
iter:  16 00:47:10  -191.614646c -7.22  -3.79
iter:  17 00:48:19  -191.613119c -7.32  -3.98
iter:  18 00:49:29  -191.613745c -7.80c -4.00c

Converged after 18 iterations.

Dipole moment: (-0.671532, 13.402998, -0.279292) |e|*Ang

Energy contributions relative to reference atoms: (reference = -12373358.334139)

Kinetic:       -220.874095
Potential:      +96.277950
External:        +0.000000
XC:             -59.030622
Entropy (-ST):   -1.834043
Local:           -7.069958
--------------------------
Free energy:   -192.530767
Extrapolated:  -191.613745

Showing only first 2 kpts
 Kpt  Band  Eigenvalues  Occupancy
  0   366      0.77865    1.02232
  0   367      0.79849    0.92331
  0   368      0.84530    0.69873
  0   369      0.87454    0.57228

  1   366      0.65167    1.57653
  1   367      0.67457    1.49505
  1   368      0.70153    1.38672
  1   369      0.71631    1.32215


Fermi level: 0.78312

No gap

Forces in eV/Ang:
  0 Pd    0.71449    0.05523    0.08792
  1 Pt   -0.60976   -0.16327    0.53338
  2 Ag   -0.09663   -0.08689   -0.57024
  3 Pd   -0.05269   -0.33055    0.19552
  4 Ag   -0.00730    0.04097   -0.58411
  5 Ag    0.14636    0.17368   -0.50159
  6 Ag    0.04129   -0.00283   -0.48870
  7 Pd    0.23093    0.35332    0.05063
  8 Pd   -0.13673    0.12839    0.18236
  9 Pd    0.00078    0.11617    0.01406
 10 Pd   -0.00399   -0.03437   -0.10375
 11 Pt   -0.04429   -0.15492    0.13892
 12 Ir    0.69285    0.14272   -0.00469
 13 Pt   -0.66143   -0.20014    0.26700
 14 Ag    0.10084   -0.02297    0.10166
 15 Pt   -0.29679    0.03039    0.13425
 16 Pd   -0.06559    0.27573    0.16093
 17 Pd    0.12795    0.01138    0.16202
 18 Ag    0.01121    0.01268    0.04575
 19 Ag   -0.03561    0.00411    0.03495
 20 Pt   -0.04664    0.01033    0.00998
 21 Ru   -0.01966   -0.01434    0.00800
 22 Pd   -0.02942   -0.00369    0.02417
 23 Pt   -0.01378    0.00404    0.00745
 24 Pt    0.01291   -0.00890    0.06057
 25 Pt   -0.02189   -0.00515    0.03591
 26 Ag   -0.02474   -0.01772   -0.01000
 27 Ag    0.00548   -0.07660   -0.11216
 28 Ag    0.07197   -0.01831    0.28607
 29 Pt   -0.01527   -0.02498    0.17346
 30 Ag    0.00409   -0.00776   -0.04267
 31 Pd    0.03443   -0.00231    0.00861
 32 Ru   -0.00503   -0.01093   -0.07052
 33 Pd    0.03767   -0.09721   -0.10399
 34 Pt   -0.00122   -0.07749   -0.09285
 35 Pd   -0.02003    0.01343    0.10245
 36 Pt    0.04238   -0.12670    0.00858
 37 Pt   -0.12179   -0.11531   -0.18266
 38 Ag    0.11207   -0.19584   -0.03297
 39 Pt   -0.14922   -0.07808   -0.07485
 40 Ru    0.10409    0.66495   -0.70472
 41 Pt    0.16316   -0.04710    0.00028
 42 Ir   -0.07824   -0.19444    0.15100
 43 Pt    0.00569   -0.07156    0.14234
 44 Ag    0.00411    0.13209    0.02360
 45 O    -0.05651    0.16213    0.46616

System changes: positions 

Initializing position-dependent things.

Density initialized from wave functions
                                             
                                             
                                             
                                             
                                             
                                             
                                Ag           
                  Or    Pt                   
             Pt   PRu    PPt    Pd           
                      Ag                     
       Pt    APt    Pd     Ru                
        Ag     Ag     Pt                     
                     Pt     Pt     Ag        
                       Pd     Pt             
                Ru                           
           Ag    PAg    PPt    Pd            
                                             
            Ir     Pt    PAg    Pd           
       Pd    PPd    APt    Ag                
                                             
        Pd     Pt     Ag                     
                                             
                                             
                                             
                                             
                                             

Positions:
   0 Pd     0.000000    1.637674   10.000000    ( 0.0000,  0.0000,  0.0000)
   1 Pt     2.836535    1.637674   10.000000    ( 0.0000,  0.0000,  0.0000)
   2 Ag     5.673071    1.637674   10.000000    ( 0.0000,  0.0000,  0.0000)
   3 Pd     1.418268    4.094186   10.000000    ( 0.0000,  0.0000,  0.0000)
   4 Ag     4.254803    4.094186   10.000000    ( 0.0000,  0.0000,  0.0000)
   5 Ag     7.091338    4.094186   10.000000    ( 0.0000,  0.0000,  0.0000)
   6 Ag     2.836535    6.550698   10.000000    ( 0.0000,  0.0000,  0.0000)
   7 Pd     5.673071    6.550698   10.000000    ( 0.0000,  0.0000,  0.0000)
   8 Pd     8.509606    6.550698   10.000000    ( 0.0000,  0.0000,  0.0000)
   9 Pd     0.000000    0.000000   12.317643    ( 0.0000,  0.0000,  0.0000)
  10 Pd     2.836535    0.000000   12.317643    ( 0.0000,  0.0000,  0.0000)
  11 Pt     5.673071    0.000000   12.317643    ( 0.0000,  0.0000,  0.0000)
  12 Ir     1.418268    2.456512   12.317643    ( 0.0000,  0.0000,  0.0000)
  13 Pt     4.254803    2.456512   12.317643    ( 0.0000,  0.0000,  0.0000)
  14 Ag     7.091338    2.456512   12.317643    ( 0.0000,  0.0000,  0.0000)
  15 Pt     2.836535    4.913023   12.317643    ( 0.0000,  0.0000,  0.0000)
  16 Pd     5.673071    4.913023   12.317643    ( 0.0000,  0.0000,  0.0000)
  17 Pd     8.509606    4.913023   12.317643    ( 0.0000,  0.0000,  0.0000)
  18 Ag     1.387806    0.764862   14.618401    ( 0.0000,  0.0000,  0.0000)
  19 Ag     4.215659    0.787908   14.657639    ( 0.0000,  0.0000,  0.0000)
  20 Pt     7.056422    0.798563   14.667094    ( 0.0000,  0.0000,  0.0000)
  21 Ru     2.756515    3.306062   14.387920    ( 0.0000,  0.0000,  0.0000)
  22 Pd     5.596687    3.226401   14.641123    ( 0.0000,  0.0000,  0.0000)
  23 Pt     8.520745    3.256329   14.660085    ( 0.0000,  0.0000,  0.0000)
  24 Pt     4.173227    5.670548   14.611494    ( 0.0000,  0.0000,  0.0000)
  25 Pt     7.034305    5.609867   14.671469    ( 0.0000,  0.0000,  0.0000)
  26 Ag     9.872170    5.744340   14.693319    ( 0.0000,  0.0000,  0.0000)
  27 Ag     0.010552    1.600518   16.975828    ( 0.0000,  0.0000,  0.0000)
  28 Ag     2.810145    1.624964   16.916490    ( 0.0000,  0.0000,  0.0000)
  29 Pt     5.660744    1.649417   17.020316    ( 0.0000,  0.0000,  0.0000)
  30 Ag     1.342295    4.087327   17.004119    ( 0.0000,  0.0000,  0.0000)
  31 Pd     4.167522    4.033447   16.822836    ( 0.0000,  0.0000,  0.0000)
  32 Ru     6.947978    4.055325   16.871280    ( 0.0000,  0.0000,  0.0000)
  33 Pd     2.792383    6.550426   17.022350    ( 0.0000,  0.0000,  0.0000)
  34 Pt     5.680677    6.430662   16.953394    ( 0.0000,  0.0000,  0.0000)
  35 Pd     8.427167    6.496264   17.054958    ( 0.0000,  0.0000,  0.0000)
  36 Pt     0.096127   -0.066312   19.253241    ( 0.0000,  0.0000,  0.0000)
  37 Pt     2.759441    0.020044   19.362841    ( 0.0000,  0.0000,  0.0000)
  38 Ag     5.855414   -0.080923   19.472451    ( 0.0000,  0.0000,  0.0000)
  39 Pt     1.471317    2.504272   19.372403    ( 0.0000,  0.0000,  0.0000)
  40 Ru     4.271366    2.550183   19.339568    ( 0.0000,  0.0000,  0.0000)
  41 Pt     7.168951    2.507384   19.193918    ( 0.0000,  0.0000,  0.0000)
  42 Ir     3.066170    4.753010   19.156845    ( 0.0000,  0.0000,  0.0000)
  43 Pt     5.709099    4.829292   19.169733    ( 0.0000,  0.0000,  0.0000)
  44 Ag     8.573525    4.894755   19.521580    ( 0.0000,  0.0000,  0.0000)
  45 O      4.105751    1.160354   20.503694    ( 0.0000,  0.0000,  0.0000)

Unit cell:
           periodic     x           y           z      points  spacing
  1. axis:    yes    8.509606    0.000000    0.000000    40     0.1842
  2. axis:    yes    4.254803    7.369535    0.000000    40     0.1842
  3. axis:    no     0.000000    0.000000   29.270571   140     0.2091

  Lengths:   8.509606   8.509606  29.270571
  Angles:   90.000000  90.000000  60.000000

Effective grid spacing dv^(1/3) = 0.2016

     iter     time        total  log10-change:
                         energy  eigst   dens
iter:   1 00:51:05  -192.485853  -3.90
iter:   2 00:52:15  -207.924322  -3.20  -2.28
iter:   3 00:53:26  -192.115980  -3.45  -1.66
iter:   4 00:54:36  -191.705852  -4.47  -2.46
iter:   5 00:55:47  -191.650898  -5.31  -2.80
iter:   6 00:56:57  -191.651668c -5.94  -3.39
iter:   7 00:58:08  -191.648274c -6.33  -3.44
iter:   8 00:59:18  -191.647758c -6.07  -3.53
iter:   9 01:00:29  -191.647588c -6.51  -3.70
iter:  10 01:01:39  -191.643781c -6.57  -3.82
iter:  11 01:02:48  -191.647135c -6.83  -3.51
iter:  12 01:03:56  -191.646605c -7.29  -3.82
iter:  13 01:05:06  -191.645252c -7.51c -4.04c

Converged after 13 iterations.

Dipole moment: (0.080761, 14.523706, -0.280917) |e|*Ang

Energy contributions relative to reference atoms: (reference = -12373358.334139)

Kinetic:       -221.246026
Potential:      +96.680992
External:        +0.000000
XC:             -59.049013
Entropy (-ST):   -1.834517
Local:           -7.113948
--------------------------
Free energy:   -192.562510
Extrapolated:  -191.645252

Showing only first 2 kpts
 Kpt  Band  Eigenvalues  Occupancy
  0   366      0.78025    1.01380
  0   367      0.79822    0.92413
  0   368      0.84558    0.69700
  0   369      0.87273    0.57926

  1   366      0.65101    1.57838
  1   367      0.67352    1.49863
  1   368      0.70194    1.38452
  1   369      0.71748    1.31643


Fermi level: 0.78301

No gap

Forces in eV/Ang:
  0 Pd    0.71097    0.05660    0.10438
  1 Pt   -0.60714   -0.15858    0.54893
  2 Ag   -0.09708   -0.08307   -0.55819
  3 Pd   -0.05156   -0.33298    0.20702
  4 Ag   -0.00596    0.03750   -0.57210
  5 Ag    0.14436    0.17003   -0.48888
  6 Ag    0.04210   -0.00266   -0.47668
  7 Pd    0.22898    0.35218    0.06732
  8 Pd   -0.13479    0.12988    0.19523
  9 Pd    0.00004    0.11965    0.02504
 10 Pd   -0.00382   -0.03152   -0.09105
 11 Pt   -0.04741   -0.15169    0.14712
 12 Ir    0.68935    0.13923    0.00027
 13 Pt   -0.66070   -0.20200    0.27283
 14 Ag    0.10077   -0.02375    0.10425
 15 Pt   -0.29154    0.02905    0.14337
 16 Pd   -0.06659    0.27381    0.16208
 17 Pd    0.12330    0.00951    0.16620
 18 Ag    0.02076    0.01786    0.02912
 19 Ag   -0.03409    0.01154    0.04598
 20 Pt   -0.05001    0.00817   -0.01077
 21 Ru   -0.01558   -0.02122    0.00105
 22 Pd   -0.02895   -0.02598    0.00767
 23 Pt   -0.01584    0.00386   -0.01182
 24 Pt    0.00138   -0.00477    0.02988
 25 Pt   -0.00395    0.00000    0.00352
 26 Ag   -0.02707   -0.00523   -0.01574
 27 Ag   -0.00377   -0.07140   -0.10612
 28 Ag    0.08036   -0.02432    0.24237
 29 Pt   -0.02324   -0.05573    0.17685
 30 Ag    0.01480   -0.00019   -0.04188
 31 Pd    0.01194    0.00349   -0.00093
 32 Ru   -0.00301   -0.02992   -0.06870
 33 Pd    0.02246   -0.09762   -0.06800
 34 Pt   -0.02851   -0.09511   -0.10965
 35 Pd    0.03297    0.04310    0.10871
 36 Pt   -0.08601   -0.13380   -0.02299
 37 Pt    0.23620    0.10777   -0.06154
 38 Ag   -0.05295   -0.08329   -0.01221
 39 Pt   -0.05550   -0.13864   -0.08819
 40 Ru    0.08101    0.26511   -0.60152
 41 Pt    0.08198   -0.09013   -0.02327
 42 Ir   -0.13252   -0.03545    0.03780
 43 Pt    0.02694   -0.03473    0.07539
 44 Ag    0.00912    0.17095    0.00831
 45 O    -0.07812    0.02917    0.25738

System changes: positions 

Initializing position-dependent things.

Density initialized from wave functions
                                             
                                             
                                             
                                             
                                             
                                             
                                Ag           
                  Or    Pt                   
             Pt   PRu    PtPt   Pd           
                      Ag                     
       Pt    APt    Pd     Ru                
        Ag     Ag     Pt                     
                     Pt     Pt     Ag        
                       Pd     Pt             
                Ru                           
           Ag    PAg    PPt    Pd            
                                             
            Ir     Pt    PAg    Pd           
       Pd    PPd    APt    Ag                
                                             
        Pd     Pt     Ag                     
                                             
                                             
                                             
                                             
                                             

Positions:
   0 Pd     0.000000    1.637674   10.000000    ( 0.0000,  0.0000,  0.0000)
   1 Pt     2.836535    1.637674   10.000000    ( 0.0000,  0.0000,  0.0000)
[...]
  11 Pt     5.673071    0.000000   12.317643    ( 0.0000,  0.0000,  0.0000)
  12 Ir     1.418268    2.456512   12.317643    ( 0.0000,  0.0000,  0.0000)
  13 Pt     4.254803    2.456512   12.317643    ( 0.0000,  0.0000,  0.0000)
  14 Ag     7.091338    2.456512   12.317643    ( 0.0000,  0.0000,  0.0000)
  15 Pt     2.836535    4.913023   12.317643    ( 0.0000,  0.0000,  0.0000)
  16 Pd     5.673071    4.913023   12.317643    ( 0.0000,  0.0000,  0.0000)
  17 Pd     8.509606    4.913023   12.317643    ( 0.0000,  0.0000,  0.0000)
  18 Ag     1.392248    0.769146   14.625581    ( 0.0000,  0.0000,  0.0000)
  19 Ag     4.206363    0.789785   14.672244    ( 0.0000,  0.0000,  0.0000)
  20 Pt     7.043193    0.798320   14.664128    ( 0.0000,  0.0000,  0.0000)
  21 Ru     2.753966    3.303054   14.387878    ( 0.0000,  0.0000,  0.0000)
  22 Pd     5.588923    3.220908   14.643029    ( 0.0000,  0.0000,  0.0000)
  23 Pt     8.514896    3.256262   14.655858    ( 0.0000,  0.0000,  0.0000)
  24 Pt     4.172491    5.671617   14.614087    ( 0.0000,  0.0000,  0.0000)
  25 Pt     7.031890    5.609120   14.671313    ( 0.0000,  0.0000,  0.0000)
  26 Ag     9.864125    5.742389   14.688659    ( 0.0000,  0.0000,  0.0000)
  27 Ag     0.010035    1.579324   16.951472    ( 0.0000,  0.0000,  0.0000)
  28 Ag     2.821428    1.617247   16.965291    ( 0.0000,  0.0000,  0.0000)
  29 Pt     5.662227    1.640195   17.052803    ( 0.0000,  0.0000,  0.0000)
  30 Ag     1.342239    4.081912   16.995168    ( 0.0000,  0.0000,  0.0000)
  31 Pd     4.171489    4.033454   16.824129    ( 0.0000,  0.0000,  0.0000)
  32 Ru     6.948385    4.045079   16.860502    ( 0.0000,  0.0000,  0.0000)
  33 Pd     2.798827    6.528205   17.003944    ( 0.0000,  0.0000,  0.0000)
  34 Pt     5.680035    6.409972   16.942887    ( 0.0000,  0.0000,  0.0000)
  35 Pd     8.430467    6.496151   17.071132    ( 0.0000,  0.0000,  0.0000)
  36 Pt     0.096170   -0.100794   19.245209    ( 0.0000,  0.0000,  0.0000)
  37 Pt     2.775471    0.023519   19.359515    ( 0.0000,  0.0000,  0.0000)
  38 Ag     5.863532   -0.105405   19.472670    ( 0.0000,  0.0000,  0.0000)
  39 Pt     1.442636    2.481084   19.354741    ( 0.0000,  0.0000,  0.0000)
  40 Ru     4.289474    2.574773   19.285199    ( 0.0000,  0.0000,  0.0000)
  41 Pt     7.198505    2.495289   19.188534    ( 0.0000,  0.0000,  0.0000)
  42 Ir     3.048316    4.731811   19.167910    ( 0.0000,  0.0000,  0.0000)
  43 Pt     5.713953    4.820648   19.187001    ( 0.0000,  0.0000,  0.0000)
  44 Ag     8.573200    4.918262   19.524529    ( 0.0000,  0.0000,  0.0000)
  45 O      4.083340    1.239773   20.499603    ( 0.0000,  0.0000,  0.0000)

Unit cell:
           periodic     x           y           z      points  spacing
  1. axis:    yes    8.509606    0.000000    0.000000    40     0.1842
  2. axis:    yes    4.254803    7.369535    0.000000    40     0.1842
  3. axis:    no     0.000000    0.000000   29.270571   140     0.2091

  Lengths:   8.509606   8.509606  29.270571
  Angles:   90.000000  90.000000  60.000000

Effective grid spacing dv^(1/3) = 0.2016

     iter     time        total  log10-change:
                         energy  eigst   dens
iter:   1 02:09:50  -191.922539  -4.26
iter:   2 02:10:59  -195.893692  -3.83  -2.59
iter:   3 02:12:10  -191.808682  -3.98  -1.92
iter:   4 02:13:19  -191.721354  -5.30  -2.83
iter:   5 02:14:28  -191.715267c -6.12  -3.30
iter:   6 02:15:36  -191.710027c -6.54  -3.33
iter:   7 02:16:44  -191.704394c -6.81  -3.59
iter:   8 02:17:52  -191.704455c -7.31  -3.82
iter:   9 02:19:01  -191.703142c -6.87  -3.89
iter:  10 02:20:09  -191.703156c -7.06  -3.98
iter:  11 02:21:20  -191.703608c -7.73c -4.23c

Converged after 11 iterations.

Dipole moment: (1.542560, 16.214784, -0.292223) |e|*Ang

Energy contributions relative to reference atoms: (reference = -12373358.334139)

Kinetic:       -220.341231
Potential:      +95.873014
External:        +0.000000
XC:             -59.231839
Entropy (-ST):   -1.827224
Local:           -7.089940
--------------------------
Free energy:   -192.617221
Extrapolated:  -191.703608

Showing only first 2 kpts
 Kpt  Band  Eigenvalues  Occupancy
  0   366      0.78452    0.97575
  0   367      0.80332    0.88228
  0   368      0.83983    0.70791
  0   369      0.86752    0.58696

  1   366      0.64504    1.58703
  1   367      0.66892    1.50331
  1   368      0.70346    1.36358
  1   369      0.71459    1.31437


Fermi level: 0.77967

No gap

Forces in eV/Ang:
  0 Pd    0.70771    0.05666    0.11674
  1 Pt   -0.59983   -0.15565    0.56203
  2 Ag   -0.09706   -0.08059   -0.55069
  3 Pd   -0.04712   -0.33632    0.21913
  4 Ag   -0.00624    0.03400   -0.56431
  5 Ag    0.14200    0.16714   -0.48257
  6 Ag    0.04178   -0.00211   -0.46743
  7 Pd    0.23073    0.35142    0.08186
  8 Pd   -0.13484    0.13207    0.20608
  9 Pd    0.01161    0.12867    0.04182
 10 Pd   -0.00052   -0.02152   -0.06514
 11 Pt   -0.07533   -0.13973    0.15796
 12 Ir    0.68391    0.13097    0.00102
 13 Pt   -0.66542   -0.21871    0.28241
 14 Ag    0.09133   -0.02475    0.09595
 15 Pt   -0.28219    0.02417    0.16093
 16 Pd   -0.07656    0.27051    0.16700
 17 Pd    0.11607    0.00910    0.14663
 18 Ag    0.00272   -0.00499    0.00160
 19 Ag   -0.01067    0.00396    0.05047
 20 Pt   -0.00283   -0.01400   -0.00612
 21 Ru   -0.00400    0.00815    0.01394
 22 Pd   -0.00735   -0.01208    0.00522
 23 Pt   -0.00508   -0.01177   -0.00232
 24 Pt   -0.00754   -0.00619   -0.01938
 25 Pt   -0.00110   -0.00838   -0.00612
 26 Ag   -0.01519    0.00698    0.00099
 27 Ag    0.00800   -0.04899    0.00329
 28 Ag   -0.04658   -0.02513   -0.07899
 29 Pt    0.03925   -0.01351   -0.04172
 30 Ag   -0.01647   -0.04447   -0.00989
 31 Pd   -0.01275   -0.03503   -0.01754
 32 Ru    0.01504   -0.02551    0.01113
 33 Pd   -0.01505    0.00774   -0.00884
 34 Pt    0.04076   -0.01913    0.02334
 35 Pd   -0.00150   -0.04851   -0.01288
 36 Pt    0.05579   -0.02389    0.00476
 37 Pt   -0.06008   -0.02404    0.03378
 38 Ag   -0.03049    0.03494    0.03545
 39 Pt   -0.02948    0.00899    0.00918
 40 Ru    0.01923    0.09830   -0.01350
 41 Pt   -0.01617    0.01110    0.01872
 42 Ir    0.03713    0.01392   -0.05191
 43 Pt    0.00859    0.02630   -0.00635
 44 Ag   -0.00564   -0.07638    0.01770
 45 O    -0.00567   -0.08095    0.06488

System changes: positions 

Initializing position-dependent things.

Density initialized from wave functions
                                             
                                             
                                             
                                             
                                             
                                             
                                Ag           
                  Or    Pt                   
            Pt    PRu    PtPt   Pd           
                      Ag                     
       Pt    APt    Pd     Ru                
        Ag     Ag     Pt                     
                     Pt     Pt     Ag        
                       Pd     Pt             
                Ru                           
           Ag    PAg    PPt    Pd            
                                             
            Ir     Pt     Ag    Pd           
       Pd    PPd    APt    Ag                
                                             
        Pd     Pt     Ag                     
                                             
                                             
                                             
                                             
                                             

Positions:
   0 Pd     0.000000    1.637674   10.000000    ( 0.0000,  0.0000,  0.0000)
   1 Pt     2.836535    1.637674   10.000000    ( 0.0000,  0.0000,  0.0000)
   2 Ag     5.673071    1.637674   10.000000    ( 0.0000,  0.0000,  0.0000)
   3 Pd     1.418268    4.094186   10.000000    ( 0.0000,  0.0000,  0.0000)
   4 Ag     4.254803    4.094186   10.000000    ( 0.0000,  0.0000,  0.0000)
   5 Ag     7.091338    4.094186   10.000000    ( 0.0000,  0.0000,  0.0000)
   6 Ag     2.836535    6.550698   10.000000    ( 0.0000,  0.0000,  0.0000)
   7 Pd     5.673071    6.550698   10.000000    ( 0.0000,  0.0000,  0.0000)
   8 Pd     8.509606    6.550698   10.000000    ( 0.0000,  0.0000,  0.0000)
   9 Pd     0.000000    0.000000   12.317643    ( 0.0000,  0.0000,  0.0000)
  10 Pd     2.836535    0.000000   12.317643    ( 0.0000,  0.0000,  0.0000)
  11 Pt     5.673071    0.000000   12.317643    ( 0.0000,  0.0000,  0.0000)
  12 Ir     1.418268    2.456512   12.317643    ( 0.0000,  0.0000,  0.0000)
  13 Pt     4.254803    2.456512   12.317643    ( 0.0000,  0.0000,  0.0000)
  14 Ag     7.091338    2.456512   12.317643    ( 0.0000,  0.0000,  0.0000)
  15 Pt     2.836535    4.913023   12.317643    ( 0.0000,  0.0000,  0.0000)
  16 Pd     5.673071    4.913023   12.317643    ( 0.0000,  0.0000,  0.0000)
  17 Pd     8.509606    4.913023   12.317643    ( 0.0000,  0.0000,  0.0000)
  18 Ag     1.392106    0.768832   14.625150    ( 0.0000,  0.0000,  0.0000)
  19 Ag     4.206769    0.789781   14.672320    ( 0.0000,  0.0000,  0.0000)
  20 Pt     7.043974    0.798149   14.664157    ( 0.0000,  0.0000,  0.0000)
  21 Ru     2.754011    3.303384   14.388069    ( 0.0000,  0.0000,  0.0000)
  22 Pd     5.589353    3.220942   14.643021    ( 0.0000,  0.0000,  0.0000)
  23 Pt     8.515107    3.256164   14.656020    ( 0.0000,  0.0000,  0.0000)
  24 Pt     4.172366    5.671354   14.613607    ( 0.0000,  0.0000,  0.0000)
  25 Pt     7.032175    5.608975   14.671141    ( 0.0000,  0.0000,  0.0000)
  26 Ag     9.864360    5.742749   14.688933    ( 0.0000,  0.0000,  0.0000)
  27 Ag     0.010220    1.579840   16.953113    ( 0.0000,  0.0000,  0.0000)
  28 Ag     2.819998    1.617306   16.961096    ( 0.0000,  0.0000,  0.0000)
  29 Pt     5.662882    1.640516   17.050318    ( 0.0000,  0.0000,  0.0000)
  30 Ag     1.341978    4.081567   16.995617    ( 0.0000,  0.0000,  0.0000)
  31 Pd     4.171032    4.032850   16.823876    ( 0.0000,  0.0000,  0.0000)
  32 Ru     6.948682    4.045253   16.861325    ( 0.0000,  0.0000,  0.0000)
  33 Pd     2.798296    6.529703   17.004929    ( 0.0000,  0.0000,  0.0000)
  34 Pt     5.680543    6.410654   16.943629    ( 0.0000,  0.0000,  0.0000)
  35 Pd     8.430357    6.495451   17.070101    ( 0.0000,  0.0000,  0.0000)
  36 Pt     0.096664   -0.099164   19.245719    ( 0.0000,  0.0000,  0.0000)
  37 Pt     2.775621    0.024833   19.360361    ( 0.0000,  0.0000,  0.0000)
  38 Ag     5.860852   -0.102459   19.473405    ( 0.0000,  0.0000,  0.0000)
  39 Pt     1.444589    2.481989   19.356063    ( 0.0000,  0.0000,  0.0000)
  40 Ru     4.288298    2.573708   19.287124    ( 0.0000,  0.0000,  0.0000)
  41 Pt     7.196148    2.496156   19.189226    ( 0.0000,  0.0000,  0.0000)
  42 Ir     3.049511    4.734107   19.166079    ( 0.0000,  0.0000,  0.0000)
  43 Pt     5.713916    4.822003   19.185759    ( 0.0000,  0.0000,  0.0000)
  44 Ag     8.573011    4.915616   19.524471    ( 0.0000,  0.0000,  0.0000)
  45 O      4.084619    1.232026   20.500688    ( 0.0000,  0.0000,  0.0000)

Unit cell:
           periodic     x           y           z      points  spacing
  1. axis:    yes    8.509606    0.000000    0.000000    40     0.1842
  2. axis:    yes    4.254803    7.369535    0.000000    40     0.1842
  3. axis:    no     0.000000    0.000000   29.270571   140     0.2091

  Lengths:   8.509606   8.509606  29.270571
  Angles:   90.000000  90.000000  60.000000

Effective grid spacing dv^(1/3) = 0.2016

     iter     time        total  log10-change:
                         energy  eigst   dens
iter:   1 02:22:51  -191.778067  -4.99
iter:   2 02:23:59  -194.401639  -4.01  -2.72
iter:   3 02:25:07  -191.752981  -4.32  -2.04
iter:   4 02:26:15  -191.708177  -5.67  -3.06
iter:   5 02:27:23  -191.704635c -6.50  -3.82
iter:   6 02:28:32  -191.704696c -6.92  -3.90
iter:   7 02:29:41  -191.704154c -7.09  -4.06c
iter:   8 02:30:49  -191.704045c -7.17  -4.18c
iter:   9 02:31:57  -191.704802c -7.51c -4.39c

Converged after 9 iterations.

Dipole moment: (1.352124, 15.998760, -0.294939) |e|*Ang

Energy contributions relative to reference atoms: (reference = -12373358.334139)

Kinetic:       -220.832155
Potential:      +96.309405
External:        +0.000000
XC:             -59.177035
Entropy (-ST):   -1.827059
Local:           -7.091488
--------------------------
Free energy:   -192.618331
Extrapolated:  -191.704802

Showing only first 2 kpts
 Kpt  Band  Eigenvalues  Occupancy
  0   366      0.78397    0.97721
  0   367      0.80299    0.88265
  0   368      0.83934    0.70901
  0   369      0.86743    0.58630

  1   366      0.64605    1.58286
  1   367      0.66839    1.50433
  1   368      0.70313    1.36395
  1   369      0.71425    1.31474


Fermi level: 0.77941

No gap

Forces in eV/Ang:
  0 Pd    0.71319    0.05578    0.11808
  1 Pt   -0.60338   -0.15927    0.56534
  2 Ag   -0.09753   -0.08219   -0.54780
  3 Pd   -0.04748   -0.33815    0.22325
  4 Ag   -0.00785    0.03470   -0.56218
  5 Ag    0.14465    0.16883   -0.48015
  6 Ag    0.04193   -0.00217   -0.46607
  7 Pd    0.23273    0.35611    0.08323
  8 Pd   -0.13625    0.13215    0.20963
  9 Pd    0.00830    0.12936    0.03673
 10 Pd   -0.00046   -0.02328   -0.06921
 11 Pt   -0.07127   -0.13964    0.15893
 12 Ir    0.68276    0.13450   -0.00207
 13 Pt   -0.66372   -0.21798    0.28038
 14 Ag    0.09055   -0.02447    0.10115
 15 Pt   -0.28512    0.02523    0.16042
 16 Pd   -0.07499    0.26916    0.16915
 17 Pd    0.11612    0.00767    0.15240
 18 Ag   -0.00064   -0.00756    0.00846
 19 Ag   -0.01001   -0.00004    0.04954
 20 Pt   -0.00882   -0.01256   -0.00464
 21 Ru   -0.00654    0.01186    0.00971
 22 Pd   -0.00590   -0.00933    0.00793
 23 Pt   -0.01565   -0.00568   -0.00330
 24 Pt   -0.00481   -0.00774   -0.00225
 25 Pt   -0.00744   -0.01891    0.00474
 26 Ag   -0.01665    0.00230    0.00063
 27 Ag    0.00250   -0.05337    0.00046
 28 Ag   -0.02265   -0.02240   -0.01799
 29 Pt    0.02048   -0.01192    0.01402
 30 Ag   -0.01260   -0.04141   -0.00435
 31 Pd    0.00154   -0.04052    0.00603
 32 Ru    0.01031   -0.03235    0.00084
 33 Pd   -0.00410   -0.01640   -0.02123
 34 Pt    0.02558   -0.03873    0.00577
 35 Pd    0.00748   -0.03414    0.01891
 36 Pt    0.03792   -0.03841    0.00181
 37 Pt   -0.02442    0.00795    0.03727
 38 Ag   -0.02845    0.01007    0.02417
 39 Pt   -0.03723   -0.01436    0.01178
 40 Ru    0.00212    0.08672   -0.04218
 41 Pt    0.02263    0.00713    0.00305
 42 Ir    0.01922    0.01406   -0.04330
 43 Pt    0.00869    0.00828    0.00177
 44 Ag    0.00323   -0.05746    0.01873
 45 O     0.00635   -0.05054    0.03029

Timing:                                      incl.     excl.
-------------------------------------------------------------------
Density initialized from wave functions:    46.453    46.452   0.3% |
 Symmetrize density:                         0.001     0.001   0.0% |
Forces:                                    207.092   207.092   1.2% |
Hamiltonian:                                22.992     0.140   0.0% |
 Atomic:                                     1.432     0.369   0.0% |
  XC Correction:                             1.064     1.064   0.0% |
 Calculate atomic Hamiltonians:             15.890    15.890   0.1% |
 Communicate:                                2.329     2.329   0.0% |
 Initialize Hamiltonian:                     0.000     0.000   0.0% |
 Poisson:                                    0.074     0.074   0.0% |
 XC 3D grid:                                 3.126     3.126   0.0% |
LCAO initialization:                       144.442     2.725   0.0% |
 LCAO eigensolver:                          16.335     0.001   0.0% |
  Blacs Orbital Layouts:                     0.342     0.000   0.0% |
   General diagonalize:                      0.336     0.336   0.0% |
   Redistribute coefs:                       0.003     0.003   0.0% |
   Send coefs to domains:                    0.003     0.003   0.0% |
  Calculate projections:                     0.003     0.003   0.0% |
  Distribute overlap matrix:                15.185     0.000   0.0% |
   Scalapack redistribute:                   0.008     0.008   0.0% |
   blocked summation:                       15.176    15.176   0.1% |
  Potential matrix:                          0.760     0.760   0.0% |
  SparseAtomicCorrection:                    0.005     0.005   0.0% |
  Sum over cells:                            0.039     0.039   0.0% |
 LCAO to grid:                             121.843   121.843   0.7% |
 Set positions (LCAO WFS):                   3.538     0.007   0.0% |
  Basic WFS set positions:                   0.003     0.003   0.0% |
  Basis functions set positions:             0.000     0.000   0.0% |
  P tci:                                     0.000     0.000   0.0% |
  ST tci:                                    0.292     0.292   0.0% |
  Scalapack redistribute:                    0.008     0.008   0.0% |
  blocked summation:                         3.120     3.120   0.0% |
  mktci:                                     0.109     0.109   0.0% |
PWDescriptor:                                0.573     0.573   0.0% |
Redistribute:                                0.018     0.018   0.0% |
SCF-cycle:                               16152.754   170.836   1.0% |
 Davidson:                               14796.422  3234.846  19.4% |-------|
  Apply H:                                1674.698  1640.658   9.9% |---|
   HMM T:                                   34.039    34.039   0.2% |
  Subspace diag:                          1761.868     0.055   0.0% |
   calc_h_matrix:                         1201.697   307.977   1.9% ||
    Apply H:                               893.720   873.530   5.2% |-|
     HMM T:                                 20.190    20.190   0.1% |
   diagonalize:                             58.907    58.907   0.4% |
   rotate_psi:                             501.208   501.208   3.0% ||
  calc. matrices:                         5687.933  3179.812  19.1% |-------|
   Apply H:                               2508.121  2455.146  14.8% |-----|
    HMM T:                                  52.975    52.975   0.3% |
  diagonalize:                             880.626   880.626   5.3% |-|
  rotate_psi:                             1556.452  1556.452   9.4% |---|
 Density:                                  769.488     0.013   0.0% |
  Atomic density matrices:                   4.489     4.489   0.0% |
  Mix:                                     281.866   281.866   1.7% ||
  Multipole moments:                         0.430     0.430   0.0% |
  Pseudo density:                          482.690   482.678   2.9% ||
   Symmetrize density:                       0.012     0.012   0.0% |
 Hamiltonian:                              359.170     2.105   0.0% |
  Atomic:                                   23.001     6.502   0.0% |
   XC Correction:                           16.499    16.499   0.1% |
  Calculate atomic Hamiltonians:           251.032   251.032   1.5% ||
  Communicate:                              31.236    31.236   0.2% |
  Poisson:                                   1.079     1.079   0.0% |
  XC 3D grid:                               50.716    50.716   0.3% |
 Orthonormalize:                            56.839     0.005   0.0% |
  calc_s_matrix:                             9.137     9.137   0.1% |
  inverse-cholesky:                          3.185     3.185   0.0% |
  projections:                              29.279    29.279   0.2% |
  rotate_psi_s:                             15.233    15.233   0.1% |
Set symmetry:                                0.002     0.002   0.0% |
Other:                                      68.795    68.795   0.4% |
-------------------------------------------------------------------
Total:                                             16643.121 100.0%

Memory usage: 861.23 MiB
Date: Fri Jun 14 02:32:13 2024
