
  ___ ___ ___ _ _ _  
 |   |   |_  | | | | 
 | | | | | . | | | | 
 |__ |  _|___|_____|  22.1.0
 |___|_|             

User:   clausen@node434.cluster
Date:   Fri Jun 14 12:15:30 2024
Arch:   x86_64
Pid:    80407
Python: 3.10.4
gpaw:   /groups/kemi/clausen/miniconda3/envs/gpaw22/lib/python3.10/site-packages/gpaw
_gpaw:  /groups/kemi/clausen/miniconda3/envs/gpaw22/lib/python3.10/site-packages/
        _gpaw.cpython-310-x86_64-linux-gnu.so
ase:    /groups/kemi/clausen/miniconda3/envs/gpaw22/lib/python3.10/site-packages/ase (version 3.22.1)
numpy:  /groups/kemi/clausen/miniconda3/envs/gpaw22/lib/python3.10/site-packages/numpy (version 1.23.1)
scipy:  /groups/kemi/clausen/miniconda3/envs/gpaw22/lib/python3.10/site-packages/scipy (version 1.8.1)
libxc:  5.2.3
units:  Angstrom and eV
cores: 24
OpenMP: True
OMP_NUM_THREADS: 1

Input parameters:
  eigensolver: {name: dav,
                niter: 3}
  kpts: [4 4 1]
  mode: {ecut: 400.0,
         name: pw}
  xc: RPBE

System changes: positions, numbers, cell, pbc, initial_charges, initial_magmoms 

Initialize ...

Pd-setup:
  name: Palladium
  id: 6da19bfba079f22767af9506641940b9
  Z: 46.0
  valence: 16
  core: 30
  charge: 0.0
  file: /groups/kemi/clausen/miniconda3/envs/gpaw22/share/gpaw/Pd.RPBE.gz
  compensation charges: gauss, rc=0.38, lmax=2
  cutoffs: 2.38(filt), 2.28(core),
  valence states:
                energy  radius
    5s(0.00)    -3.225   1.228
    4p(6.00)   -51.131   1.360
    5p(0.00)    -0.373   1.360
    4d(10.00)    -3.964   1.228
    *s          23.987   1.228
    *d          23.247   1.228

  Using partial waves for Pd as LCAO basis

Pt-setup:
  name: Platinum
  id: f04f522592575c47ad794f6b4a415b4b
  Z: 78.0
  valence: 16
  core: 62
  charge: 0.0
  file: /groups/kemi/clausen/miniconda3/envs/gpaw22/share/gpaw/Pt.RPBE.gz
  compensation charges: gauss, rc=0.41, lmax=2
  cutoffs: 2.26(filt), 2.26(core),
  valence states:
                energy  radius
    6s(1.00)    -5.516   1.307
    5p(6.00)   -55.971   1.371
    6p(0.00)    -0.856   1.371
    5d(9.00)    -6.087   1.307
    *s          21.695   1.307
    *d          21.125   1.307

  Using partial waves for Pt as LCAO basis

Ru-setup:
  name: Ruthenium
  id: 76477906e28f51dc1b29884d53556fe9
  Z: 44.0
  valence: 16
  core: 28
  charge: 0.0
  file: /groups/kemi/clausen/miniconda3/envs/gpaw22/share/gpaw/Ru.RPBE.gz
  compensation charges: gauss, rc=0.39, lmax=2
  cutoffs: 2.16(filt), 1.30(core),
  valence states:
                energy  radius
    4s(2.00)   -76.255   1.281
    5s(1.00)    -4.126   1.281
    4p(6.00)   -46.371   1.286
    5p(0.00)    -0.913   1.286
    4d(7.00)    -5.146   1.254
    *d          22.066   1.254

  Using partial waves for Ru as LCAO basis

Ag-setup:
  name: Silver
  id: c05e55bab2c3858b3f9398f6d75cb77c
  Z: 47.0
  valence: 17
  core: 30
  charge: 0.0
  file: /groups/kemi/clausen/miniconda3/envs/gpaw22/share/gpaw/Ag.RPBE.gz
  compensation charges: gauss, rc=0.40, lmax=2
  cutoffs: 2.35(filt), 2.19(core),
  valence states:
                energy  radius
    5s(1.00)    -4.277   1.286
    4p(6.00)   -58.523   1.328
    5p(0.00)    -0.755   1.328
    4d(10.00)    -7.386   1.180
    *s          22.934   1.286
    *d          19.826   1.180

  Using partial waves for Ag as LCAO basis

Ir-setup:
  name: Iridium
  id: 73b603359d1d5397a85ae3c2440f9033
  Z: 77.0
  valence: 15
  core: 62
  charge: 0.0
  file: /groups/kemi/clausen/miniconda3/envs/gpaw22/share/gpaw/Ir.RPBE.gz
  compensation charges: gauss, rc=0.40, lmax=2
  cutoffs: 2.40(filt), 2.36(core),
  valence states:
                energy  radius
    6s(2.00)    -6.219   1.296
    5p(6.00)   -54.684   1.328
    6p(0.00)    -1.215   1.328
    5d(7.00)    -7.118   1.286
    *s          20.992   1.296
    *d          20.093   1.286

  Using partial waves for Ir as LCAO basis

O-setup:
  name: Oxygen
  id: 08071ca1eed670e7821b24b7eb4d558c
  Z: 8.0
  valence: 6
  core: 2
  charge: 0.0
  file: /groups/kemi/clausen/miniconda3/envs/gpaw22/share/gpaw/O.RPBE.gz
  compensation charges: gauss, rc=0.21, lmax=2
  cutoffs: 1.17(filt), 0.83(core),
  valence states:
                energy  radius
    2s(2.00)   -24.041   0.688
    2p(4.00)    -8.984   0.598
    *s           3.170   0.688
    *p          18.228   0.598
    *d           0.000   0.619

  Using partial waves for O as LCAO basis

Reference energy: -14174778.458134

Spin-paired calculation

Convergence criteria:
 Maximum [total energy] change in last 3 cyles: 0.0005 eV / electron
 Maximum integral of absolute [dens]ity change: 0.0001 electrons / valence electron
 Maximum integral of absolute [eigenst]ate change: 4e-08 eV^2 / valence electron
 Maximum number of scf [iter]ations: 333
 (Square brackets indicate name in SCF output, whereas a 'c' in
 the SCF output indicates the quantity has converged.)

Symmetries present (total): 1

  ( 1  0  0)
  ( 0  1  0)
  ( 0  0  1)

16 k-points: 4 x 4 x 1 Monkhorst-Pack grid
8 k-points in the irreducible part of the Brillouin zone
       k-points in crystal coordinates                weights
   0:     0.12500000   -0.37500000    0.00000000          2/16
   1:     0.12500000   -0.12500000    0.00000000          2/16
   2:     0.12500000    0.12500000    0.00000000          2/16
   3:     0.12500000    0.37500000    0.00000000          2/16
   4:     0.37500000   -0.37500000    0.00000000          2/16
   5:     0.37500000   -0.12500000    0.00000000          2/16
   6:     0.37500000    0.12500000    0.00000000          2/16
   7:     0.37500000    0.37500000    0.00000000          2/16

Wave functions: Plane wave expansion
  Cutoff energy: 400.000 eV
  Number of coefficients (min, max): 33332, 33436
  Pulay-stress correction: 0.000000 eV/Ang^3 (de/decut=0.000000)
  Using FFTW library
  ScaLapack parameters: grid=3x1, blocksize=64
  Wavefunction extrapolation:
    Improved wavefunction reuse through dual PAW basis 

Occupation numbers: Fermi-Dirac: width=0.1000 eV
 

Eigensolver
   Davidson(niter=3) 

Densities:
  Coarse grid: 40*40*140 grid
  Fine grid: 80*80*280 grid
  Total Charge: 0.000000 

Density mixing:
  Method: separate
  Backend: pulay
  Linear mixing parameter: 0.05
  Mixing with 5 old densities
  Damping of long wave oscillations: 50 

Hamiltonian:
  XC and Coulomb potentials evaluated on a 80*80*280 grid
  Using the RPBE Exchange-Correlation functional
  External potential:
    NoExternalPotential
 

XC parameters: RPBE with 2 nearest neighbor stencil

Memory estimate:
  Process memory now: 192.66 MiB
  Calculator: 558.14 MiB
    Density: 47.45 MiB
      Arrays: 14.92 MiB
      Localized functions: 26.79 MiB
      Mixer: 5.74 MiB
    Hamiltonian: 10.59 MiB
      Arrays: 9.75 MiB
      XC: 0.00 MiB
      Poisson: 0.00 MiB
      vbar: 0.84 MiB
    Wavefunctions: 500.10 MiB
      Arrays psit_nG: 226.53 MiB
      Eigensolver: 259.17 MiB
      Projections: 1.86 MiB
      Projectors: 3.74 MiB
      PW-descriptor: 8.80 MiB

Total number of cores used: 24
Parallelization over k-points: 8
Domain decomposition: 1 x 1 x 3
                      2 x 2 x 6 (xc only)

Number of atoms: 46
Number of atomic orbitals: 546
Number of bands in calculation: 444
Number of valence electrons: 732
Bands to converge: occupied

... initialized

Initializing position-dependent things.

Density initialized from atomic densities
Creating initial wave functions:
  444 bands from LCAO basis set

                                             
                                             
                                             
                                             
                                             
                                             
                        Ag                   
                 Pt            Pt            
           OPt    PPd    APd    Pt           
                                             
       Pt    IPt    PPt    Pd                
                                             
        Pt     Pd    APd    Pt     Ag        
                Pt     Pd     Pt             
                                             
           Pt    APt    ARu    Pt            
                                             
            Pd    PPt    PAg    Ru           
       Pd     Pt     Pd                      
             Pd     Pd     Pt                
        Pd     Pt     Pt                     
                                             
                                             
                                             
                                             
                                             

Positions:
   0 Pd     0.000000    1.639149   10.000000    ( 0.0000,  0.0000,  0.0000)
   1 Pt     2.839089    1.639149   10.000000    ( 0.0000,  0.0000,  0.0000)
   2 Pt     5.678177    1.639149   10.000000    ( 0.0000,  0.0000,  0.0000)
   3 Pd     1.419544    4.097872   10.000000    ( 0.0000,  0.0000,  0.0000)
   4 Pd     4.258633    4.097872   10.000000    ( 0.0000,  0.0000,  0.0000)
   5 Pt     7.097722    4.097872   10.000000    ( 0.0000,  0.0000,  0.0000)
   6 Pd     2.839089    6.556595   10.000000    ( 0.0000,  0.0000,  0.0000)
   7 Pt     5.678177    6.556595   10.000000    ( 0.0000,  0.0000,  0.0000)
   8 Ru     8.517266    6.556595   10.000000    ( 0.0000,  0.0000,  0.0000)
   9 Pd     0.000000    0.000000   12.317643    ( 0.0000,  0.0000,  0.0000)
  10 Pt     2.839089    0.000000   12.317643    ( 0.0000,  0.0000,  0.0000)
  11 Pd     5.678177    0.000000   12.317643    ( 0.0000,  0.0000,  0.0000)
  12 Pd     1.419544    2.458723   12.317643    ( 0.0000,  0.0000,  0.0000)
  13 Pt     4.258633    2.458723   12.317643    ( 0.0000,  0.0000,  0.0000)
  14 Ag     7.097722    2.458723   12.317643    ( 0.0000,  0.0000,  0.0000)
  15 Ag     2.839089    4.917446   12.317643    ( 0.0000,  0.0000,  0.0000)
  16 Ag     5.678177    4.917446   12.317643    ( 0.0000,  0.0000,  0.0000)
  17 Pt     8.517266    4.917446   12.317643    ( 0.0000,  0.0000,  0.0000)
  18 Pt     1.382601    0.802015   14.574458    ( 0.0000,  0.0000,  0.0000)
  19 Pt     4.320375    0.816336   14.613039    ( 0.0000,  0.0000,  0.0000)
  20 Ru     7.144265    0.918131   14.702206    ( 0.0000,  0.0000,  0.0000)
  21 Pt     2.831254    3.224549   14.674209    ( 0.0000,  0.0000,  0.0000)
  22 Pd     5.669505    3.253449   14.666412    ( 0.0000,  0.0000,  0.0000)
  23 Pt     8.531860    3.282380   14.648110    ( 0.0000,  0.0000,  0.0000)
  24 Ag     4.274318    5.722991   14.646070    ( 0.0000,  0.0000,  0.0000)
  25 Pt     7.164045    5.771726   14.621475    ( 0.0000,  0.0000,  0.0000)
  26 Ag     9.986908    5.738787   14.643456    ( 0.0000,  0.0000,  0.0000)
  27 Pt    -0.010030    1.649760   16.860047    ( 0.0000,  0.0000,  0.0000)
  28 Pd     2.846447    1.596866   16.907942    ( 0.0000,  0.0000,  0.0000)
  29 Pd     5.675289    1.629573   16.927321    ( 0.0000,  0.0000,  0.0000)
  30 Ir     1.434330    4.054121   16.976739    ( 0.0000,  0.0000,  0.0000)
  31 Pt     4.206017    4.046333   16.977057    ( 0.0000,  0.0000,  0.0000)
  32 Pd     7.080668    4.096815   16.929692    ( 0.0000,  0.0000,  0.0000)
  33 Pd     2.838049    6.583929   16.905471    ( 0.0000,  0.0000,  0.0000)
  34 Ag     5.672922    6.523405   16.970942    ( 0.0000,  0.0000,  0.0000)
  35 Pt     8.525101    6.536969   16.950374    ( 0.0000,  0.0000,  0.0000)
  36 Pt    -0.017716    0.053004   19.239954    ( 0.0000,  0.0000,  0.0000)
  37 Pt     2.857597    0.044181   19.266473    ( 0.0000,  0.0000,  0.0000)
  38 Pt     5.659519   -0.012970   19.233800    ( 0.0000,  0.0000,  0.0000)
  39 Pt     1.394642    2.415452   19.172426    ( 0.0000,  0.0000,  0.0000)
  40 Pd     4.249890    2.430035   19.273035    ( 0.0000,  0.0000,  0.0000)
  41 Pd     7.120027    2.427105   19.248801    ( 0.0000,  0.0000,  0.0000)
  42 Pt     2.796750    4.960022   19.159701    ( 0.0000,  0.0000,  0.0000)
  43 Ag     5.679377    4.925181   19.423236    ( 0.0000,  0.0000,  0.0000)
  44 Pt     8.558870    4.929592   19.192007    ( 0.0000,  0.0000,  0.0000)
  45 O      1.411508    0.837546   20.723236    ( 0.0000,  0.0000,  0.0000)

Unit cell:
           periodic     x           y           z      points  spacing
  1. axis:    yes    8.517266    0.000000    0.000000    40     0.1844
  2. axis:    yes    4.258633    7.376169    0.000000    40     0.1844
  3. axis:    no     0.000000    0.000000   29.270571   140     0.2091

  Lengths:   8.517266   8.517266  29.270571
  Angles:   90.000000  90.000000  60.000000

Effective grid spacing dv^(1/3) = 0.2017

     iter     time        total  log10-change:
                         energy  eigst   dens
iter:   1 12:19:01  -255.582334
iter:   2 12:20:07  -222.248979  -1.65  -1.21
iter:   3 12:21:12  -268.078493  -2.09  -1.37
iter:   4 12:22:14  -220.093128  -2.31  -1.23
iter:   5 12:23:15  -216.258972  -2.28  -1.41
iter:   6 12:24:17  -205.972468  -2.97  -1.50
iter:   7 12:25:19  -205.234416  -2.97  -1.62
iter:   8 12:26:20  -202.265574  -3.06  -1.68
iter:   9 12:27:22  -203.044027  -2.89  -1.84
iter:  10 12:28:24  -201.699596  -3.47  -1.93
iter:  11 12:29:26  -201.430196  -3.63  -2.07
iter:  12 12:30:28  -201.277874  -4.12  -2.17
iter:  13 12:31:29  -201.293994c -3.82  -2.23
iter:  14 12:32:30  -201.507587c -4.03  -2.27
iter:  15 12:33:32  -201.027012  -3.95  -2.25
iter:  16 12:34:34  -200.987069  -4.44  -2.51
iter:  17 12:35:36  -200.885621c -4.29  -2.58
iter:  18 12:36:37  -200.888515c -4.78  -2.81
iter:  19 12:37:39  -200.872368c -5.21  -2.87
iter:  20 12:38:41  -200.876761c -5.55  -2.97
iter:  21 12:39:43  -200.867711c -5.77  -2.98
iter:  22 12:40:46  -200.866565c -5.48  -3.09
iter:  23 12:41:48  -200.867209c -6.19  -3.23
iter:  24 12:42:50  -200.868277c -5.56  -3.27
iter:  25 12:43:52  -200.869059c -6.07  -3.42
iter:  26 12:44:54  -200.868404c -6.14  -3.53
iter:  27 12:45:57  -200.870356c -6.42  -3.61
iter:  28 12:46:59  -200.867999c -6.61  -3.46
iter:  29 12:48:02  -200.869257c -6.98  -3.84
iter:  30 12:49:04  -200.867967c -7.08  -3.70
iter:  31 12:50:08  -200.867918c -6.96  -4.02c
iter:  32 12:51:11  -200.867625c -7.87c -4.15c

Converged after 32 iterations.

Dipole moment: (26.868696, 10.081512, -0.174761) |e|*Ang

Energy contributions relative to reference atoms: (reference = -14174778.458134)

Kinetic:       -334.021536
Potential:     +187.993512
External:        +0.000000
XC:             -42.655608
Entropy (-ST):   -2.284429
Local:          -11.041779
--------------------------
Free energy:   -202.009839
Extrapolated:  -200.867625

Showing only first 2 kpts
 Kpt  Band  Eigenvalues  Occupancy
  0   364      0.61101    1.04182
  0   365      0.65163    0.84012
  0   366      0.68177    0.69775
  0   367      0.71533    0.55394

  1   364      0.50367    1.52160
  1   365      0.53407    1.40241
  1   366      0.58150    1.18716
  1   367      0.60560    1.06875


Fermi level: 0.61938

No gap

Forces in eV/Ang:
  0 Pd    0.01362   -0.01100   -0.26179
  1 Pt    0.30146   -0.51846    0.37096
  2 Pt   -0.34074   -0.12947    0.01706
  3 Pd   -0.41071    0.17295   -0.08446
  4 Pd    0.22349   -0.22894   -0.24645
  5 Pt    0.21101    0.30414   -0.19201
  6 Pd   -0.21535    0.23074   -0.10310
  7 Pt    0.55418    0.16487    0.07070
  8 Ru   -0.49909    0.06503    1.32803
  9 Pd   -0.23170    0.17206    0.17859
 10 Pt    0.30549    0.01282   -0.23690
 11 Pd    0.02663    0.03105   -0.08683
 12 Pd    0.07736    0.10222   -0.00831
 13 Pt   -0.18716   -0.18734    0.14276
 14 Ag    0.05300   -0.12606    0.07618
 15 Ag   -0.01028   -0.06819   -0.10638
 16 Ag   -0.05892   -0.05357    0.07882
 17 Pt    0.03120    0.25521   -0.59133
 18 Pt    0.01872    0.02428    0.03111
 19 Pt    0.02660    0.02439    0.00034
 20 Ru   -0.01919   -0.02145   -0.12108
 21 Pt    0.02749   -0.00364   -0.01414
 22 Pd    0.07449   -0.01501    0.00187
 23 Pt   -0.01612   -0.00761   -0.01676
 24 Ag    0.02600   -0.01606   -0.00977
 25 Pt    0.02155   -0.02899    0.01833
 26 Ag    0.01273    0.05442   -0.13369
 27 Pt   -0.05922    0.07284   -0.20258
 28 Pd    0.06577    0.03459   -0.19383
 29 Pd    0.00731    0.04424   -0.02574
 30 Ir    0.02683   -0.33045    0.27930
 31 Pt    0.03227   -0.05209   -0.01299
 32 Pd   -0.03642   -0.06869   -0.01097
 33 Pd    0.11407    0.08601    0.35146
 34 Ag   -0.01669   -0.08614   -0.09400
 35 Pt   -0.12558    0.10315    0.27821
 36 Pt   -0.28500   -0.33259    0.71399
 37 Pt    0.19559   -0.33479    0.69827
 38 Pt    0.01002   -0.01647   -0.14969
 39 Pt    0.09914    0.55939    0.48992
 40 Pd    0.16719    0.17429   -0.06886
 41 Pd   -0.26396    0.18316   -0.07335
 42 Pt   -0.06037    0.00441   -0.07136
 43 Ag   -0.00256   -0.15622    0.03921
 44 Pt    0.02576   -0.02914   -0.07222
 45 O     0.08795   -0.05066   -2.12141

System changes: positions 

Initializing position-dependent things.

Density initialized from wave functions
                                             
                                             
                                             
                                             
                                             
                                             
                        Ag                   
                 Pt            Pt            
           OPt    PPd    APd    Pt           
                                             
       Pt    IPt    PPt    Pd                
                                             
        Pt     Pd    APd    Pt     Ag        
                Pt     Pd     Pt             
                                             
           Pt    APt    ARu    Pt            
                                             
            Pd    PPt    PAg    Ru           
       Pd     Pt     Pd                      
             Pd     Pd     Pt                
        Pd     Pt     Pt                     
                                             
                                             
                                             
                                             
                                             

Positions:
   0 Pd     0.000000    1.639149   10.000000    ( 0.0000,  0.0000,  0.0000)
   1 Pt     2.839089    1.639149   10.000000    ( 0.0000,  0.0000,  0.0000)
   2 Pt     5.678177    1.639149   10.000000    ( 0.0000,  0.0000,  0.0000)
   3 Pd     1.419544    4.097872   10.000000    ( 0.0000,  0.0000,  0.0000)
   4 Pd     4.258633    4.097872   10.000000    ( 0.0000,  0.0000,  0.0000)
   5 Pt     7.097722    4.097872   10.000000    ( 0.0000,  0.0000,  0.0000)
   6 Pd     2.839089    6.556595   10.000000    ( 0.0000,  0.0000,  0.0000)
   7 Pt     5.678177    6.556595   10.000000    ( 0.0000,  0.0000,  0.0000)
   8 Ru     8.517266    6.556595   10.000000    ( 0.0000,  0.0000,  0.0000)
   9 Pd     0.000000    0.000000   12.317643    ( 0.0000,  0.0000,  0.0000)
  10 Pt     2.839089    0.000000   12.317643    ( 0.0000,  0.0000,  0.0000)
  11 Pd     5.678177    0.000000   12.317643    ( 0.0000,  0.0000,  0.0000)
  12 Pd     1.419544    2.458723   12.317643    ( 0.0000,  0.0000,  0.0000)
  13 Pt     4.258633    2.458723   12.317643    ( 0.0000,  0.0000,  0.0000)
  14 Ag     7.097722    2.458723   12.317643    ( 0.0000,  0.0000,  0.0000)
  15 Ag     2.839089    4.917446   12.317643    ( 0.0000,  0.0000,  0.0000)
  16 Ag     5.678177    4.917446   12.317643    ( 0.0000,  0.0000,  0.0000)
  17 Pt     8.517266    4.917446   12.317643    ( 0.0000,  0.0000,  0.0000)
  18 Pt     1.382868    0.802362   14.574902    ( 0.0000,  0.0000,  0.0000)
  19 Pt     4.320755    0.816684   14.613043    ( 0.0000,  0.0000,  0.0000)
  20 Ru     7.143991    0.917825   14.700476    ( 0.0000,  0.0000,  0.0000)
  21 Pt     2.831646    3.224497   14.674007    ( 0.0000,  0.0000,  0.0000)
  22 Pd     5.670569    3.253234   14.666439    ( 0.0000,  0.0000,  0.0000)
  23 Pt     8.531630    3.282271   14.647871    ( 0.0000,  0.0000,  0.0000)
  24 Ag     4.274690    5.722762   14.645931    ( 0.0000,  0.0000,  0.0000)
  25 Pt     7.164352    5.771312   14.621737    ( 0.0000,  0.0000,  0.0000)
  26 Ag     9.987090    5.739564   14.641546    ( 0.0000,  0.0000,  0.0000)
  27 Pt    -0.010876    1.650801   16.857153    ( 0.0000,  0.0000,  0.0000)
  28 Pd     2.847387    1.597360   16.905173    ( 0.0000,  0.0000,  0.0000)
  29 Pd     5.675394    1.630205   16.926953    ( 0.0000,  0.0000,  0.0000)
  30 Ir     1.434714    4.049400   16.980729    ( 0.0000,  0.0000,  0.0000)
  31 Pt     4.206478    4.045589   16.976872    ( 0.0000,  0.0000,  0.0000)
  32 Pd     7.080148    4.095833   16.929536    ( 0.0000,  0.0000,  0.0000)
  33 Pd     2.839678    6.585158   16.910492    ( 0.0000,  0.0000,  0.0000)
  34 Ag     5.672684    6.522175   16.969600    ( 0.0000,  0.0000,  0.0000)
  35 Pt     8.523307    6.538443   16.954349    ( 0.0000,  0.0000,  0.0000)
  36 Pt    -0.021787    0.048253   19.250154    ( 0.0000,  0.0000,  0.0000)
  37 Pt     2.860391    0.039399   19.276448    ( 0.0000,  0.0000,  0.0000)
  38 Pt     5.659662   -0.013205   19.231662    ( 0.0000,  0.0000,  0.0000)
  39 Pt     1.396059    2.423444   19.179425    ( 0.0000,  0.0000,  0.0000)
  40 Pd     4.252278    2.432524   19.272051    ( 0.0000,  0.0000,  0.0000)
  41 Pd     7.116256    2.429722   19.247754    ( 0.0000,  0.0000,  0.0000)
  42 Pt     2.795887    4.960085   19.158682    ( 0.0000,  0.0000,  0.0000)
  43 Ag     5.679340    4.922949   19.423796    ( 0.0000,  0.0000,  0.0000)
  44 Pt     8.559238    4.929176   19.190975    ( 0.0000,  0.0000,  0.0000)
  45 O      1.412764    0.836822   20.692930    ( 0.0000,  0.0000,  0.0000)

Unit cell:
           periodic     x           y           z      points  spacing
  1. axis:    yes    8.517266    0.000000    0.000000    40     0.1844
  2. axis:    yes    4.258633    7.376169    0.000000    40     0.1844
  3. axis:    no     0.000000    0.000000   29.270571   140     0.2091

  Lengths:   8.517266   8.517266  29.270571
  Angles:   90.000000  90.000000  60.000000

Effective grid spacing dv^(1/3) = 0.2017

     iter     time        total  log10-change:
                         energy  eigst   dens
iter:   1 12:52:34  -201.882771  -4.16
iter:   2 12:53:37  -231.142689  -3.02  -2.24
iter:   3 12:54:39  -201.820153  -3.24  -1.52
iter:   4 12:55:41  -201.072177  -4.33  -2.33
iter:   5 12:56:44  -201.038323  -5.34  -2.83
iter:   6 12:57:48  -201.061359c -5.17  -2.90
iter:   7 12:58:51  -201.011769c -5.34  -2.73
iter:   8 12:59:55  -200.970670c -5.62  -2.99
iter:   9 13:00:58  -200.969205c -6.61  -3.50
iter:  10 13:02:02  -200.971071c -6.56  -3.60
iter:  11 13:03:06  -200.967042c -6.35  -3.44
iter:  12 13:04:09  -200.967144c -6.61  -3.61
iter:  13 13:05:12  -200.966318c -7.28  -3.69
iter:  14 13:06:15  -200.966420c -7.54c -4.04c

Converged after 14 iterations.

Dipole moment: (27.431397, 10.536630, -0.155505) |e|*Ang

Energy contributions relative to reference atoms: (reference = -14174778.458134)

Kinetic:       -330.062320
Potential:     +184.300964
External:        +0.000000
XC:             -42.992725
Entropy (-ST):   -2.278844
Local:          -11.072918
--------------------------
Free energy:   -202.105842
Extrapolated:  -200.966420

Showing only first 2 kpts
 Kpt  Band  Eigenvalues  Occupancy
  0   364      0.61942    1.04862
  0   365      0.66090    0.84257
  0   366      0.68955    0.70688
  0   367      0.72403    0.55827

  1   364      0.51332    1.52206
  1   365      0.54447    1.39980
  1   366      0.59123    1.18736
  1   367      0.61545    1.06839


Fermi level: 0.62915

No gap

Forces in eV/Ang:
  0 Pd    0.01189   -0.00902   -0.25581
  1 Pt    0.30590   -0.52608    0.37491
  2 Pt   -0.34444   -0.14054    0.02461
  3 Pd   -0.41388    0.18372   -0.07724
  4 Pd    0.22100   -0.22402   -0.23162
  5 Pt    0.21867    0.31376   -0.18305
  6 Pd   -0.22458    0.22583   -0.08821
  7 Pt    0.56234    0.16095    0.08266
  8 Ru   -0.49800    0.06249    1.34508
  9 Pd   -0.23302    0.17098    0.18185
 10 Pt    0.30213    0.00650   -0.23039
 11 Pd    0.03169    0.03512   -0.09597
 12 Pd    0.07452    0.10430   -0.00791
 13 Pt   -0.18433   -0.17714    0.14458
 14 Ag    0.05611   -0.12566    0.06574
 15 Ag   -0.00576   -0.06792   -0.11506
 16 Ag   -0.05852   -0.05352    0.06997
 17 Pt    0.02570    0.24844   -0.59320
 18 Pt    0.01119    0.01464    0.00916
 19 Pt    0.03454    0.00442   -0.00769
 20 Ru   -0.01600   -0.03843   -0.11023
 21 Pt    0.01656    0.02146   -0.02040
 22 Pd    0.06057   -0.01149   -0.01545
 23 Pt    0.00122    0.01481   -0.02969
 24 Ag    0.01052   -0.01256   -0.00876
 25 Pt    0.03650   -0.02214    0.01160
 26 Ag    0.01305    0.04585   -0.09086
 27 Pt   -0.02223    0.03272   -0.12852
 28 Pd    0.02699   -0.00673   -0.11367
 29 Pd    0.00783    0.01874   -0.03469
 30 Ir    0.02534   -0.27929    0.20703
 31 Pt    0.00640   -0.02987   -0.03955
 32 Pd   -0.01018   -0.04234   -0.03132
 33 Pd    0.09687    0.07394    0.27492
 34 Ag   -0.01714   -0.03396   -0.04249
 35 Pt   -0.11202    0.08289    0.21247
 36 Pt   -0.29995   -0.28629    0.54853
 37 Pt    0.21953   -0.29338    0.52703
 38 Pt    0.00734    0.00172   -0.15540
 39 Pt    0.07081    0.48476    0.33756
 40 Pd    0.12895    0.11795   -0.10546
 41 Pd   -0.19574    0.12506   -0.11356
 42 Pt   -0.04233    0.00690   -0.08675
 43 Ag   -0.00368   -0.13583   -0.00767
 44 Pt    0.01286   -0.02855   -0.08660
 45 O     0.08412   -0.04775   -1.79103

System changes: positions 

Initializing position-dependent things.

Density initialized from wave functions
                                             
                                             
                                             
                                             
                                             
                                             
                        Ag                   
                 Pt            Pt            
           OPt     Pd    APd    Pt           
                                             
       Pt    IPt    PPt    Pd                
                                             
        Pt     Pd    APd    Pt     Ag        
                Pt     Pd     Pt             
                                             
           Pt    APt    ARu    Pt            
                                             
            Pd    PPt    PAg    Ru           
       Pd    PPt    PPd    Pt                
                                             
        Pd     Pt     Pt                     
                                             
                                             
                                             
                                             
                                             

Positions:
   0 Pd     0.000000    1.639149   10.000000    ( 0.0000,  0.0000,  0.0000)
   1 Pt     2.839089    1.639149   10.000000    ( 0.0000,  0.0000,  0.0000)
   2 Pt     5.678177    1.639149   10.000000    ( 0.0000,  0.0000,  0.0000)
   3 Pd     1.419544    4.097872   10.000000    ( 0.0000,  0.0000,  0.0000)
   4 Pd     4.258633    4.097872   10.000000    ( 0.0000,  0.0000,  0.0000)
   5 Pt     7.097722    4.097872   10.000000    ( 0.0000,  0.0000,  0.0000)
   6 Pd     2.839089    6.556595   10.000000    ( 0.0000,  0.0000,  0.0000)
   7 Pt     5.678177    6.556595   10.000000    ( 0.0000,  0.0000,  0.0000)
   8 Ru     8.517266    6.556595   10.000000    ( 0.0000,  0.0000,  0.0000)
   9 Pd     0.000000    0.000000   12.317643    ( 0.0000,  0.0000,  0.0000)
  10 Pt     2.839089    0.000000   12.317643    ( 0.0000,  0.0000,  0.0000)
  11 Pd     5.678177    0.000000   12.317643    ( 0.0000,  0.0000,  0.0000)
  12 Pd     1.419544    2.458723   12.317643    ( 0.0000,  0.0000,  0.0000)
  13 Pt     4.258633    2.458723   12.317643    ( 0.0000,  0.0000,  0.0000)
  14 Ag     7.097722    2.458723   12.317643    ( 0.0000,  0.0000,  0.0000)
  15 Ag     2.839089    4.917446   12.317643    ( 0.0000,  0.0000,  0.0000)
  16 Ag     5.678177    4.917446   12.317643    ( 0.0000,  0.0000,  0.0000)
  17 Pt     8.517266    4.917446   12.317643    ( 0.0000,  0.0000,  0.0000)
  18 Pt     1.383836    0.803627   14.575743    ( 0.0000,  0.0000,  0.0000)
  19 Pt     4.323644    0.817119   14.612420    ( 0.0000,  0.0000,  0.0000)
  20 Ru     7.142631    0.914635   14.691142    ( 0.0000,  0.0000,  0.0000)
  21 Pt     2.833078    3.226230   14.672306    ( 0.0000,  0.0000,  0.0000)
  22 Pd     5.675722    3.252254   14.665189    ( 0.0000,  0.0000,  0.0000)
  23 Pt     8.531679    3.283452   14.645406    ( 0.0000,  0.0000,  0.0000)
  24 Ag     4.275625    5.721691   14.645188    ( 0.0000,  0.0000,  0.0000)
  25 Pt     7.167385    5.769423   14.622736    ( 0.0000,  0.0000,  0.0000)
  26 Ag     9.988190    5.743459   14.633748    ( 0.0000,  0.0000,  0.0000)
  27 Pt    -0.012866    1.653686   16.846080    ( 0.0000,  0.0000,  0.0000)
  28 Pd     2.849784    1.596920   16.895334    ( 0.0000,  0.0000,  0.0000)
  29 Pd     5.676052    1.631865   16.924054    ( 0.0000,  0.0000,  0.0000)
  30 Ir     1.436856    4.025677   16.998420    ( 0.0000,  0.0000,  0.0000)
  31 Pt     4.207098    4.043000   16.973617    ( 0.0000,  0.0000,  0.0000)
  32 Pd     7.079208    4.092180   16.926956    ( 0.0000,  0.0000,  0.0000)
  33 Pd     2.847905    6.591434   16.933924    ( 0.0000,  0.0000,  0.0000)
  34 Ag     5.671239    6.519148   16.965855    ( 0.0000,  0.0000,  0.0000)
  35 Pt     8.513814    6.545499   16.972478    ( 0.0000,  0.0000,  0.0000)
  36 Pt    -0.047047    0.023955   19.296947    ( 0.0000,  0.0000,  0.0000)
  37 Pt     2.878838    0.014518   19.321444    ( 0.0000,  0.0000,  0.0000)
  38 Pt     5.660289   -0.013117   19.218569    ( 0.0000,  0.0000,  0.0000)
  39 Pt     1.402121    2.464574   19.208377    ( 0.0000,  0.0000,  0.0000)
  40 Pd     4.263277    2.442650   19.263267    ( 0.0000,  0.0000,  0.0000)
  41 Pd     7.099530    2.440453   19.238297    ( 0.0000,  0.0000,  0.0000)
  42 Pt     2.792259    4.960659   19.151411    ( 0.0000,  0.0000,  0.0000)
  43 Ag     5.679034    4.911427   19.423294    ( 0.0000,  0.0000,  0.0000)
  44 Pt     8.560363    4.926765   19.183713    ( 0.0000,  0.0000,  0.0000)
  45 O      1.419873    0.832784   20.540796    ( 0.0000,  0.0000,  0.0000)

Unit cell:
           periodic     x           y           z      points  spacing
  1. axis:    yes    8.517266    0.000000    0.000000    40     0.1844
  2. axis:    yes    4.258633    7.376169    0.000000    40     0.1844
  3. axis:    no     0.000000    0.000000   29.270571   140     0.2091

  Lengths:   8.517266   8.517266  29.270571
  Angles:   90.000000  90.000000  60.000000

Effective grid spacing dv^(1/3) = 0.2017

     iter     time        total  log10-change:
                         energy  eigst   dens
iter:   1 13:07:38  -213.469598  -2.88
iter:   2 13:08:41  -382.702903  -1.71  -1.70
iter:   3 13:09:44  -215.207577  -2.27  -1.13
iter:   4 13:10:47  -203.111425  -3.06  -1.74
iter:   5 13:11:49  -202.142148  -4.17  -2.23
iter:   6 13:12:52  -201.898083  -4.19  -2.34
iter:   7 13:13:55  -202.195418c -4.29  -2.38
iter:   8 13:14:58  -201.450599  -4.00  -2.31
iter:   9 13:16:02  -201.369870  -4.90  -2.54
iter:  10 13:17:04  -201.315597c -5.26  -2.67
iter:  11 13:18:06  -201.304595c -5.72  -2.80
iter:  12 13:19:08  -201.279064c -4.91  -2.84
iter:  13 13:20:11  -201.273664c -5.27  -3.03
iter:  14 13:21:14  -201.276698c -5.91  -3.14
iter:  15 13:22:19  -201.260156c -5.75  -3.02
iter:  16 13:23:29  -201.260162c -6.54  -3.57
iter:  17 13:24:38  -201.259088c -6.42  -3.54
iter:  18 13:25:47  -201.261044c -6.26  -3.58
iter:  19 13:26:56  -201.261329c -6.63  -3.45
iter:  20 13:28:04  -201.258456c -6.77  -3.67
iter:  21 13:29:12  -201.258464c -7.47c -3.95
iter:  22 13:30:21  -201.258911c -7.32  -4.07c
iter:  23 13:31:29  -201.258619c -7.68c -4.13c

Converged after 23 iterations.

Dipole moment: (30.519847, 12.810035, -0.095373) |e|*Ang

Energy contributions relative to reference atoms: (reference = -14174778.458134)

Kinetic:       -324.019536
Potential:     +179.078295
External:        +0.000000
XC:             -44.097884
Entropy (-ST):   -2.257267
Local:          -11.090861
--------------------------
Free energy:   -202.387252
Extrapolated:  -201.258619

Showing only first 2 kpts
 Kpt  Band  Eigenvalues  Occupancy
  0   364      0.64770    1.05995
  0   365      0.68843    0.85733
  0   366      0.71170    0.74571
  0   367      0.74480    0.59847

  1   364      0.54453    1.51964
  1   365      0.58138    1.37276
  1   366      0.61892    1.20114
  1   367      0.64707    1.06307


Fermi level: 0.65970

No gap

Forces in eV/Ang:
  0 Pd    0.01484   -0.01311   -0.26483
  1 Pt    0.29865   -0.51531    0.37136
  2 Pt   -0.34461   -0.13192    0.01923
  3 Pd   -0.41310    0.17479   -0.08499
  4 Pd    0.22135   -0.22789   -0.24462
  5 Pt    0.21934    0.30648   -0.19675
  6 Pd   -0.21249    0.22944   -0.09996
  7 Pt    0.54559    0.16840    0.07104
  8 Ru   -0.49349    0.05970    1.33731
  9 Pd   -0.22731    0.16861    0.18092
 10 Pt    0.30357    0.00694   -0.21173
 11 Pd    0.03754    0.05212   -0.10667
 12 Pd    0.08297    0.10520   -0.00883
 13 Pt   -0.18608   -0.17037    0.13952
 14 Ag    0.05600   -0.12217    0.03461
 15 Ag    0.00231   -0.07531   -0.12899
 16 Ag   -0.06015   -0.05358    0.07086
 17 Pt    0.02171    0.23590   -0.59671
 18 Pt    0.01640   -0.00712   -0.03145
 19 Pt    0.03207   -0.01171   -0.01400
 20 Ru   -0.01492   -0.05430   -0.06513
 21 Pt    0.01518    0.01681   -0.03272
 22 Pd    0.02893   -0.00299   -0.02173
 23 Pt    0.02504    0.03689   -0.04407
 24 Ag   -0.00377    0.00495    0.02006
 25 Pt    0.02953    0.00405    0.02202
 26 Ag    0.02397    0.02802    0.09735
 27 Pt    0.02028    0.01356    0.00699
 28 Pd   -0.02559   -0.05204    0.06114
 29 Pd    0.01061    0.00218   -0.08367
 30 Ir    0.00195   -0.06900   -0.00941
 31 Pt    0.02485   -0.01000   -0.06094
 32 Pd   -0.01798    0.00252   -0.04849
 33 Pd    0.01243    0.04524    0.00986
 34 Ag   -0.01340    0.03306    0.11135
 35 Pt   -0.02240    0.02051   -0.01092
 36 Pt   -0.46561   -0.29406    0.10693
 37 Pt    0.43137   -0.30706   -0.00259
 38 Pt    0.01208    0.07420    0.01411
 39 Pt    0.02820    0.38455   -0.08499
 40 Pd    0.05817    0.03005   -0.04741
 41 Pd   -0.07044    0.02993   -0.06366
 42 Pt    0.03761   -0.03561    0.06351
 43 Ag   -0.01108   -0.07716    0.01596
 44 Pt   -0.05812   -0.05020    0.03099
 45 O     0.02439    0.05276   -0.34761

System changes: positions 

Initializing position-dependent things.

Density initialized from wave functions
                                              
                                              
                                              
                                              
                                              
                                              
                         Ag                   
                  Pt            Pt            
            OPt    PPd    APd    Pt           
                                              
       Pt     IPt    PPt    Pd                
                                              
         Pt     Pd    APd    Pt     Ag        
                 Pt     Pd     Pt             
                                              
           Pt     APt    ARu    Pt            
                                              
             Pd    PPt    PAg    Ru           
       Pd     PPt    PPd    Pt                
                                              
         Pd     Pt     Pt                     
                                              
                                              
                                              
                                              
                                              

Positions:
   0 Pd     0.000000    1.639149   10.000000    ( 0.0000,  0.0000,  0.0000)
   1 Pt     2.839089    1.639149   10.000000    ( 0.0000,  0.0000,  0.0000)
   2 Pt     5.678177    1.639149   10.000000    ( 0.0000,  0.0000,  0.0000)
   3 Pd     1.419544    4.097872   10.000000    ( 0.0000,  0.0000,  0.0000)
   4 Pd     4.258633    4.097872   10.000000    ( 0.0000,  0.0000,  0.0000)
   5 Pt     7.097722    4.097872   10.000000    ( 0.0000,  0.0000,  0.0000)
   6 Pd     2.839089    6.556595   10.000000    ( 0.0000,  0.0000,  0.0000)
   7 Pt     5.678177    6.556595   10.000000    ( 0.0000,  0.0000,  0.0000)
   8 Ru     8.517266    6.556595   10.000000    ( 0.0000,  0.0000,  0.0000)
   9 Pd     0.000000    0.000000   12.317643    ( 0.0000,  0.0000,  0.0000)
  10 Pt     2.839089    0.000000   12.317643    ( 0.0000,  0.0000,  0.0000)
  11 Pd     5.678177    0.000000   12.317643    ( 0.0000,  0.0000,  0.0000)
  12 Pd     1.419544    2.458723   12.317643    ( 0.0000,  0.0000,  0.0000)
  13 Pt     4.258633    2.458723   12.317643    ( 0.0000,  0.0000,  0.0000)
  14 Ag     7.097722    2.458723   12.317643    ( 0.0000,  0.0000,  0.0000)
  15 Ag     2.839089    4.917446   12.317643    ( 0.0000,  0.0000,  0.0000)
  16 Ag     5.678177    4.917446   12.317643    ( 0.0000,  0.0000,  0.0000)
  17 Pt     8.517266    4.917446   12.317643    ( 0.0000,  0.0000,  0.0000)
  18 Pt     1.384489    0.803926   14.575450    ( 0.0000,  0.0000,  0.0000)
  19 Pt     4.325216    0.817070   14.611954    ( 0.0000,  0.0000,  0.0000)
  20 Ru     7.141884    0.912547   14.686750    ( 0.0000,  0.0000,  0.0000)
  21 Pt     2.833867    3.227091   14.671114    ( 0.0000,  0.0000,  0.0000)
  22 Pd     5.678024    3.251863   14.664380    ( 0.0000,  0.0000,  0.0000)
  23 Pt     8.532152    3.284523   14.643752    ( 0.0000,  0.0000,  0.0000)
  24 Ag     4.275890    5.721425   14.645329    ( 0.0000,  0.0000,  0.0000)
  25 Pt     7.168944    5.768861   14.623508    ( 0.0000,  0.0000,  0.0000)
  26 Ag     9.989022    5.745315   14.632966    ( 0.0000,  0.0000,  0.0000)
  27 Pt    -0.013197    1.654977   16.842403    ( 0.0000,  0.0000,  0.0000)
  28 Pd     2.850151    1.595833   16.893108    ( 0.0000,  0.0000,  0.0000)
  29 Pd     5.676477    1.632503   16.921480    ( 0.0000,  0.0000,  0.0000)
  30 Ir     1.437610    4.016348   17.004253    ( 0.0000,  0.0000,  0.0000)
  31 Pt     4.207830    4.041906   16.971395    ( 0.0000,  0.0000,  0.0000)
  32 Pd     7.078502    4.090967   16.925190    ( 0.0000,  0.0000,  0.0000)
  33 Pd     2.850916    6.594423   16.942051    ( 0.0000,  0.0000,  0.0000)
  34 Ag     5.670498    6.518694   16.966682    ( 0.0000,  0.0000,  0.0000)
  35 Pt     8.510193    6.548282   16.978417    ( 0.0000,  0.0000,  0.0000)
  36 Pt    -0.064474    0.010076   19.314890    ( 0.0000,  0.0000,  0.0000)
  37 Pt     2.893316    0.000200   19.336674    ( 0.0000,  0.0000,  0.0000)
  38 Pt     5.660737   -0.011678   19.214489    ( 0.0000,  0.0000,  0.0000)
  39 Pt     1.404735    2.485865   19.216630    ( 0.0000,  0.0000,  0.0000)
  40 Pd     4.268134    2.446702   19.259481    ( 0.0000,  0.0000,  0.0000)
  41 Pd     7.092476    2.444707   19.233978    ( 0.0000,  0.0000,  0.0000)
  42 Pt     2.791750    4.960155   19.150246    ( 0.0000,  0.0000,  0.0000)
  43 Ag     5.678718    4.906056   19.423515    ( 0.0000,  0.0000,  0.0000)
  44 Pt     8.559631    4.924987   19.181919    ( 0.0000,  0.0000,  0.0000)
  45 O      1.422722    0.832458   20.482805    ( 0.0000,  0.0000,  0.0000)

Unit cell:
           periodic     x           y           z      points  spacing
  1. axis:    yes    8.517266    0.000000    0.000000    40     0.1844
  2. axis:    yes    4.258633    7.376169    0.000000    40     0.1844
  3. axis:    no     0.000000    0.000000   29.270571   140     0.2091

  Lengths:   8.517266   8.517266  29.270571
  Angles:   90.000000  90.000000  60.000000

Effective grid spacing dv^(1/3) = 0.2017

     iter     time        total  log10-change:
                         energy  eigst   dens
iter:   1 13:32:59  -208.583759  -3.46
iter:   2 13:34:07  -339.239996  -2.08  -1.82
iter:   3 13:35:11  -211.403665  -2.56  -1.20
iter:   4 13:36:13  -202.932626  -3.44  -1.81
iter:   5 13:37:16  -201.667973  -4.35  -2.20
iter:   6 13:38:18  -201.459358  -4.70  -2.60
iter:   7 13:39:21  -201.500746c -4.73  -2.76
iter:   8 13:40:23  -201.347389c -4.51  -2.64
iter:   9 13:41:26  -201.322012c -5.17  -2.85
iter:  10 13:42:28  -201.324431c -5.75  -3.18
iter:  11 13:43:31  -201.310279c -6.17  -3.04
iter:  12 13:44:33  -201.308111c -5.75  -3.31
iter:  13 13:45:36  -201.306103c -6.47  -3.39
iter:  14 13:46:38  -201.305800c -6.23  -3.60
iter:  15 13:47:42  -201.305046c -6.45  -3.49
iter:  16 13:48:45  -201.304002c -7.12  -3.66
iter:  17 13:49:48  -201.303966c -7.29  -3.81
iter:  18 13:50:52  -201.303707c -7.05  -3.97
iter:  19 13:51:56  -201.304015c -7.57c -4.13c

Converged after 19 iterations.

Dipole moment: (32.221272, 14.056528, -0.081313) |e|*Ang

Energy contributions relative to reference atoms: (reference = -14174778.458134)

Kinetic:       -320.743450
Potential:     +176.180141
External:        +0.000000
XC:             -44.514131
Entropy (-ST):   -2.251313
Local:          -11.100919
--------------------------
Free energy:   -202.429671
Extrapolated:  -201.304015

Showing only first 2 kpts
 Kpt  Band  Eigenvalues  Occupancy
  0   364      0.65756    1.05444
  0   365      0.69649    0.86076
  0   366      0.71822    0.75620
  0   367      0.74977    0.61444

  1   364      0.55698    1.50604
  1   365      0.59272    1.36155
  1   366      0.62603    1.20900
  1   367      0.65568    1.06381


Fermi level: 0.66846

No gap

Forces in eV/Ang:
  0 Pd    0.01355   -0.01275   -0.26410
  1 Pt    0.29928   -0.51900    0.37196
  2 Pt   -0.34543   -0.13832    0.02106
  3 Pd   -0.41320    0.17907   -0.08607
  4 Pd    0.22030   -0.22444   -0.24354
  5 Pt    0.22176    0.31035   -0.19568
  6 Pd   -0.21576    0.22779   -0.10092
  7 Pt    0.54755    0.16779    0.07276
  8 Ru   -0.49033    0.05923    1.33404
  9 Pd   -0.22631    0.16687    0.18249
 10 Pt    0.30452    0.00323   -0.20625
 11 Pd    0.04108    0.05376   -0.10810
 12 Pd    0.08273    0.10584   -0.00734
 13 Pt   -0.18345   -0.16865    0.14097
 14 Ag    0.05653   -0.12054    0.02795
 15 Ag    0.00267   -0.07304   -0.12682
 16 Ag   -0.05860   -0.05292    0.07444
 17 Pt    0.02122    0.23456   -0.59295
 18 Pt    0.01489   -0.01313   -0.01831
 19 Pt    0.02589   -0.01647   -0.00409
 20 Ru   -0.00907   -0.05058   -0.03112
 21 Pt    0.01146    0.01213   -0.01635
 22 Pd    0.01556   -0.00020   -0.01524
 23 Pt    0.02917    0.03624   -0.02914
 24 Ag   -0.00531    0.01222    0.03722
 25 Pt    0.02412    0.01372    0.03448
 26 Ag    0.02495    0.01352    0.15907
 27 Pt    0.03099    0.00160    0.05610
 28 Pd   -0.03890   -0.05893    0.11773
 29 Pd    0.00997   -0.01059   -0.07820
 30 Ir   -0.00173    0.03906   -0.10211
 31 Pt    0.01357    0.00185   -0.05329
 32 Pd   -0.00622    0.02449   -0.04083
 33 Pd   -0.02348    0.01862   -0.10030
 34 Ag   -0.01532    0.05392    0.15560
 35 Pt    0.02428   -0.01482   -0.09392
 36 Pt   -0.44204   -0.24271   -0.04819
 37 Pt    0.43405   -0.26756   -0.18517
 38 Pt    0.01313    0.08054    0.06592
 39 Pt    0.00417    0.23685   -0.19042
 40 Pd    0.00725   -0.02535   -0.04107
 41 Pd    0.00961   -0.02967   -0.05750
 42 Pt    0.04388   -0.04178    0.08882
 43 Ag   -0.01372   -0.03396    0.01757
 44 Pt   -0.06161   -0.04109    0.04873
 45 O     0.00043    0.07929    0.04840

System changes: positions 

Initializing position-dependent things.

Density initialized from wave functions
                                              
                                              
                                              
                                              
                                              
                                              
                         Ag                   
                  Pt            Pt            
            OPt    PPd    APd    Pt           
                                              
       Pt     IPt    PPt    Pd                
                       Pd                     
         Pt     Pd    Ag     Pt     Ag        
                 Pt     Pd     Pt             
                                              
           Pt     APt    ARu    Pt            
                                              
             Pd    PPt    PAg    Ru           
        Pd    PPt    PPd    Pt                
                                              
         Pd     Pt     Pt                     
                                              
                                              
                                              
                                              
                                              

Positions:
   0 Pd     0.000000    1.639149   10.000000    ( 0.0000,  0.0000,  0.0000)
   1 Pt     2.839089    1.639149   10.000000    ( 0.0000,  0.0000,  0.0000)
   2 Pt     5.678177    1.639149   10.000000    ( 0.0000,  0.0000,  0.0000)
   3 Pd     1.419544    4.097872   10.000000    ( 0.0000,  0.0000,  0.0000)
   4 Pd     4.258633    4.097872   10.000000    ( 0.0000,  0.0000,  0.0000)
   5 Pt     7.097722    4.097872   10.000000    ( 0.0000,  0.0000,  0.0000)
   6 Pd     2.839089    6.556595   10.000000    ( 0.0000,  0.0000,  0.0000)
   7 Pt     5.678177    6.556595   10.000000    ( 0.0000,  0.0000,  0.0000)
   8 Ru     8.517266    6.556595   10.000000    ( 0.0000,  0.0000,  0.0000)
   9 Pd     0.000000    0.000000   12.317643    ( 0.0000,  0.0000,  0.0000)
  10 Pt     2.839089    0.000000   12.317643    ( 0.0000,  0.0000,  0.0000)
  11 Pd     5.678177    0.000000   12.317643    ( 0.0000,  0.0000,  0.0000)
  12 Pd     1.419544    2.458723   12.317643    ( 0.0000,  0.0000,  0.0000)
  13 Pt     4.258633    2.458723   12.317643    ( 0.0000,  0.0000,  0.0000)
  14 Ag     7.097722    2.458723   12.317643    ( 0.0000,  0.0000,  0.0000)
  15 Ag     2.839089    4.917446   12.317643    ( 0.0000,  0.0000,  0.0000)
  16 Ag     5.678177    4.917446   12.317643    ( 0.0000,  0.0000,  0.0000)
  17 Pt     8.517266    4.917446   12.317643    ( 0.0000,  0.0000,  0.0000)
  18 Pt     1.385042    0.803840   14.575092    ( 0.0000,  0.0000,  0.0000)
  19 Pt     4.326332    0.816790   14.611720    ( 0.0000,  0.0000,  0.0000)
  20 Ru     7.141406    0.910792   14.684324    ( 0.0000,  0.0000,  0.0000)
  21 Pt     2.834424    3.227630   14.670364    ( 0.0000,  0.0000,  0.0000)
  22 Pd     5.679312    3.251685   14.663807    ( 0.0000,  0.0000,  0.0000)
  23 Pt     8.532840    3.285577   14.642583    ( 0.0000,  0.0000,  0.0000)
  24 Ag     4.275942    5.721526   14.646069    ( 0.0000,  0.0000,  0.0000)
  25 Pt     7.170015    5.768854   14.624488    ( 0.0000,  0.0000,  0.0000)
  26 Ag     9.989820    5.746352   14.635398    ( 0.0000,  0.0000,  0.0000)
  27 Pt    -0.012856    1.655618   16.841703    ( 0.0000,  0.0000,  0.0000)
  28 Pd     2.849689    1.594399   16.894114    ( 0.0000,  0.0000,  0.0000)
  29 Pd     5.676834    1.632616   16.919035    ( 0.0000,  0.0000,  0.0000)
  30 Ir     1.437916    4.013022   17.005020    ( 0.0000,  0.0000,  0.0000)
  31 Pt     4.208394    4.041442   16.969561    ( 0.0000,  0.0000,  0.0000)
  32 Pd     7.078074    4.090853   16.923762    ( 0.0000,  0.0000,  0.0000)
  33 Pd     2.851806    6.596027   16.943844    ( 0.0000,  0.0000,  0.0000)
  34 Ag     5.669898    6.519370   16.969716    ( 0.0000,  0.0000,  0.0000)
  35 Pt     8.509080    6.549220   16.979391    ( 0.0000,  0.0000,  0.0000)
  36 Pt    -0.079688   -0.000205   19.322026    ( 0.0000,  0.0000,  0.0000)
  37 Pt     2.907125   -0.010728   19.340206    ( 0.0000,  0.0000,  0.0000)
  38 Pt     5.661168   -0.009688   19.213907    ( 0.0000,  0.0000,  0.0000)
  39 Pt     1.405963    2.499152   19.217119    ( 0.0000,  0.0000,  0.0000)
  40 Pd     4.270362    2.448033   19.257148    ( 0.0000,  0.0000,  0.0000)
  41 Pd     7.089576    2.446047   19.231133    ( 0.0000,  0.0000,  0.0000)
  42 Pt     2.792240    4.959205   19.151302    ( 0.0000,  0.0000,  0.0000)
  43 Ag     5.678339    4.903151   19.423990    ( 0.0000,  0.0000,  0.0000)
  44 Pt     8.558281    4.923521   19.181993    ( 0.0000,  0.0000,  0.0000)
  45 O      1.423955    0.833714   20.457926    ( 0.0000,  0.0000,  0.0000)

Unit cell:
           periodic     x           y           z      points  spacing
  1. axis:    yes    8.517266    0.000000    0.000000    40     0.1844
  2. axis:    yes    4.258633    7.376169    0.000000    40     0.1844
  3. axis:    no     0.000000    0.000000   29.270571   140     0.2091

  Lengths:   8.517266   8.517266  29.270571
  Angles:   90.000000  90.000000  60.000000

Effective grid spacing dv^(1/3) = 0.2017

     iter     time        total  log10-change:
                         energy  eigst   dens
iter:   1 13:53:21  -201.383537  -4.17
iter:   2 13:54:24  -203.397548  -4.18  -2.83
iter:   3 13:55:27  -201.388132  -4.58  -2.07
iter:   4 13:56:30  -201.333266  -5.63  -2.80
iter:   5 13:57:33  -201.322124c -6.14  -3.11
iter:   6 13:58:36  -201.320983c -6.45  -3.61
iter:   7 13:59:39  -201.321042c -6.73  -3.69
iter:   8 14:00:42  -201.320904c -7.07  -3.77
iter:   9 14:01:45  -201.321201c -6.74  -3.83
iter:  10 14:02:48  -201.321665c -7.15  -4.13c
iter:  11 14:03:52  -201.320640c -7.38  -3.63
iter:  12 14:04:55  -201.320489c -7.70c -4.15c

Converged after 12 iterations.

Dipole moment: (33.431570, 14.942436, -0.077644) |e|*Ang

Energy contributions relative to reference atoms: (reference = -14174778.458134)

Kinetic:       -321.961279
Potential:     +177.443255
External:        +0.000000
XC:             -44.555137
Entropy (-ST):   -2.252739
Local:          -11.120959
--------------------------
Free energy:   -202.446858
Extrapolated:  -201.320489

Showing only first 2 kpts
 Kpt  Band  Eigenvalues  Occupancy
  0   364      0.65974    1.05387
  0   365      0.69823    0.86237
  0   366      0.71956    0.75964
  0   367      0.74977    0.62330

  1   364      0.56213    1.49447
  1   365      0.59559    1.35806
  1   366      0.62818    1.20861
  1   367      0.65692    1.06790


Fermi level: 0.67053

No gap

Forces in eV/Ang:
  0 Pd    0.01409   -0.01347   -0.25936
  1 Pt    0.29840   -0.51740    0.37535
  2 Pt   -0.34588   -0.13793    0.02390
  3 Pd   -0.41253    0.17878   -0.08146
  4 Pd    0.22048   -0.22470   -0.24023
  5 Pt    0.22141    0.31037   -0.19082
  6 Pd   -0.21529    0.22741   -0.09774
  7 Pt    0.54583    0.16834    0.07662
  8 Ru   -0.48968    0.05925    1.34345
  9 Pd   -0.21990    0.16331    0.18379
 10 Pt    0.30341    0.00065   -0.19840
 11 Pd    0.03888    0.04895   -0.10799
 12 Pd    0.08492    0.10476   -0.00332
 13 Pt   -0.18556   -0.16683    0.14104
 14 Ag    0.05757   -0.11644    0.02563
 15 Ag    0.00120   -0.07241   -0.11947
 16 Ag   -0.05824   -0.04999    0.08199
 17 Pt    0.02294    0.23758   -0.58626
 18 Pt    0.01619   -0.01380   -0.00694
 19 Pt    0.00830   -0.01244   -0.00866
 20 Ru    0.00818   -0.03102   -0.01658
 21 Pt    0.00711    0.00246   -0.01279
 22 Pd    0.01273    0.00260   -0.02303
 23 Pt    0.02862    0.02810   -0.02672
 24 Ag    0.00480    0.01440    0.03629
 25 Pt    0.01574    0.01921    0.02660
 26 Ag    0.02008   -0.00348    0.16024
 27 Pt    0.05205   -0.02869    0.08145
 28 Pd   -0.06054   -0.06978    0.13279
 29 Pd    0.01096   -0.01423   -0.08125
 30 Ir    0.00220    0.10733   -0.15207
 31 Pt   -0.00111    0.01145   -0.05220
 32 Pd    0.00108    0.03256   -0.04900
 33 Pd   -0.03014   -0.00185   -0.13229
 34 Ag   -0.02382    0.08439    0.17600
 35 Pt    0.04979   -0.03847   -0.12879
 36 Pt   -0.30521   -0.15223   -0.06898
 37 Pt    0.29452   -0.17760   -0.19259
 38 Pt    0.01484    0.07053    0.08646
 39 Pt   -0.00908    0.08195   -0.18514
 40 Pd   -0.03159   -0.05115   -0.02337
 41 Pd    0.06264   -0.06084   -0.03888
 42 Pt    0.02721   -0.04913    0.08368
 43 Ag   -0.01644    0.00142    0.03207
 44 Pt   -0.04119   -0.03824    0.05580
 45 O    -0.00535    0.05701    0.18842

System changes: positions 

Initializing position-dependent things.

Density initialized from wave functions
                                              
                                              
                                              
                                              
                                              
                                              
                         Ag     Pt            
                  Pt                          
            OPt    PPd    APd    Pt           
                                              
       Pt     IPt    PPt    Pd                
                       Pd                     
         Pt     Pd    Ag     Pt     Ag        
                 Pt     Pd     Pt             
                                              
            Pt    APt    ARu    Pt            
                                              
             Pd    PPt    PAg    Ru           
        Pd    PPt    PPd    Pt                
                                              
         Pd     Pt     Pt                     
                                              
                                              
                                              
                                              
                                              

Positions:
   0 Pd     0.000000    1.639149   10.000000    ( 0.0000,  0.0000,  0.0000)
   1 Pt     2.839089    1.639149   10.000000    ( 0.0000,  0.0000,  0.0000)
   2 Pt     5.678177    1.639149   10.000000    ( 0.0000,  0.0000,  0.0000)
   3 Pd     1.419544    4.097872   10.000000    ( 0.0000,  0.0000,  0.0000)
   4 Pd     4.258633    4.097872   10.000000    ( 0.0000,  0.0000,  0.0000)
   5 Pt     7.097722    4.097872   10.000000    ( 0.0000,  0.0000,  0.0000)
   6 Pd     2.839089    6.556595   10.000000    ( 0.0000,  0.0000,  0.0000)
   7 Pt     5.678177    6.556595   10.000000    ( 0.0000,  0.0000,  0.0000)
   8 Ru     8.517266    6.556595   10.000000    ( 0.0000,  0.0000,  0.0000)
   9 Pd     0.000000    0.000000   12.317643    ( 0.0000,  0.0000,  0.0000)
  10 Pt     2.839089    0.000000   12.317643    ( 0.0000,  0.0000,  0.0000)
  11 Pd     5.678177    0.000000   12.317643    ( 0.0000,  0.0000,  0.0000)
  12 Pd     1.419544    2.458723   12.317643    ( 0.0000,  0.0000,  0.0000)
  13 Pt     4.258633    2.458723   12.317643    ( 0.0000,  0.0000,  0.0000)
  14 Ag     7.097722    2.458723   12.317643    ( 0.0000,  0.0000,  0.0000)
  15 Ag     2.839089    4.917446   12.317643    ( 0.0000,  0.0000,  0.0000)
  16 Ag     5.678177    4.917446   12.317643    ( 0.0000,  0.0000,  0.0000)
  17 Pt     8.517266    4.917446   12.317643    ( 0.0000,  0.0000,  0.0000)
  18 Pt     1.385796    0.803415   14.574619    ( 0.0000,  0.0000,  0.0000)
  19 Pt     4.327189    0.816317   14.611361    ( 0.0000,  0.0000,  0.0000)
  20 Ru     7.141302    0.908968   14.682546    ( 0.0000,  0.0000,  0.0000)
  21 Pt     2.834952    3.227956   14.669567    ( 0.0000,  0.0000,  0.0000)
  22 Pd     5.680339    3.251656   14.662922    ( 0.0000,  0.0000,  0.0000)
  23 Pt     8.533975    3.286911   14.641208    ( 0.0000,  0.0000,  0.0000)
  24 Ag     4.276076    5.721972   14.647458    ( 0.0000,  0.0000,  0.0000)
  25 Pt     7.170994    5.769367   14.625755    ( 0.0000,  0.0000,  0.0000)
  26 Ag     9.990815    5.746873   14.641140    ( 0.0000,  0.0000,  0.0000)
  27 Pt    -0.011362    1.655356   16.843448    ( 0.0000,  0.0000,  0.0000)
  28 Pd     2.847893    1.591815   16.898221    ( 0.0000,  0.0000,  0.0000)
  29 Pd     5.677320    1.632356   16.915479    ( 0.0000,  0.0000,  0.0000)
  30 Ir     1.438088    4.014018   17.001414    ( 0.0000,  0.0000,  0.0000)
  31 Pt     4.208827    4.041440   16.967186    ( 0.0000,  0.0000,  0.0000)
  32 Pd     7.077754    4.091628   16.921711    ( 0.0000,  0.0000,  0.0000)
  33 Pd     2.851431    6.596914   16.941204    ( 0.0000,  0.0000,  0.0000)
  34 Ag     5.668980    6.521876   16.976089    ( 0.0000,  0.0000,  0.0000)
  35 Pt     8.509803    6.548749   16.976424    ( 0.0000,  0.0000,  0.0000)
  36 Pt    -0.096707   -0.010238   19.323813    ( 0.0000,  0.0000,  0.0000)
  37 Pt     2.923139   -0.021758   19.336617    ( 0.0000,  0.0000,  0.0000)
  38 Pt     5.661803   -0.006618   19.216106    ( 0.0000,  0.0000,  0.0000)
  39 Pt     1.406437    2.509134   19.212096    ( 0.0000,  0.0000,  0.0000)
  40 Pd     4.270862    2.447508   19.255419    ( 0.0000,  0.0000,  0.0000)
  41 Pd     7.089493    2.445281   19.228705    ( 0.0000,  0.0000,  0.0000)
  42 Pt     2.793390    4.957326   19.154411    ( 0.0000,  0.0000,  0.0000)
  43 Ag     5.677698    4.901526   19.425207    ( 0.0000,  0.0000,  0.0000)
  44 Pt     8.556290    4.921645   19.183743    ( 0.0000,  0.0000,  0.0000)
  45 O      1.424419    0.836119   20.450752    ( 0.0000,  0.0000,  0.0000)

Unit cell:
           periodic     x           y           z      points  spacing
  1. axis:    yes    8.517266    0.000000    0.000000    40     0.1844
  2. axis:    yes    4.258633    7.376169    0.000000    40     0.1844
  3. axis:    no     0.000000    0.000000   29.270571   140     0.2091

  Lengths:   8.517266   8.517266  29.270571
  Angles:   90.000000  90.000000  60.000000

Effective grid spacing dv^(1/3) = 0.2017

     iter     time        total  log10-change:
                         energy  eigst   dens
iter:   1 14:06:20  -202.444313  -4.00
iter:   2 14:07:23  -233.008677  -2.94  -2.21
iter:   3 14:08:27  -202.252082  -3.22  -1.53
iter:   4 14:09:30  -201.389574  -4.46  -2.27
iter:   5 14:10:33  -201.345894  -5.17  -2.91
iter:   6 14:11:36  -201.341906c -5.74  -3.37
iter:   7 14:12:38  -201.339636c -6.05  -3.45
iter:   8 14:13:43  -201.339445c -6.24  -3.57
iter:   9 14:14:51  -201.338513c -6.58  -3.51
iter:  10 14:15:59  -201.337231c -6.49  -3.62
iter:  11 14:17:07  -201.336992c -6.86  -3.82
iter:  12 14:18:16  -201.336857c -7.22  -4.05c
iter:  13 14:19:26  -201.336829c -7.47c -4.06c

Converged after 13 iterations.

Dipole moment: (34.547133, 15.756575, -0.083423) |e|*Ang

Energy contributions relative to reference atoms: (reference = -14174778.458134)

Kinetic:       -321.127968
Potential:     +176.579080
External:        +0.000000
XC:             -44.520421
Entropy (-ST):   -2.255492
Local:          -11.139774
--------------------------
Free energy:   -202.464575
Extrapolated:  -201.336829

Showing only first 2 kpts
 Kpt  Band  Eigenvalues  Occupancy
  0   364      0.65827    1.05402
  0   365      0.69711    0.86080
  0   366      0.71839    0.75835
  0   367      0.74687    0.62957

  1   364      0.56309    1.48537
  1   365      0.59389    1.35923
  1   366      0.62849    1.20024
  1   367      0.65418    1.07441


Fermi level: 0.66909

No gap

Forces in eV/Ang:
  0 Pd    0.01459   -0.01327   -0.24897
  1 Pt    0.29802   -0.51880    0.38951
  2 Pt   -0.34607   -0.13770    0.03639
  3 Pd   -0.41339    0.17946   -0.06628
  4 Pd    0.22262   -0.22481   -0.22729
  5 Pt    0.22039    0.31363   -0.17815
  6 Pd   -0.21556    0.22712   -0.08316
  7 Pt    0.54881    0.16634    0.09065
  8 Ru   -0.49168    0.05851    1.35424
  9 Pd   -0.21822    0.16112    0.17990
 10 Pt    0.30775   -0.00336   -0.20338
 11 Pd    0.03547    0.03993   -0.10675
 12 Pd    0.08729    0.10413   -0.00735
 13 Pt   -0.18717   -0.16885    0.13933
 14 Ag    0.05818   -0.11613    0.02270
 15 Ag   -0.00394   -0.06798   -0.11229
 16 Ag   -0.05679   -0.04642    0.08407
 17 Pt    0.02750    0.24708   -0.58392
 18 Pt    0.01029   -0.00640    0.01424
 19 Pt   -0.00559    0.00708   -0.01216
 20 Ru    0.02609   -0.00195   -0.00545
 21 Pt    0.01515   -0.02673   -0.00089
 22 Pd    0.01042    0.00067   -0.01734
 23 Pt    0.01160   -0.00755   -0.01221
 24 Ag    0.02734    0.01581    0.03047
 25 Pt   -0.00905    0.01762    0.01322
 26 Ag    0.01778   -0.00549    0.08702
 27 Pt    0.03671   -0.01028    0.03942
 28 Pd   -0.03994   -0.03102    0.09005
 29 Pd    0.00725   -0.00275   -0.04832
 30 Ir    0.00863    0.10555   -0.10812
 31 Pt   -0.00421    0.00026   -0.02201
 32 Pd   -0.00338    0.02140   -0.02523
 33 Pd   -0.03290   -0.01483   -0.08433
 34 Ag   -0.02395    0.06322    0.15541
 35 Pt    0.05739   -0.04101   -0.08208
 36 Pt   -0.05081   -0.02539    0.00599
 37 Pt    0.01864   -0.02631   -0.08812
 38 Pt    0.01681    0.01954    0.04163
 39 Pt   -0.00606   -0.11496   -0.10939
 40 Pd   -0.04793   -0.04600   -0.02680
 41 Pd    0.07075   -0.05057   -0.03861
 42 Pt   -0.01074   -0.04811    0.02314
 43 Ag   -0.01705    0.02169    0.02317
 44 Pt   -0.00006   -0.02871    0.01036
 45 O     0.00808    0.02263    0.01213

System changes: positions 

Initializing position-dependent things.

Density initialized from wave functions
                                              
                                              
                                              
                                              
                                              
                                              
                         Ag     Pt            
                  Pt                          
            OPt    PPd    APd    Pt           
                                              
       Pt     IPt    PPt    Pd                
                       Pd                     
         Pt     Pd    Ag     Pt     Ag        
                 Pt     Pd     Pt             
                                              
            Pt    APt    ARu    Pt            
                                              
             Pd    PPt    PAg    Ru           
        Pd    PPt    PPd    Pt                
                                              
         Pd     Pt     Pt                     
                                              
                                              
                                              
                                              
                                              

Positions:
   0 Pd     0.000000    1.639149   10.000000    ( 0.0000,  0.0000,  0.0000)
   1 Pt     2.839089    1.639149   10.000000    ( 0.0000,  0.0000,  0.0000)
   2 Pt     5.678177    1.639149   10.000000    ( 0.0000,  0.0000,  0.0000)
   3 Pd     1.419544    4.097872   10.000000    ( 0.0000,  0.0000,  0.0000)
   4 Pd     4.258633    4.097872   10.000000    ( 0.0000,  0.0000,  0.0000)
   5 Pt     7.097722    4.097872   10.000000    ( 0.0000,  0.0000,  0.0000)
   6 Pd     2.839089    6.556595   10.000000    ( 0.0000,  0.0000,  0.0000)
   7 Pt     5.678177    6.556595   10.000000    ( 0.0000,  0.0000,  0.0000)
   8 Ru     8.517266    6.556595   10.000000    ( 0.0000,  0.0000,  0.0000)
   9 Pd     0.000000    0.000000   12.317643    ( 0.0000,  0.0000,  0.0000)
  10 Pt     2.839089    0.000000   12.317643    ( 0.0000,  0.0000,  0.0000)
  11 Pd     5.678177    0.000000   12.317643    ( 0.0000,  0.0000,  0.0000)
  12 Pd     1.419544    2.458723   12.317643    ( 0.0000,  0.0000,  0.0000)
  13 Pt     4.258633    2.458723   12.317643    ( 0.0000,  0.0000,  0.0000)
  14 Ag     7.097722    2.458723   12.317643    ( 0.0000,  0.0000,  0.0000)
  15 Ag     2.839089    4.917446   12.317643    ( 0.0000,  0.0000,  0.0000)
  16 Ag     5.678177    4.917446   12.317643    ( 0.0000,  0.0000,  0.0000)
  17 Pt     8.517266    4.917446   12.317643    ( 0.0000,  0.0000,  0.0000)
  18 Pt     1.386164    0.803164   14.574720    ( 0.0000,  0.0000,  0.0000)
  19 Pt     4.327281    0.816327   14.611064    ( 0.0000,  0.0000,  0.0000)
  20 Ru     7.141754    0.908492   14.682151    ( 0.0000,  0.0000,  0.0000)
  21 Pt     2.835369    3.227492   14.669372    ( 0.0000,  0.0000,  0.0000)
  22 Pd     5.680695    3.251673   14.662426    ( 0.0000,  0.0000,  0.0000)
  23 Pt     8.534474    3.287084   14.640675    ( 0.0000,  0.0000,  0.0000)
  24 Ag     4.276595    5.722405   14.648412    ( 0.0000,  0.0000,  0.0000)
  25 Pt     7.171009    5.769858   14.626329    ( 0.0000,  0.0000,  0.0000)
  26 Ag     9.991401    5.746872   14.644412    ( 0.0000,  0.0000,  0.0000)
  27 Pt    -0.010322    1.655155   16.844774    ( 0.0000,  0.0000,  0.0000)
  28 Pd     2.846709    1.590639   16.901124    ( 0.0000,  0.0000,  0.0000)
  29 Pd     5.677563    1.632232   16.913726    ( 0.0000,  0.0000,  0.0000)
  30 Ir     1.438234    4.016596   16.998223    ( 0.0000,  0.0000,  0.0000)
  31 Pt     4.208915    4.041455   16.966250    ( 0.0000,  0.0000,  0.0000)
  32 Pd     7.077580    4.092274   16.920804    ( 0.0000,  0.0000,  0.0000)
  33 Pd     2.850542    6.596785   16.938524    ( 0.0000,  0.0000,  0.0000)
  34 Ag     5.668351    6.523664   16.980688    ( 0.0000,  0.0000,  0.0000)
  35 Pt     8.511220    6.547768   16.973826    ( 0.0000,  0.0000,  0.0000)
  36 Pt    -0.101822   -0.013017   19.323453    ( 0.0000,  0.0000,  0.0000)
  37 Pt     2.927536   -0.024778   19.333090    ( 0.0000,  0.0000,  0.0000)
  38 Pt     5.662270   -0.005445   19.217711    ( 0.0000,  0.0000,  0.0000)
  39 Pt     1.406363    2.509041   19.208096    ( 0.0000,  0.0000,  0.0000)
  40 Pd     4.269965    2.446383   19.254648    ( 0.0000,  0.0000,  0.0000)
  41 Pd     7.090998    2.444013   19.227545    ( 0.0000,  0.0000,  0.0000)
  42 Pt     2.793608    4.955927   19.155848    ( 0.0000,  0.0000,  0.0000)
  43 Ag     5.677224    4.901670   19.425959    ( 0.0000,  0.0000,  0.0000)
  44 Pt     8.555695    4.920657   19.184550    ( 0.0000,  0.0000,  0.0000)
  45 O      1.424548    0.837330   20.452164    ( 0.0000,  0.0000,  0.0000)

Unit cell:
           periodic     x           y           z      points  spacing
  1. axis:    yes    8.517266    0.000000    0.000000    40     0.1844
  2. axis:    yes    4.258633    7.376169    0.000000    40     0.1844
  3. axis:    no     0.000000    0.000000   29.270571   140     0.2091

  Lengths:   8.517266   8.517266  29.270571
  Angles:   90.000000  90.000000  60.000000

Effective grid spacing dv^(1/3) = 0.2017

     iter     time        total  log10-change:
                         energy  eigst   dens
iter:   1 14:20:57  -204.556758  -4.04
iter:   2 14:22:06  -274.895962  -2.46  -1.98
iter:   3 14:23:15  -206.197411  -2.83  -1.35
iter:   4 14:24:24  -201.767354  -3.82  -1.96
iter:   5 14:25:33  -201.388091  -4.65  -2.42
iter:   6 14:26:42  -201.359047  -5.22  -3.02
iter:   7 14:27:52  -201.356089c -5.52  -3.28
iter:   8 14:29:01  -201.343488c -5.74  -3.18
iter:   9 14:30:10  -201.344236c -6.19  -3.56
iter:  10 14:31:19  -201.342772c -6.44  -3.62
iter:  11 14:32:27  -201.342068c -6.44  -3.78
iter:  12 14:33:36  -201.342363c -6.72  -4.00
iter:  13 14:34:45  -201.341952c -7.22  -3.97
iter:  14 14:35:54  -201.341748c -7.43c -4.13c

Converged after 14 iterations.

Dipole moment: (34.773268, 15.963774, -0.086345) |e|*Ang

Energy contributions relative to reference atoms: (reference = -14174778.458134)

Kinetic:       -320.741780
Potential:     +176.133259
External:        +0.000000
XC:             -44.475316
Entropy (-ST):   -2.256021
Local:          -11.129901
--------------------------
Free energy:   -202.469759
Extrapolated:  -201.341748

Showing only first 2 kpts
 Kpt  Band  Eigenvalues  Occupancy
  0   364      0.65695    1.05268
  0   365      0.69603    0.85828
  0   366      0.71703    0.75725
  0   367      0.74534    0.62931

  1   364      0.56171    1.48455
  1   365      0.59181    1.36135
  1   366      0.62797    1.19509
  1   367      0.65222    1.07623


Fermi level: 0.66749

No gap

Forces in eV/Ang:
  0 Pd    0.01401   -0.01325   -0.24415
  1 Pt    0.29816   -0.51909    0.39388
  2 Pt   -0.34603   -0.13722    0.04153
  3 Pd   -0.41394    0.17741   -0.06215
  4 Pd    0.22363   -0.22671   -0.22610
  5 Pt    0.21950    0.31269   -0.17388
  6 Pd   -0.21596    0.22921   -0.07931
  7 Pt    0.54945    0.16689    0.09477
  8 Ru   -0.49237    0.05942    1.35989
  9 Pd   -0.22042    0.16508    0.18271
 10 Pt    0.30792   -0.00048   -0.20176
 11 Pd    0.03898    0.03924   -0.09670
 12 Pd    0.08557    0.10210   -0.00801
 13 Pt   -0.18580   -0.17151    0.13807
 14 Ag    0.05887   -0.11942    0.02244
 15 Ag   -0.00692   -0.06458   -0.10212
 16 Ag   -0.05700   -0.04685    0.08611
 17 Pt    0.03089    0.24714   -0.57566
 18 Pt    0.01054   -0.00448    0.01185
 19 Pt    0.00150    0.00200   -0.00835
 20 Ru    0.01892   -0.00810   -0.00996
 21 Pt    0.01379   -0.02040    0.00716
 22 Pd    0.00854    0.00116   -0.01904
 23 Pt    0.01503   -0.00008   -0.00787
 24 Ag    0.02541    0.01252    0.02699
 25 Pt   -0.00222    0.01427    0.01428
 26 Ag    0.01531   -0.00464    0.05431
 27 Pt    0.01056    0.01376    0.00945
 28 Pd   -0.00693   -0.01178    0.04931
 29 Pd    0.00371   -0.00528   -0.03826
 30 Ir    0.00739    0.08510   -0.09367
 31 Pt   -0.00334   -0.00481   -0.01950
 32 Pd   -0.00356    0.01982   -0.01745
 33 Pd   -0.03669   -0.01297   -0.05834
 34 Ag   -0.01802    0.02757    0.11899
 35 Pt    0.05201   -0.03435   -0.06133
 36 Pt   -0.07834   -0.03312    0.05763
 37 Pt    0.04073   -0.03154   -0.02909
 38 Pt    0.01728    0.00591    0.02942
 39 Pt   -0.00489   -0.06443   -0.05774
 40 Pd   -0.02137   -0.03331   -0.02391
 41 Pd    0.03881   -0.03217   -0.03571
 42 Pt   -0.00966   -0.03297    0.01909
 43 Ag   -0.01284   -0.00466    0.02428
 44 Pt   -0.00439   -0.01926    0.00455
 45 O     0.01533    0.01250   -0.06915

System changes: positions 

Initializing position-dependent things.

Density initialized from wave functions
                                              
                                              
                                              
                                              
                                              
                                              
                  Pt     Ag     Pt            
                                              
            OPt    PPd    APd    Pt           
                                              
       Pt     IPt    PPt    Pd                
                Pd     Pd                     
         Pt           Ag     Pt     Ag        
                 Pt     Pd     Pt             
                                              
            Pt    APt    ARu    Pt            
                                              
             Pd    PPt    PAg    Ru           
        Pd    PPt    PPd    Pt                
                                              
         Pd     Pt     Pt                     
                                              
                                              
                                              
                                              
                                              

Positions:
   0 Pd     0.000000    1.639149   10.000000    ( 0.0000,  0.0000,  0.0000)
   1 Pt     2.839089    1.639149   10.000000    ( 0.0000,  0.0000,  0.0000)
   2 Pt     5.678177    1.639149   10.000000    ( 0.0000,  0.0000,  0.0000)
   3 Pd     1.419544    4.097872   10.000000    ( 0.0000,  0.0000,  0.0000)
   4 Pd     4.258633    4.097872   10.000000    ( 0.0000,  0.0000,  0.0000)
   5 Pt     7.097722    4.097872   10.000000    ( 0.0000,  0.0000,  0.0000)
   6 Pd     2.839089    6.556595   10.000000    ( 0.0000,  0.0000,  0.0000)
   7 Pt     5.678177    6.556595   10.000000    ( 0.0000,  0.0000,  0.0000)
   8 Ru     8.517266    6.556595   10.000000    ( 0.0000,  0.0000,  0.0000)
   9 Pd     0.000000    0.000000   12.317643    ( 0.0000,  0.0000,  0.0000)
  10 Pt     2.839089    0.000000   12.317643    ( 0.0000,  0.0000,  0.0000)
  11 Pd     5.678177    0.000000   12.317643    ( 0.0000,  0.0000,  0.0000)
  12 Pd     1.419544    2.458723   12.317643    ( 0.0000,  0.0000,  0.0000)
  13 Pt     4.258633    2.458723   12.317643    ( 0.0000,  0.0000,  0.0000)
  14 Ag     7.097722    2.458723   12.317643    ( 0.0000,  0.0000,  0.0000)
  15 Ag     2.839089    4.917446   12.317643    ( 0.0000,  0.0000,  0.0000)
  16 Ag     5.678177    4.917446   12.317643    ( 0.0000,  0.0000,  0.0000)
  17 Pt     8.517266    4.917446   12.317643    ( 0.0000,  0.0000,  0.0000)
  18 Pt     1.389423    0.801415   14.575384    ( 0.0000,  0.0000,  0.0000)
  19 Pt     4.329116    0.816068   14.608720    ( 0.0000,  0.0000,  0.0000)
  20 Ru     7.144623    0.903400   14.676647    ( 0.0000,  0.0000,  0.0000)
  21 Pt     2.838912    3.224664   14.667723    ( 0.0000,  0.0000,  0.0000)
  22 Pd     5.684597    3.251652   14.657976    ( 0.0000,  0.0000,  0.0000)
  23 Pt     8.538872    3.289438   14.635907    ( 0.0000,  0.0000,  0.0000)
  24 Ag     4.280719    5.725520   14.655865    ( 0.0000,  0.0000,  0.0000)
  25 Pt     7.172332    5.773303   14.631351    ( 0.0000,  0.0000,  0.0000)
  26 Ag     9.996277    5.747728   14.668303    ( 0.0000,  0.0000,  0.0000)
  27 Pt    -0.003492    1.655190   16.852049    ( 0.0000,  0.0000,  0.0000)
  28 Pd     2.839101    1.581632   16.920920    ( 0.0000,  0.0000,  0.0000)
  29 Pd     5.679532    1.631348   16.899078    ( 0.0000,  0.0000,  0.0000)
  30 Ir     1.439746    4.031555   16.976335    ( 0.0000,  0.0000,  0.0000)
  31 Pt     4.209837    4.040873   16.957809    ( 0.0000,  0.0000,  0.0000)
  32 Pd     7.075990    4.096779   16.913064    ( 0.0000,  0.0000,  0.0000)
  33 Pd     2.844861    6.597252   16.922588    ( 0.0000,  0.0000,  0.0000)
  34 Ag     5.663236    6.535928   17.015599    ( 0.0000,  0.0000,  0.0000)
  35 Pt     8.520410    6.541636   16.957161    ( 0.0000,  0.0000,  0.0000)
  36 Pt    -0.152264   -0.042155   19.332383    ( 0.0000,  0.0000,  0.0000)
  37 Pt     2.970588   -0.056061   19.316042    ( 0.0000,  0.0000,  0.0000)
  38 Pt     5.666205    0.003847   19.227783    ( 0.0000,  0.0000,  0.0000)
  39 Pt     1.407063    2.521201   19.183663    ( 0.0000,  0.0000,  0.0000)
  40 Pd     4.266498    2.439980   19.246760    ( 0.0000,  0.0000,  0.0000)
  41 Pd     7.098007    2.436826   19.216315    ( 0.0000,  0.0000,  0.0000)
  42 Pt     2.795011    4.945439   19.166339    ( 0.0000,  0.0000,  0.0000)
  43 Ag     5.673529    4.898887   19.432128    ( 0.0000,  0.0000,  0.0000)
  44 Pt     8.550518    4.912515   19.189710    ( 0.0000,  0.0000,  0.0000)
  45 O      1.427351    0.846070   20.429288    ( 0.0000,  0.0000,  0.0000)

Unit cell:
           periodic     x           y           z      points  spacing
  1. axis:    yes    8.517266    0.000000    0.000000    40     0.1844
  2. axis:    yes    4.258633    7.376169    0.000000    40     0.1844
  3. axis:    no     0.000000    0.000000   29.270571   140     0.2091

  Lengths:   8.517266   8.517266  29.270571
  Angles:   90.000000  90.000000  60.000000

Effective grid spacing dv^(1/3) = 0.2017

     iter     time        total  log10-change:
                         energy  eigst   dens
iter:   1 14:37:20  -203.786525  -3.04
iter:   2 14:38:22  -260.299577  -2.58  -2.03
iter:   3 14:39:25  -204.525851  -2.89  -1.41
iter:   4 14:40:28  -201.468595  -3.88  -2.03
iter:   5 14:41:30  -201.352060  -4.74  -2.65
iter:   6 14:42:33  -201.348839c -5.21  -2.99
iter:   7 14:43:35  -201.357367c -5.49  -2.92
iter:   8 14:44:38  -201.327593c -5.54  -2.91
iter:   9 14:45:46  -201.325745c -5.50  -3.25
iter:  10 14:46:55  -201.325836c -5.95  -3.38
iter:  11 14:48:04  -201.325902c -6.32  -3.29
iter:  12 14:49:13  -201.322972c -6.41  -3.37
iter:  13 14:50:21  -201.321886c -6.66  -3.49
iter:  14 14:51:30  -201.322991c -6.69  -3.71
iter:  15 14:52:39  -201.322310c -6.90  -3.65
iter:  16 14:53:47  -201.321422c -7.28  -3.85
iter:  17 14:54:56  -201.322034c -7.38  -4.00
iter:  18 14:56:04  -201.321842c -7.28  -4.02c
iter:  19 14:57:12  -201.321698c -7.49c -4.19c

Converged after 19 iterations.

Dipole moment: (37.486248, 18.222421, -0.090551) |e|*Ang

Energy contributions relative to reference atoms: (reference = -14174778.458134)

Kinetic:       -323.443563
Potential:     +178.608233
External:        +0.000000
XC:             -44.244839
Entropy (-ST):   -2.263353
Local:          -11.109853
--------------------------
Free energy:   -202.453374
Extrapolated:  -201.321698

Showing only first 2 kpts
 Kpt  Band  Eigenvalues  Occupancy
  0   364      0.65256    1.04183
  0   365      0.69006    0.85538
  0   366      0.71130    0.75336
  0   367      0.73559    0.64313

  1   364      0.56098    1.46190
  1   365      0.58543    1.36055
  1   366      0.62918    1.15743
  1   367      0.64186    1.09509


Fermi level: 0.66093

No gap

Forces in eV/Ang:
  0 Pd    0.01338   -0.01390   -0.26602
  1 Pt    0.29275   -0.51103    0.36591
  2 Pt   -0.34137   -0.13148    0.01208
  3 Pd   -0.41084    0.17530   -0.08824
  4 Pd    0.21945   -0.22384   -0.25101
  5 Pt    0.21900    0.30465   -0.19853
  6 Pd   -0.21140    0.22687   -0.10534
  7 Pt    0.53959    0.17002    0.06541
  8 Ru   -0.48561    0.05208    1.34201
  9 Pd   -0.21735    0.15692    0.19660
 10 Pt    0.30878   -0.00699   -0.19925
 11 Pd    0.04954    0.01324   -0.06773
 12 Pd    0.08619    0.09429   -0.01576
 13 Pt   -0.17954   -0.16797    0.13226
 14 Ag    0.06230   -0.12102    0.00670
 15 Ag   -0.01923   -0.04642   -0.05167
 16 Ag   -0.05879   -0.03889    0.09978
 17 Pt    0.04982    0.26964   -0.53626
 18 Pt    0.00275    0.00895    0.04113
 19 Pt   -0.03152    0.01824   -0.02231
 20 Ru    0.05700    0.05503    0.00590
 21 Pt    0.01257   -0.03038    0.01883
 22 Pd    0.00844    0.01792   -0.04938
 23 Pt   -0.00541   -0.03314    0.00290
 24 Ag    0.06862   -0.00606   -0.02064
 25 Pt   -0.03363    0.00367   -0.03451
 26 Ag    0.00070   -0.02427   -0.25129
 27 Pt   -0.05914    0.03459   -0.12654
 28 Pd    0.08309    0.04751   -0.13680
 29 Pd   -0.00017   -0.00125    0.00538
 30 Ir    0.02054    0.01272    0.03884
 31 Pt   -0.01745   -0.01050    0.02375
 32 Pd   -0.00844    0.01147   -0.00093
 33 Pd   -0.01140   -0.03336    0.06418
 34 Ag   -0.02225   -0.06097   -0.01396
 35 Pt    0.04278   -0.02813    0.04945
 36 Pt    0.40768    0.21844    0.27845
 37 Pt   -0.44979    0.25108    0.28230
 38 Pt   -0.00567   -0.12272   -0.08873
 39 Pt   -0.02044   -0.27881    0.13559
 40 Pd   -0.00500   -0.01669   -0.00945
 41 Pd    0.02192   -0.00157   -0.01578
 42 Pt   -0.10364   -0.03439   -0.13253
 43 Ag   -0.00454   -0.02780    0.03093
 44 Pt    0.09739   -0.01569   -0.09729
 45 O     0.04748   -0.25848   -0.54803

System changes: positions 

Initializing position-dependent things.

Density initialized from wave functions
                                              
                                              
                                              
                                              
                                              
                                              
                  Pt     Ag     Pt            
                                              
            OPt    PPd    APd    Pt           
                                              
       Pt     IPt    PPt    Pd                
                       Pd                     
         Pt     Pd    Ag     Pt     Ag        
                 Pt     Pd     Pt             
                                              
            Pt    APt    ARu    Pt            
                                              
             Pd    PPt    PAg    Ru           
        Pd    PPt    PPd    Pt                
                                              
         Pd     Pt     Pt                     
                                              
                                              
                                              
                                              
                                              

Positions:
   0 Pd     0.000000    1.639149   10.000000    ( 0.0000,  0.0000,  0.0000)
   1 Pt     2.839089    1.639149   10.000000    ( 0.0000,  0.0000,  0.0000)
   2 Pt     5.678177    1.639149   10.000000    ( 0.0000,  0.0000,  0.0000)
   3 Pd     1.419544    4.097872   10.000000    ( 0.0000,  0.0000,  0.0000)
   4 Pd     4.258633    4.097872   10.000000    ( 0.0000,  0.0000,  0.0000)
   5 Pt     7.097722    4.097872   10.000000    ( 0.0000,  0.0000,  0.0000)
   6 Pd     2.839089    6.556595   10.000000    ( 0.0000,  0.0000,  0.0000)
   7 Pt     5.678177    6.556595   10.000000    ( 0.0000,  0.0000,  0.0000)
   8 Ru     8.517266    6.556595   10.000000    ( 0.0000,  0.0000,  0.0000)
   9 Pd     0.000000    0.000000   12.317643    ( 0.0000,  0.0000,  0.0000)
[...]
  13 Pt     4.258633    2.458723   12.317643    ( 0.0000,  0.0000,  0.0000)
  14 Ag     7.097722    2.458723   12.317643    ( 0.0000,  0.0000,  0.0000)
  15 Ag     2.839089    4.917446   12.317643    ( 0.0000,  0.0000,  0.0000)
  16 Ag     5.678177    4.917446   12.317643    ( 0.0000,  0.0000,  0.0000)
  17 Pt     8.517266    4.917446   12.317643    ( 0.0000,  0.0000,  0.0000)
  18 Pt     1.387883    0.802359   14.575688    ( 0.0000,  0.0000,  0.0000)
  19 Pt     4.327858    0.816476   14.609600    ( 0.0000,  0.0000,  0.0000)
  20 Ru     7.143934    0.906532   14.679281    ( 0.0000,  0.0000,  0.0000)
  21 Pt     2.837405    3.225608   14.668756    ( 0.0000,  0.0000,  0.0000)
  22 Pd     5.682848    3.251861   14.659540    ( 0.0000,  0.0000,  0.0000)
  23 Pt     8.536604    3.287841   14.638240    ( 0.0000,  0.0000,  0.0000)
  24 Ag     4.279600    5.723930   14.651980    ( 0.0000,  0.0000,  0.0000)
  25 Pt     7.171212    5.771654   14.628534    ( 0.0000,  0.0000,  0.0000)
  26 Ag     9.993914    5.747062   14.653707    ( 0.0000,  0.0000,  0.0000)
  27 Pt    -0.007347    1.655542   16.846980    ( 0.0000,  0.0000,  0.0000)
  28 Pd     2.843649    1.586519   16.909683    ( 0.0000,  0.0000,  0.0000)
  29 Pd     5.678584    1.631803   16.906240    ( 0.0000,  0.0000,  0.0000)
  30 Ir     1.439270    4.024166   16.987563    ( 0.0000,  0.0000,  0.0000)
  31 Pt     4.209207    4.040999   16.962219    ( 0.0000,  0.0000,  0.0000)
  32 Pd     7.076648    4.094702   16.916816    ( 0.0000,  0.0000,  0.0000)
  33 Pd     2.847595    6.596636   16.931240    ( 0.0000,  0.0000,  0.0000)
  34 Ag     5.665486    6.529264   16.998361    ( 0.0000,  0.0000,  0.0000)
  35 Pt     8.516256    6.544324   16.966029    ( 0.0000,  0.0000,  0.0000)
  36 Pt    -0.123195   -0.025745   19.331740    ( 0.0000,  0.0000,  0.0000)
  37 Pt     2.944400   -0.038185   19.328085    ( 0.0000,  0.0000,  0.0000)
  38 Pt     5.664398   -0.002196   19.221595    ( 0.0000,  0.0000,  0.0000)
  39 Pt     1.406575    2.512048   19.197683    ( 0.0000,  0.0000,  0.0000)
  40 Pd     4.268163    2.443026   19.250187    ( 0.0000,  0.0000,  0.0000)
  41 Pd     7.094721    2.440392   19.221274    ( 0.0000,  0.0000,  0.0000)
  42 Pt     2.793248    4.950335   19.159474    ( 0.0000,  0.0000,  0.0000)
  43 Ag     5.675244    4.899875   19.429366    ( 0.0000,  0.0000,  0.0000)
  44 Pt     8.554052    4.916461   19.185797    ( 0.0000,  0.0000,  0.0000)
  45 O      1.426658    0.839177   20.432506    ( 0.0000,  0.0000,  0.0000)

Unit cell:
           periodic     x           y           z      points  spacing
  1. axis:    yes    8.517266    0.000000    0.000000    40     0.1844
  2. axis:    yes    4.258633    7.376169    0.000000    40     0.1844
  3. axis:    no     0.000000    0.000000   29.270571   140     0.2091

  Lengths:   8.517266   8.517266  29.270571
  Angles:   90.000000  90.000000  60.000000

Effective grid spacing dv^(1/3) = 0.2017

     iter     time        total  log10-change:
                         energy  eigst   dens
iter:   1 15:19:17  -201.469875  -4.88
iter:   2 15:20:25  -206.481949  -3.85  -2.66
iter:   3 15:21:29  -201.406136  -4.04  -1.91
iter:   4 15:22:32  -201.358494  -5.45  -2.94
iter:   5 15:23:34  -201.352199c -6.25  -3.33
iter:   6 15:24:37  -201.350580c -6.68  -3.70
iter:   7 15:25:40  -201.350323c -7.03  -4.01c
iter:   8 15:26:43  -201.350176c -7.26  -4.13c
iter:   9 15:27:47  -201.349956c -7.58c -4.16c

Converged after 9 iterations.

Dipole moment: (35.936352, 16.961079, -0.083689) |e|*Ang

Energy contributions relative to reference atoms: (reference = -14174778.458134)

Kinetic:       -322.803273
Potential:     +178.100146
External:        +0.000000
XC:             -44.410393
Entropy (-ST):   -2.258242
Local:          -11.107315
--------------------------
Free energy:   -202.479076
Extrapolated:  -201.349956

Showing only first 2 kpts
 Kpt  Band  Eigenvalues  Occupancy
  0   364      0.65715    1.05056
  0   365      0.69632    0.85577
  0   366      0.71644    0.75900
  0   367      0.74389    0.63461

  1   364      0.56467    1.47226
  1   365      0.59195    1.35976
  1   366      0.63070    1.18081
  1   367      0.65039    1.08417


Fermi level: 0.66727

No gap

Forces in eV/Ang:
  0 Pd    0.01444   -0.01339   -0.25805
  1 Pt    0.29714   -0.51725    0.37633
  2 Pt   -0.34582   -0.13709    0.02321
  3 Pd   -0.41252    0.17943   -0.07952
  4 Pd    0.22044   -0.22491   -0.24004
  5 Pt    0.22087    0.31126   -0.19013
  6 Pd   -0.21535    0.22681   -0.09711
  7 Pt    0.54576    0.16824    0.07679
  8 Ru   -0.48769    0.05603    1.34505
  9 Pd   -0.21845    0.15981    0.19187
 10 Pt    0.30632   -0.00267   -0.20002
 11 Pd    0.04454    0.03317   -0.08733
 12 Pd    0.08725    0.09992   -0.00997
 13 Pt   -0.18314   -0.16766    0.13742
 14 Ag    0.06057   -0.11942    0.01511
 15 Ag   -0.00674   -0.05951   -0.08314
 16 Ag   -0.05829   -0.04366    0.09208
 17 Pt    0.03422    0.25132   -0.56345
 18 Pt    0.00810   -0.00289    0.02168
 19 Pt   -0.00731    0.00040   -0.00419
 20 Ru    0.02465    0.01071   -0.00018
 21 Pt    0.00924   -0.01165    0.01917
 22 Pd   -0.00234    0.00762   -0.02163
 23 Pt    0.00728   -0.00193    0.00503
 24 Ag    0.03282    0.00043    0.01010
 25 Pt   -0.00901    0.00803    0.00271
 26 Ag    0.00767   -0.01245   -0.05242
 27 Pt   -0.01922    0.02367   -0.04459
 28 Pd    0.03750    0.02135   -0.05262
 29 Pd   -0.00436   -0.00712    0.00611
 30 Ir    0.00633    0.05199   -0.04742
 31 Pt   -0.00776   -0.00297    0.00090
 32 Pd    0.00030    0.01857    0.00337
 33 Pd   -0.00853   -0.01635    0.01159
 34 Ag   -0.00933   -0.01979    0.03157
 35 Pt    0.02298   -0.02447   -0.00442
 36 Pt    0.06687    0.04026    0.09214
 37 Pt   -0.09616    0.05627    0.06012
 38 Pt    0.00667   -0.04648   -0.02178
 39 Pt   -0.00999   -0.10724    0.01031
 40 Pd    0.00161   -0.01659   -0.01265
 41 Pd    0.00911   -0.00974   -0.02095
 42 Pt   -0.02477   -0.00596   -0.03691
 43 Ag   -0.00614   -0.02393    0.02384
 44 Pt    0.01659    0.00050   -0.03893
 45 O     0.02442   -0.02340   -0.11521

System changes: positions 

Initializing position-dependent things.

Density initialized from wave functions
                                              
                                              
                                              
                                              
                                              
                                              
                  Pt     Ag     Pt            
                                              
            OPt    PPd    APd    Pt           
                                              
       Pt     IPt    PPt    Pd                
                Pd     Pd                     
         Pt           Ag     Pt     Ag        
                 Pt     Pd     Pt             
                                              
            Pt    APt    ARu    Pt            
                                              
             Pd    PPt    PAg    Ru           
        Pd    PPt    PPd    Pt                
                                              
         Pd     Pt     Pt                     
                                              
                                              
                                              
                                              
                                              

Positions:
   0 Pd     0.000000    1.639149   10.000000    ( 0.0000,  0.0000,  0.0000)
   1 Pt     2.839089    1.639149   10.000000    ( 0.0000,  0.0000,  0.0000)
   2 Pt     5.678177    1.639149   10.000000    ( 0.0000,  0.0000,  0.0000)
   3 Pd     1.419544    4.097872   10.000000    ( 0.0000,  0.0000,  0.0000)
   4 Pd     4.258633    4.097872   10.000000    ( 0.0000,  0.0000,  0.0000)
   5 Pt     7.097722    4.097872   10.000000    ( 0.0000,  0.0000,  0.0000)
   6 Pd     2.839089    6.556595   10.000000    ( 0.0000,  0.0000,  0.0000)
   7 Pt     5.678177    6.556595   10.000000    ( 0.0000,  0.0000,  0.0000)
   8 Ru     8.517266    6.556595   10.000000    ( 0.0000,  0.0000,  0.0000)
   9 Pd     0.000000    0.000000   12.317643    ( 0.0000,  0.0000,  0.0000)
  10 Pt     2.839089    0.000000   12.317643    ( 0.0000,  0.0000,  0.0000)
  11 Pd     5.678177    0.000000   12.317643    ( 0.0000,  0.0000,  0.0000)
  12 Pd     1.419544    2.458723   12.317643    ( 0.0000,  0.0000,  0.0000)
  13 Pt     4.258633    2.458723   12.317643    ( 0.0000,  0.0000,  0.0000)
  14 Ag     7.097722    2.458723   12.317643    ( 0.0000,  0.0000,  0.0000)
  15 Ag     2.839089    4.917446   12.317643    ( 0.0000,  0.0000,  0.0000)
  16 Ag     5.678177    4.917446   12.317643    ( 0.0000,  0.0000,  0.0000)
  17 Pt     8.517266    4.917446   12.317643    ( 0.0000,  0.0000,  0.0000)
  18 Pt     1.388342    0.802182   14.576571    ( 0.0000,  0.0000,  0.0000)
  19 Pt     4.327637    0.816662   14.609151    ( 0.0000,  0.0000,  0.0000)
  20 Ru     7.145090    0.906720   14.678768    ( 0.0000,  0.0000,  0.0000)
  21 Pt     2.838047    3.224871   14.669064    ( 0.0000,  0.0000,  0.0000)
  22 Pd     5.683230    3.252150   14.658351    ( 0.0000,  0.0000,  0.0000)
  23 Pt     8.536989    3.287715   14.637885    ( 0.0000,  0.0000,  0.0000)
  24 Ag     4.281133    5.724141   14.652591    ( 0.0000,  0.0000,  0.0000)
  25 Pt     7.170780    5.772108   14.628772    ( 0.0000,  0.0000,  0.0000)
  26 Ag     9.994473    5.746759   14.652890    ( 0.0000,  0.0000,  0.0000)
  27 Pt    -0.007336    1.656143   16.845881    ( 0.0000,  0.0000,  0.0000)
  28 Pd     2.844112    1.586358   16.909485    ( 0.0000,  0.0000,  0.0000)
  29 Pd     5.678697    1.631627   16.905049    ( 0.0000,  0.0000,  0.0000)
  30 Ir     1.439650    4.026176   16.985233    ( 0.0000,  0.0000,  0.0000)
  31 Pt     4.209102    4.040808   16.961727    ( 0.0000,  0.0000,  0.0000)
  32 Pd     7.076401    4.095523   16.916183    ( 0.0000,  0.0000,  0.0000)
  33 Pd     2.846978    6.596127   16.930486    ( 0.0000,  0.0000,  0.0000)
  34 Ag     5.664768    6.529515   17.001669    ( 0.0000,  0.0000,  0.0000)
  35 Pt     8.517550    6.543175   16.964945    ( 0.0000,  0.0000,  0.0000)
  36 Pt    -0.123756   -0.026349   19.336215    ( 0.0000,  0.0000,  0.0000)
  37 Pt     2.943350   -0.038406   19.329776    ( 0.0000,  0.0000,  0.0000)
  38 Pt     5.665007   -0.003210   19.221216    ( 0.0000,  0.0000,  0.0000)
  39 Pt     1.406367    2.509265   19.197003    ( 0.0000,  0.0000,  0.0000)
  40 Pd     4.267890    2.442170   19.248918    ( 0.0000,  0.0000,  0.0000)
  41 Pd     7.095549    2.439642   19.219496    ( 0.0000,  0.0000,  0.0000)
  42 Pt     2.792436    4.949293   19.158575    ( 0.0000,  0.0000,  0.0000)
  43 Ag     5.674754    4.898968   19.430409    ( 0.0000,  0.0000,  0.0000)
  44 Pt     8.554392    4.915846   19.184576    ( 0.0000,  0.0000,  0.0000)
  45 O      1.427747    0.837994   20.424217    ( 0.0000,  0.0000,  0.0000)

Unit cell:
           periodic     x           y           z      points  spacing
  1. axis:    yes    8.517266    0.000000    0.000000    40     0.1844
  2. axis:    yes    4.258633    7.376169    0.000000    40     0.1844
  3. axis:    no     0.000000    0.000000   29.270571   140     0.2091

  Lengths:   8.517266   8.517266  29.270571
  Angles:   90.000000  90.000000  60.000000

Effective grid spacing dv^(1/3) = 0.2017

     iter     time        total  log10-change:
                         energy  eigst   dens
iter:   1 15:29:11  -202.763232  -4.38
iter:   2 15:30:14  -240.367653  -2.82  -2.15
iter:   3 15:31:17  -203.207014  -3.14  -1.49
iter:   4 15:32:20  -201.562456  -4.27  -2.13
iter:   5 15:33:23  -201.400990  -5.09  -2.57
iter:   6 15:34:26  -201.363909c -5.51  -2.93
iter:   7 15:35:29  -201.362205c -5.85  -3.35
iter:   8 15:36:32  -201.354285c -6.12  -3.29
iter:   9 15:37:35  -201.354017c -6.47  -3.76
iter:  10 15:38:39  -201.353303c -6.81  -3.81
iter:  11 15:39:42  -201.353954c -6.98  -4.07c
iter:  12 15:40:45  -201.353240c -7.23  -3.96
iter:  13 15:41:48  -201.352826c -7.45c -4.35c

Converged after 13 iterations.

Dipole moment: (35.950062, 17.015809, -0.077348) |e|*Ang

Energy contributions relative to reference atoms: (reference = -14174778.458134)

Kinetic:       -321.446322
Potential:     +176.843800
External:        +0.000000
XC:             -44.524791
Entropy (-ST):   -2.257050
Local:          -11.096988
--------------------------
Free energy:   -202.481351
Extrapolated:  -201.352826

Showing only first 2 kpts
 Kpt  Band  Eigenvalues  Occupancy
  0   364      0.65929    1.05115
  0   365      0.69865    0.85539
  0   366      0.71810    0.76181
  0   367      0.74600    0.63524

  1   364      0.56673    1.47303
  1   365      0.59498    1.35636
  1   366      0.63289    1.18114
  1   367      0.65288    1.08301


Fermi level: 0.66953

No gap

Forces in eV/Ang:
  0 Pd    0.01444   -0.01383   -0.25546
  1 Pt    0.29501   -0.51471    0.38101
  2 Pt   -0.34430   -0.13544    0.02612
  3 Pd   -0.41187    0.17616   -0.07556
  4 Pd    0.22066   -0.22578   -0.23805
  5 Pt    0.21980    0.30904   -0.18790
  6 Pd   -0.21413    0.22788   -0.09224
  7 Pt    0.54410    0.16917    0.08072
  8 Ru   -0.48766    0.05545    1.34746
  9 Pd   -0.21671    0.16135    0.18753
 10 Pt    0.30690   -0.00138   -0.20727
 11 Pd    0.04466    0.03075   -0.09315
 12 Pd    0.08852    0.09624   -0.01457
 13 Pt   -0.18543   -0.17096    0.12639
 14 Ag    0.06193   -0.12089    0.00735
 15 Ag   -0.00768   -0.05833   -0.08367
 16 Ag   -0.05766   -0.04106    0.08525
 17 Pt    0.03765    0.25549   -0.56784
 18 Pt    0.00819   -0.00385    0.00955
 19 Pt   -0.00147   -0.00267   -0.01311
 20 Ru    0.01903    0.00557   -0.00823
 21 Pt    0.00847   -0.00839   -0.00172
 22 Pd    0.00482    0.00268   -0.02131
 23 Pt    0.00597    0.00148   -0.00945
 24 Ag    0.02696    0.00318    0.00544
 25 Pt   -0.00482    0.00903   -0.00470
 26 Ag    0.00882   -0.00480   -0.06481
 27 Pt   -0.01613    0.01537   -0.02746
 28 Pd    0.02932    0.00183   -0.02575
 29 Pd    0.00059   -0.00789   -0.00776
 30 Ir    0.00382    0.02323   -0.02289
 31 Pt   -0.00006   -0.00322    0.00104
 32 Pd   -0.00701    0.01276   -0.00488
 33 Pd   -0.00357   -0.00461   -0.00725
 34 Ag   -0.00951   -0.01200    0.03788
 35 Pt    0.01656   -0.01064   -0.00972
 36 Pt   -0.00096   -0.00741    0.05444
 37 Pt   -0.00794   -0.00146    0.00692
 38 Pt   -0.00251   -0.03196   -0.01407
 39 Pt   -0.01012   -0.01190   -0.04896
 40 Pd    0.00376   -0.02409   -0.01487
 41 Pd    0.01014   -0.01446   -0.02236
 42 Pt   -0.02024   -0.01796   -0.02605
 43 Ag   -0.00539   -0.02810    0.02093
 44 Pt    0.01219   -0.00987   -0.02654
 45 O     0.01852   -0.06095   -0.05212

Timing:                                      incl.     excl.
-------------------------------------------------------------------
Density initialized from wave functions:    29.033    29.033   0.2% |
 Symmetrize density:                         0.001     0.001   0.0% |
Forces:                                    145.240   145.240   1.2% |
Hamiltonian:                                14.988     0.088   0.0% |
 Atomic:                                     1.161     0.378   0.0% |
  XC Correction:                             0.784     0.784   0.0% |
 Calculate atomic Hamiltonians:             10.230    10.230   0.1% |
 Communicate:                                1.231     1.231   0.0% |
 Initialize Hamiltonian:                     0.000     0.000   0.0% |
 Poisson:                                    0.056     0.056   0.0% |
 XC 3D grid:                                 2.222     2.222   0.0% |
LCAO initialization:                       132.917     2.688   0.0% |
 LCAO eigensolver:                          15.350     0.001   0.0% |
  Blacs Orbital Layouts:                     0.310     0.000   0.0% |
   General diagonalize:                      0.305     0.305   0.0% |
   Redistribute coefs:                       0.003     0.003   0.0% |
   Send coefs to domains:                    0.002     0.002   0.0% |
  Calculate projections:                     0.003     0.003   0.0% |
  Distribute overlap matrix:                14.262     0.000   0.0% |
   Scalapack redistribute:                   0.007     0.007   0.0% |
   blocked summation:                       14.254    14.254   0.1% |
  Potential matrix:                          0.734     0.734   0.0% |
  SparseAtomicCorrection:                    0.005     0.005   0.0% |
  Sum over cells:                            0.034     0.034   0.0% |
 LCAO to grid:                             110.957   110.957   0.9% |
 Set positions (LCAO WFS):                   3.923     0.006   0.0% |
  Basic WFS set positions:                   0.003     0.003   0.0% |
  Basis functions set positions:             0.000     0.000   0.0% |
  P tci:                                     0.001     0.001   0.0% |
  ST tci:                                    0.296     0.296   0.0% |
  Scalapack redistribute:                    0.008     0.008   0.0% |
  blocked summation:                         3.491     3.491   0.0% |
  mktci:                                     0.117     0.117   0.0% |
PWDescriptor:                                0.573     0.573   0.0% |
Redistribute:                                0.012     0.012   0.0% |
SCF-cycle:                               12015.959   119.516   1.0% |
 Davidson:                               11093.976  2519.744  20.3% |-------|
  Apply H:                                1188.087  1169.742   9.4% |---|
   HMM T:                                   18.345    18.345   0.1% |
  Subspace diag:                          1278.949     0.043   0.0% |
   calc_h_matrix:                          831.580   241.253   1.9% ||
    Apply H:                               590.327   580.075   4.7% |-|
     HMM T:                                 10.252    10.252   0.1% |
   diagonalize:                             40.920    40.920   0.3% |
   rotate_psi:                             406.406   406.406   3.3% ||
  calc. matrices:                         4273.780  2532.785  20.4% |-------|
   Apply H:                               1740.996  1713.096  13.8% |-----|
    HMM T:                                  27.900    27.900   0.2% |
  diagonalize:                             619.748   619.748   5.0% |-|
  rotate_psi:                             1213.669  1213.669   9.8% |---|
 Density:                                  498.868     0.008   0.0% |
  Atomic density matrices:                   3.457     3.457   0.0% |
  Mix:                                     181.671   181.671   1.5% ||
  Multipole moments:                         0.300     0.300   0.0% |
  Pseudo density:                          313.433   313.424   2.5% ||
   Symmetrize density:                       0.009     0.009   0.0% |
 Hamiltonian:                              258.504     1.463   0.0% |
  Atomic:                                   15.781     3.398   0.0% |
   XC Correction:                           12.384    12.384   0.1% |
  Calculate atomic Hamiltonians:           160.773   160.773   1.3% ||
  Communicate:                              32.929    32.929   0.3% |
  Poisson:                                   0.954     0.954   0.0% |
  XC 3D grid:                               46.604    46.604   0.4% |
 Orthonormalize:                            45.093     0.004   0.0% |
  calc_s_matrix:                             7.412     7.412   0.1% |
  inverse-cholesky:                          2.145     2.145   0.0% |
  projections:                              23.192    23.192   0.2% |
  rotate_psi_s:                             12.340    12.340   0.1% |
Set symmetry:                                0.002     0.002   0.0% |
Other:                                      53.880    53.880   0.4% |
-------------------------------------------------------------------
Total:                                             12392.604 100.0%

Memory usage: 861.18 MiB
Date: Fri Jun 14 15:42:02 2024
