
  ___ ___ ___ _ _ _  
 |   |   |_  | | | | 
 | | | | | . | | | | 
 |__ |  _|___|_____|  22.1.0
 |___|_|             

User:   clausen@node487.cluster
Date:   Fri Jun 14 14:00:02 2024
Arch:   x86_64
Pid:    33179
Python: 3.10.4
gpaw:   /groups/kemi/clausen/miniconda3/envs/gpaw22/lib/python3.10/site-packages/gpaw
_gpaw:  /groups/kemi/clausen/miniconda3/envs/gpaw22/lib/python3.10/site-packages/
        _gpaw.cpython-310-x86_64-linux-gnu.so
ase:    /groups/kemi/clausen/miniconda3/envs/gpaw22/lib/python3.10/site-packages/ase (version 3.22.1)
numpy:  /groups/kemi/clausen/miniconda3/envs/gpaw22/lib/python3.10/site-packages/numpy (version 1.23.1)
scipy:  /groups/kemi/clausen/miniconda3/envs/gpaw22/lib/python3.10/site-packages/scipy (version 1.8.1)
libxc:  5.2.3
units:  Angstrom and eV
cores: 24
OpenMP: True
OMP_NUM_THREADS: 1

Input parameters:
  eigensolver: {name: dav,
                niter: 3}
  kpts: [4 4 1]
  mode: {ecut: 400.0,
         name: pw}
  xc: RPBE

System changes: positions, numbers, cell, pbc, initial_charges, initial_magmoms 

Initialize ...

Pd-setup:
  name: Palladium
  id: 6da19bfba079f22767af9506641940b9
  Z: 46.0
  valence: 16
  core: 30
  charge: 0.0
  file: /groups/kemi/clausen/miniconda3/envs/gpaw22/share/gpaw/Pd.RPBE.gz
  compensation charges: gauss, rc=0.38, lmax=2
  cutoffs: 2.38(filt), 2.28(core),
  valence states:
                energy  radius
    5s(0.00)    -3.225   1.228
    4p(6.00)   -51.131   1.360
    5p(0.00)    -0.373   1.360
    4d(10.00)    -3.964   1.228
    *s          23.987   1.228
    *d          23.247   1.228

  Using partial waves for Pd as LCAO basis

Pt-setup:
  name: Platinum
  id: f04f522592575c47ad794f6b4a415b4b
  Z: 78.0
  valence: 16
  core: 62
  charge: 0.0
  file: /groups/kemi/clausen/miniconda3/envs/gpaw22/share/gpaw/Pt.RPBE.gz
  compensation charges: gauss, rc=0.41, lmax=2
  cutoffs: 2.26(filt), 2.26(core),
  valence states:
                energy  radius
    6s(1.00)    -5.516   1.307
    5p(6.00)   -55.971   1.371
    6p(0.00)    -0.856   1.371
    5d(9.00)    -6.087   1.307
    *s          21.695   1.307
    *d          21.125   1.307

  Using partial waves for Pt as LCAO basis

Ag-setup:
  name: Silver
  id: c05e55bab2c3858b3f9398f6d75cb77c
  Z: 47.0
  valence: 17
  core: 30
  charge: 0.0
  file: /groups/kemi/clausen/miniconda3/envs/gpaw22/share/gpaw/Ag.RPBE.gz
  compensation charges: gauss, rc=0.40, lmax=2
  cutoffs: 2.35(filt), 2.19(core),
  valence states:
                energy  radius
    5s(1.00)    -4.277   1.286
    4p(6.00)   -58.523   1.328
    5p(0.00)    -0.755   1.328
    4d(10.00)    -7.386   1.180
    *s          22.934   1.286
    *d          19.826   1.180

  Using partial waves for Ag as LCAO basis

Ir-setup:
  name: Iridium
  id: 73b603359d1d5397a85ae3c2440f9033
  Z: 77.0
  valence: 15
  core: 62
  charge: 0.0
  file: /groups/kemi/clausen/miniconda3/envs/gpaw22/share/gpaw/Ir.RPBE.gz
  compensation charges: gauss, rc=0.40, lmax=2
  cutoffs: 2.40(filt), 2.36(core),
  valence states:
                energy  radius
    6s(2.00)    -6.219   1.296
    5p(6.00)   -54.684   1.328
    6p(0.00)    -1.215   1.328
    5d(7.00)    -7.118   1.286
    *s          20.992   1.296
    *d          20.093   1.286

  Using partial waves for Ir as LCAO basis

Ru-setup:
  name: Ruthenium
  id: 76477906e28f51dc1b29884d53556fe9
  Z: 44.0
  valence: 16
  core: 28
  charge: 0.0
  file: /groups/kemi/clausen/miniconda3/envs/gpaw22/share/gpaw/Ru.RPBE.gz
  compensation charges: gauss, rc=0.39, lmax=2
  cutoffs: 2.16(filt), 1.30(core),
  valence states:
                energy  radius
    4s(2.00)   -76.255   1.281
    5s(1.00)    -4.126   1.281
    4p(6.00)   -46.371   1.286
    5p(0.00)    -0.913   1.286
    4d(7.00)    -5.146   1.254
    *d          22.066   1.254

  Using partial waves for Ru as LCAO basis

H-setup:
  name: Hydrogen
  id: ea3f9156a1dc40d47a60fdce8f8bd75d
  Z: 1.0
  valence: 1
  core: 0
  charge: 0.0
  file: /groups/kemi/clausen/miniconda3/envs/gpaw22/share/gpaw/H.RPBE.gz
  compensation charges: gauss, rc=0.15, lmax=2
  cutoffs: 0.85(filt), 0.53(core),
  valence states:
                energy  radius
    1s(1.00)    -6.572   0.476
    *s          20.639   0.476
    *p           0.000   0.476

  Using partial waves for H as LCAO basis

Reference energy: -12371328.023897

Spin-paired calculation

Convergence criteria:
 Maximum [total energy] change in last 3 cyles: 0.0005 eV / electron
 Maximum integral of absolute [dens]ity change: 0.0001 electrons / valence electron
 Maximum integral of absolute [eigenst]ate change: 4e-08 eV^2 / valence electron
 Maximum number of scf [iter]ations: 333
 (Square brackets indicate name in SCF output, whereas a 'c' in
 the SCF output indicates the quantity has converged.)

Symmetries present (total): 1

  ( 1  0  0)
  ( 0  1  0)
  ( 0  0  1)

16 k-points: 4 x 4 x 1 Monkhorst-Pack grid
8 k-points in the irreducible part of the Brillouin zone
       k-points in crystal coordinates                weights
   0:     0.12500000   -0.37500000    0.00000000          2/16
   1:     0.12500000   -0.12500000    0.00000000          2/16
   2:     0.12500000    0.12500000    0.00000000          2/16
   3:     0.12500000    0.37500000    0.00000000          2/16
   4:     0.37500000   -0.37500000    0.00000000          2/16
   5:     0.37500000   -0.12500000    0.00000000          2/16
   6:     0.37500000    0.12500000    0.00000000          2/16
   7:     0.37500000    0.37500000    0.00000000          2/16

Wave functions: Plane wave expansion
  Cutoff energy: 400.000 eV
  Number of coefficients (min, max): 33288, 33380
  Pulay-stress correction: 0.000000 eV/Ang^3 (de/decut=0.000000)
  Using FFTW library
  ScaLapack parameters: grid=3x1, blocksize=64
  Wavefunction extrapolation:
    Improved wavefunction reuse through dual PAW basis 

Occupation numbers: Fermi-Dirac: width=0.1000 eV
 

Eigensolver
   Davidson(niter=3) 

Densities:
  Coarse grid: 40*40*140 grid
  Fine grid: 80*80*280 grid
  Total Charge: 0.000000 

Density mixing:
  Method: separate
  Backend: pulay
  Linear mixing parameter: 0.05
  Mixing with 5 old densities
  Damping of long wave oscillations: 50 

Hamiltonian:
  XC and Coulomb potentials evaluated on a 80*80*280 grid
  Using the RPBE Exchange-Correlation functional
  External potential:
    NoExternalPotential
 

XC parameters: RPBE with 2 nearest neighbor stencil

Memory estimate:
  Process memory now: 190.82 MiB
  Calculator: 557.13 MiB
    Density: 47.40 MiB
      Arrays: 14.92 MiB
      Localized functions: 26.74 MiB
      Mixer: 5.74 MiB
    Hamiltonian: 10.59 MiB
      Arrays: 9.75 MiB
      XC: 0.00 MiB
      Poisson: 0.00 MiB
      vbar: 0.84 MiB
    Wavefunctions: 499.14 MiB
      Arrays psit_nG: 226.15 MiB
      Eigensolver: 258.79 MiB
      Projections: 1.84 MiB
      Projectors: 3.57 MiB
      PW-descriptor: 8.80 MiB

Total number of cores used: 24
Parallelization over k-points: 8
Domain decomposition: 1 x 1 x 3
                      2 x 2 x 6 (xc only)

Number of atoms: 46
Number of atomic orbitals: 544
Number of bands in calculation: 444
Number of valence electrons: 732
Bands to converge: occupied

... initialized

Initializing position-dependent things.

Density initialized from atomic densities
Creating initial wave functions:
  444 bands from LCAO basis set

                                             
                                             
                                             
                                             
                                             
                                             
                 H             Ag            
                  Ir    Pt                   
             Pt   PRu     Pt    Pd           
                         Pt                  
       Pt    APt    PAg    Ru                
                                             
        Ag     Ag    PPt    Pt     Ag        
                       Pd     Pt             
                Ru                           
           Ag    PAg    PPt    Pd            
                                             
            Ir     Pt    PAg    Pd           
       Pd     Pd     Pt                      
             Pd     Ag     Ag                
        Pd     Pt     Ag                     
                                             
                                             
                                             
                                             
                                             

Positions:
   0 Pd     0.000000    1.637674   10.000000    ( 0.0000,  0.0000,  0.0000)
   1 Pt     2.836535    1.637674   10.000000    ( 0.0000,  0.0000,  0.0000)
   2 Ag     5.673071    1.637674   10.000000    ( 0.0000,  0.0000,  0.0000)
   3 Pd     1.418268    4.094186   10.000000    ( 0.0000,  0.0000,  0.0000)
   4 Ag     4.254803    4.094186   10.000000    ( 0.0000,  0.0000,  0.0000)
   5 Ag     7.091338    4.094186   10.000000    ( 0.0000,  0.0000,  0.0000)
   6 Ag     2.836535    6.550698   10.000000    ( 0.0000,  0.0000,  0.0000)
   7 Pd     5.673071    6.550698   10.000000    ( 0.0000,  0.0000,  0.0000)
   8 Pd     8.509606    6.550698   10.000000    ( 0.0000,  0.0000,  0.0000)
   9 Pd     0.000000    0.000000   12.317643    ( 0.0000,  0.0000,  0.0000)
  10 Pd     2.836535    0.000000   12.317643    ( 0.0000,  0.0000,  0.0000)
  11 Pt     5.673071    0.000000   12.317643    ( 0.0000,  0.0000,  0.0000)
  12 Ir     1.418268    2.456512   12.317643    ( 0.0000,  0.0000,  0.0000)
  13 Pt     4.254803    2.456512   12.317643    ( 0.0000,  0.0000,  0.0000)
  14 Ag     7.091338    2.456512   12.317643    ( 0.0000,  0.0000,  0.0000)
  15 Pt     2.836535    4.913023   12.317643    ( 0.0000,  0.0000,  0.0000)
  16 Pd     5.673071    4.913023   12.317643    ( 0.0000,  0.0000,  0.0000)
  17 Pd     8.509606    4.913023   12.317643    ( 0.0000,  0.0000,  0.0000)
  18 Ag     1.386531    0.763556   14.612127    ( 0.0000,  0.0000,  0.0000)
  19 Ag     4.217140    0.786897   14.656625    ( 0.0000,  0.0000,  0.0000)
  20 Pt     7.062906    0.797650   14.661830    ( 0.0000,  0.0000,  0.0000)
  21 Ru     2.750963    3.304886   14.388561    ( 0.0000,  0.0000,  0.0000)
  22 Pd     5.602551    3.218685   14.639951    ( 0.0000,  0.0000,  0.0000)
  23 Pt     8.522404    3.252925   14.664528    ( 0.0000,  0.0000,  0.0000)
  24 Pt     4.170018    5.653000   14.615813    ( 0.0000,  0.0000,  0.0000)
  25 Pt     7.045875    5.606680   14.668177    ( 0.0000,  0.0000,  0.0000)
  26 Ag     9.874604    5.745082   14.696712    ( 0.0000,  0.0000,  0.0000)
  27 Ag     0.008271    1.607036   16.990555    ( 0.0000,  0.0000,  0.0000)
  28 Ag     2.792579    1.619369   16.881405    ( 0.0000,  0.0000,  0.0000)
  29 Pt     5.667100    1.638371   17.010896    ( 0.0000,  0.0000,  0.0000)
  30 Ag     1.336657    4.090436   17.016493    ( 0.0000,  0.0000,  0.0000)
  31 Pd     4.156889    4.034058   16.812256    ( 0.0000,  0.0000,  0.0000)
  32 Ru     6.950997    4.060452   16.869499    ( 0.0000,  0.0000,  0.0000)
  33 Pd     2.789491    6.566972   17.027197    ( 0.0000,  0.0000,  0.0000)
  34 Pt     5.653668    6.422911   16.906578    ( 0.0000,  0.0000,  0.0000)
  35 Pd     8.427941    6.500649   17.069490    ( 0.0000,  0.0000,  0.0000)
  36 Pt     0.076782   -0.041353   19.274293    ( 0.0000,  0.0000,  0.0000)
  37 Pt     2.811452    0.089084   19.254665    ( 0.0000,  0.0000,  0.0000)
  38 Ag     5.710723    0.010761   19.489412    ( 0.0000,  0.0000,  0.0000)
  39 Pt     1.555073    2.469759   19.393081    ( 0.0000,  0.0000,  0.0000)
  40 Ru     4.240188    2.601647   19.102653    ( 0.0000,  0.0000,  0.0000)
  41 Pt     7.117679    2.492363   19.219346    ( 0.0000,  0.0000,  0.0000)
  42 Ir     3.044217    4.828007   19.146959    ( 0.0000,  0.0000,  0.0000)
  43 Pt     5.722064    4.861267   19.161462    ( 0.0000,  0.0000,  0.0000)
  44 Ag     8.573183    4.898414   19.530449    ( 0.0000,  0.0000,  0.0000)
  45 H      2.946493    3.299804   20.830449    ( 0.0000,  0.0000,  0.0000)

Unit cell:
           periodic     x           y           z      points  spacing
  1. axis:    yes    8.509606    0.000000    0.000000    40     0.1842
  2. axis:    yes    4.254803    7.369535    0.000000    40     0.1842
  3. axis:    no     0.000000    0.000000   29.270571   140     0.2091

  Lengths:   8.509606   8.509606  29.270571
  Angles:   90.000000  90.000000  60.000000

Effective grid spacing dv^(1/3) = 0.2016

     iter     time        total  log10-change:
                         energy  eigst   dens
iter:   1 14:03:38  -243.908435
iter:   2 14:04:43  -353.402945  -1.40  -1.22
iter:   3 14:05:48  -211.555516  -1.99  -1.08
iter:   4 14:06:53  -201.582382  -2.47  -1.39
iter:   5 14:07:58  -198.517374  -2.64  -1.46
iter:   6 14:09:04  -196.528882  -2.77  -1.53
iter:   7 14:10:11  -192.241254  -3.03  -1.57
iter:   8 14:11:17  -196.474650  -2.60  -1.71
iter:   9 14:12:24  -190.413036  -2.86  -1.71
iter:  10 14:13:31  -190.064518  -3.80  -2.08
iter:  11 14:14:37  -190.040552  -4.04  -2.13
iter:  12 14:15:43  -189.856524c -3.69  -2.17
iter:  13 14:16:50  -189.914439c -4.04  -2.26
iter:  14 14:17:57  -189.995242c -4.20  -2.33
iter:  15 14:19:04  -189.787405c -4.19  -2.29
iter:  16 14:20:11  -189.697018c -4.44  -2.46
iter:  17 14:21:19  -189.636011c -4.62  -2.57
iter:  18 14:22:27  -189.597558c -4.68  -2.68
iter:  19 14:23:35  -189.623693c -5.19  -2.79
iter:  20 14:24:42  -189.592313c -5.10  -2.74
iter:  21 14:25:50  -189.579605c -5.30  -2.79
iter:  22 14:26:58  -189.577491c -5.61  -2.90
iter:  23 14:28:05  -189.571580c -5.62  -2.94
iter:  24 14:29:13  -189.565206c -5.48  -3.00
iter:  25 14:30:20  -189.594071c -5.79  -3.08
iter:  26 14:31:27  -189.573010c -5.56  -2.96
iter:  27 14:32:35  -189.566179c -6.07  -3.06
iter:  28 14:33:42  -189.566002c -6.31  -3.26
iter:  29 14:34:50  -189.564473c -6.56  -3.30
iter:  30 14:35:57  -189.563328c -6.16  -3.33
iter:  31 14:37:05  -189.588966c -5.83  -3.37
iter:  32 14:38:12  -189.564591c -6.14  -3.13
iter:  33 14:39:19  -189.563512c -7.14  -3.60
iter:  34 14:40:27  -189.564942c -7.03  -3.68
iter:  35 14:41:34  -189.564535c -7.47c -3.78
iter:  36 14:42:41  -189.564761c -7.25  -3.80
iter:  37 14:43:49  -189.565884c -7.20  -3.92
iter:  38 14:44:56  -189.563497c -7.53c -3.88
iter:  39 14:46:04  -189.563507c -7.01  -3.83
iter:  40 14:47:12  -189.564654c -7.91c -4.20c

Converged after 40 iterations.

Dipole moment: (-6.444066, 7.126041, -0.257997) |e|*Ang

Energy contributions relative to reference atoms: (reference = -12371328.023897)

Kinetic:       -231.701983
Potential:     +104.196925
External:        +0.000000
XC:             -54.179219
Entropy (-ST):   -1.891571
Local:           -6.934592
--------------------------
Free energy:   -190.510440
Extrapolated:  -189.564654

Showing only first 2 kpts
 Kpt  Band  Eigenvalues  Occupancy
  0   364      0.77337    0.90784
  0   365      0.78286    0.86103
  0   366      0.82053    0.68307
  0   367      0.84521    0.57675

  1   364      0.63399    1.54021
  1   365      0.67318    1.38722
  1   366      0.68769    1.32388
  1   367      0.70897    1.22561


Fermi level: 0.75488

No gap

Forces in eV/Ang:
  0 Pd    0.70913    0.06209    0.08593
  1 Pt   -0.60890   -0.16005    0.53693
  2 Ag   -0.09916   -0.08048   -0.55730
  3 Pd   -0.05582   -0.33722    0.20638
  4 Ag   -0.00851    0.03217   -0.57456
  5 Ag    0.15133    0.17563   -0.50661
  6 Ag    0.04003   -0.00582   -0.47584
  7 Pd    0.24709    0.35168    0.05502
  8 Pd   -0.13840    0.12784    0.18903
  9 Pd   -0.00899    0.07410   -0.00900
 10 Pd    0.00243   -0.03777   -0.09884
 11 Pt   -0.03445   -0.14878    0.15122
 12 Ir    0.69563    0.16727    0.00176
 13 Pt   -0.67859   -0.18947    0.26537
 14 Ag    0.10873   -0.01815    0.09999
 15 Pt   -0.28504    0.01010    0.17495
 16 Pd   -0.07639    0.25491    0.16383
 17 Pd    0.14184   -0.00225    0.18237
 18 Ag   -0.03487   -0.00574   -0.02343
 19 Ag    0.02032   -0.01817    0.00073
 20 Pt   -0.02028   -0.04078   -0.08083
 21 Ru    0.00859   -0.01418   -0.02407
 22 Pd    0.00455   -0.00884    0.01282
 23 Pt   -0.01416   -0.00006   -0.00563
 24 Pt    0.02013    0.01987    0.01192
 25 Pt   -0.02066   -0.02964    0.02687
 26 Ag   -0.02052   -0.01365   -0.00151
 27 Ag   -0.01114    0.00074    0.04273
 28 Ag    0.02170   -0.02626   -0.00260
 29 Pt   -0.06215    0.05193    0.13581
 30 Ag   -0.03625    0.00292   -0.06373
 31 Pd   -0.02662   -0.01290    0.05205
 32 Ru   -0.02384    0.01938   -0.02465
 33 Pd    0.01800   -0.14102    0.11965
 34 Pt    0.00818   -0.04096    0.05065
 35 Pd   -0.02784   -0.01539   -0.01557
 36 Pt    0.02997   -0.00463   -0.10379
 37 Pt    0.01276   -0.09997   -0.01042
 38 Ag    0.02810    0.01490   -0.03112
 39 Pt    0.14355    0.04082    0.90371
 40 Ru    0.10194   -0.15313    0.43064
 41 Pt    0.04556   -0.02315   -0.07860
 42 Ir   -0.02143    0.09310    0.75596
 43 Pt    0.05076   -0.01052   -0.02959
 44 Ag   -0.03688    0.05054    0.00166
 45 H    -0.25623    0.08972   -1.85013

System changes: positions 

Initializing position-dependent things.

Density initialized from wave functions
                                             
                                             
                                             
                                             
                                             
                                             
                 H             Ag            
                  Ir    Pt                   
             Pt   PRu     Pt    Pd           
                         Pt                  
       Pt    APt    PAg    Ru                
                                             
        Ag     Ag    PPt    Pt     Ag        
                       Pd     Pt             
                Ru                           
           Ag    PAg    PPt    Pd            
                                             
            Ir     Pt    PAg    Pd           
       Pd     Pd     Pt                      
             Pd     Ag     Ag                
        Pd     Pt     Ag                     
                                             
                                             
                                             
                                             
                                             

Positions:
   0 Pd     0.000000    1.637674   10.000000    ( 0.0000,  0.0000,  0.0000)
   1 Pt     2.836535    1.637674   10.000000    ( 0.0000,  0.0000,  0.0000)
   2 Ag     5.673071    1.637674   10.000000    ( 0.0000,  0.0000,  0.0000)
   3 Pd     1.418268    4.094186   10.000000    ( 0.0000,  0.0000,  0.0000)
   4 Ag     4.254803    4.094186   10.000000    ( 0.0000,  0.0000,  0.0000)
   5 Ag     7.091338    4.094186   10.000000    ( 0.0000,  0.0000,  0.0000)
   6 Ag     2.836535    6.550698   10.000000    ( 0.0000,  0.0000,  0.0000)
   7 Pd     5.673071    6.550698   10.000000    ( 0.0000,  0.0000,  0.0000)
   8 Pd     8.509606    6.550698   10.000000    ( 0.0000,  0.0000,  0.0000)
   9 Pd     0.000000    0.000000   12.317643    ( 0.0000,  0.0000,  0.0000)
  10 Pd     2.836535    0.000000   12.317643    ( 0.0000,  0.0000,  0.0000)
  11 Pt     5.673071    0.000000   12.317643    ( 0.0000,  0.0000,  0.0000)
  12 Ir     1.418268    2.456512   12.317643    ( 0.0000,  0.0000,  0.0000)
  13 Pt     4.254803    2.456512   12.317643    ( 0.0000,  0.0000,  0.0000)
  14 Ag     7.091338    2.456512   12.317643    ( 0.0000,  0.0000,  0.0000)
  15 Pt     2.836535    4.913023   12.317643    ( 0.0000,  0.0000,  0.0000)
  16 Pd     5.673071    4.913023   12.317643    ( 0.0000,  0.0000,  0.0000)
  17 Pd     8.509606    4.913023   12.317643    ( 0.0000,  0.0000,  0.0000)
  18 Ag     1.386032    0.763474   14.611792    ( 0.0000,  0.0000,  0.0000)
  19 Ag     4.217431    0.786638   14.656635    ( 0.0000,  0.0000,  0.0000)
  20 Pt     7.062617    0.797067   14.660675    ( 0.0000,  0.0000,  0.0000)
  21 Ru     2.751086    3.304683   14.388217    ( 0.0000,  0.0000,  0.0000)
  22 Pd     5.602616    3.218558   14.640134    ( 0.0000,  0.0000,  0.0000)
  23 Pt     8.522202    3.252924   14.664447    ( 0.0000,  0.0000,  0.0000)
  24 Pt     4.170305    5.653284   14.615984    ( 0.0000,  0.0000,  0.0000)
  25 Pt     7.045580    5.606257   14.668561    ( 0.0000,  0.0000,  0.0000)
  26 Ag     9.874311    5.744887   14.696690    ( 0.0000,  0.0000,  0.0000)
  27 Ag     0.008112    1.607047   16.991165    ( 0.0000,  0.0000,  0.0000)
  28 Ag     2.792889    1.618994   16.881367    ( 0.0000,  0.0000,  0.0000)
  29 Pt     5.666213    1.639113   17.012836    ( 0.0000,  0.0000,  0.0000)
  30 Ag     1.336139    4.090477   17.015582    ( 0.0000,  0.0000,  0.0000)
  31 Pd     4.156509    4.033874   16.812999    ( 0.0000,  0.0000,  0.0000)
  32 Ru     6.950656    4.060729   16.869147    ( 0.0000,  0.0000,  0.0000)
  33 Pd     2.789748    6.564957   17.028907    ( 0.0000,  0.0000,  0.0000)
  34 Pt     5.653785    6.422326   16.907301    ( 0.0000,  0.0000,  0.0000)
  35 Pd     8.427544    6.500429   17.069268    ( 0.0000,  0.0000,  0.0000)
  36 Pt     0.077210   -0.041419   19.272810    ( 0.0000,  0.0000,  0.0000)
  37 Pt     2.811634    0.087656   19.254516    ( 0.0000,  0.0000,  0.0000)
  38 Ag     5.711125    0.010974   19.488967    ( 0.0000,  0.0000,  0.0000)
  39 Pt     1.557124    2.470342   19.405991    ( 0.0000,  0.0000,  0.0000)
  40 Ru     4.241644    2.599459   19.108805    ( 0.0000,  0.0000,  0.0000)
  41 Pt     7.118330    2.492032   19.218223    ( 0.0000,  0.0000,  0.0000)
  42 Ir     3.043911    4.829337   19.157758    ( 0.0000,  0.0000,  0.0000)
  43 Pt     5.722789    4.861117   19.161039    ( 0.0000,  0.0000,  0.0000)
  44 Ag     8.572657    4.899136   19.530473    ( 0.0000,  0.0000,  0.0000)
  45 H      2.942832    3.301086   20.804019    ( 0.0000,  0.0000,  0.0000)

Unit cell:
           periodic     x           y           z      points  spacing
  1. axis:    yes    8.509606    0.000000    0.000000    40     0.1842
  2. axis:    yes    4.254803    7.369535    0.000000    40     0.1842
  3. axis:    no     0.000000    0.000000   29.270571   140     0.2091

  Lengths:   8.509606   8.509606  29.270571
  Angles:   90.000000  90.000000  60.000000

Effective grid spacing dv^(1/3) = 0.2016

     iter     time        total  log10-change:
                         energy  eigst   dens
iter:   1 14:48:40  -189.712433  -4.57
iter:   2 14:49:47  -191.143614  -4.15  -2.71
iter:   3 14:50:54  -189.711503  -4.53  -2.17
iter:   4 14:52:01  -189.650007  -5.48  -2.88
iter:   5 14:53:08  -189.637728c -6.03  -3.38
iter:   6 14:54:14  -189.638243c -6.36  -3.43
iter:   7 14:55:20  -189.637816c -6.49  -3.75
iter:   8 14:56:27  -189.637351c -6.92  -3.79
iter:   9 14:57:34  -189.636915c -7.41c -4.03c

Converged after 9 iterations.

Dipole moment: (-6.491412, 7.127103, -0.250152) |e|*Ang

Energy contributions relative to reference atoms: (reference = -12371328.023897)

Kinetic:       -229.854450
Potential:     +102.388100
External:        +0.000000
XC:             -54.309068
Entropy (-ST):   -1.894621
Local:           -6.914187
--------------------------
Free energy:   -190.584225
Extrapolated:  -189.636915

Showing only first 2 kpts
 Kpt  Band  Eigenvalues  Occupancy
  0   364      0.77531    0.91203
  0   365      0.78306    0.87371
  0   366      0.82439    0.67824
  0   367      0.84842    0.57501

  1   364      0.63654    1.54105
  1   365      0.67692    1.38316
  1   366      0.69009    1.32561
  1   367      0.71147    1.22699


Fermi level: 0.75767

No gap

Forces in eV/Ang:
  0 Pd    0.70438    0.05705    0.09657
  1 Pt   -0.60856   -0.16733    0.54705
  2 Ag   -0.09774   -0.07857   -0.55814
  3 Pd   -0.05359   -0.32735    0.20535
  4 Ag   -0.00366    0.03602   -0.57178
  5 Ag    0.14367    0.17293   -0.49506
  6 Ag    0.04051   -0.00775   -0.47547
  7 Pd    0.24322    0.34996    0.06723
  8 Pd   -0.13589    0.12894    0.19066
  9 Pd    0.00573    0.07423   -0.02339
 10 Pd   -0.00667   -0.04759   -0.10626
 11 Pt   -0.04138   -0.15205    0.14058
 12 Ir    0.68305    0.15194   -0.02547
 13 Pt   -0.66119   -0.19207    0.24960
 14 Ag    0.10650   -0.01103    0.09183
 15 Pt   -0.28361    0.02328    0.14991
 16 Pd   -0.06551    0.25892    0.15228
 17 Pd    0.12971    0.00400    0.17058
 18 Ag   -0.02201   -0.00273   -0.01361
 19 Ag    0.00459   -0.01778    0.00353
 20 Pt   -0.01167   -0.03429   -0.06530
 21 Ru    0.00872   -0.02313    0.01015
 22 Pd   -0.00363   -0.01172    0.00015
 23 Pt   -0.00666   -0.00577   -0.00098
 24 Pt    0.01887    0.01379    0.00885
 25 Pt   -0.01021   -0.01221   -0.00961
 26 Ag   -0.02326   -0.01255    0.00713
 27 Ag    0.00931    0.00205    0.02659
 28 Ag    0.00376   -0.00812   -0.00461
 29 Pt   -0.07111    0.03877    0.11038
 30 Ag   -0.01525   -0.00690   -0.03116
 31 Pd   -0.06277   -0.01945    0.06078
 32 Ru   -0.01174    0.00586   -0.01678
 33 Pd    0.00032   -0.13166    0.09517
 34 Pt   -0.00631   -0.00835    0.03512
 35 Pd   -0.00038   -0.01812   -0.02282
 36 Pt    0.02570    0.00233   -0.15347
 37 Pt    0.01390   -0.09326   -0.07496
 38 Ag    0.02322    0.00388   -0.06104
 39 Pt    0.14172    0.05129    0.73543
 40 Ru    0.06665   -0.11531    0.30058
 41 Pt    0.05671   -0.02049   -0.11771
 42 Ir   -0.00847    0.03033    0.63490
 43 Pt    0.05385   -0.00528   -0.09085
 44 Ag   -0.03246    0.05339   -0.03880
 45 H    -0.27654    0.09975   -1.83245

System changes: positions 

Initializing position-dependent things.

Density initialized from wave functions
                                             
                                             
                                             
                                             
                                             
                                             
                 H             Ag            
                  Ir     Pt                  
             Pt   PRu    PPt    Pd           
                     Ag                      
       Pt    APt    Pd     Ru                
                      Pt                     
        Ag     Ag    Pt     Pt     Ag        
                       Pd     Pt             
                Ru                           
           Ag    PAg    PPt    Pd            
                                             
            Ir     Pt    PAg    Pd           
       Pd    PPd    APt    Ag                
                                             
        Pd     Pt     Ag                     
                                             
                                             
                                             
                                             
                                             

Positions:
   0 Pd     0.000000    1.637674   10.000000    ( 0.0000,  0.0000,  0.0000)
   1 Pt     2.836535    1.637674   10.000000    ( 0.0000,  0.0000,  0.0000)
   2 Ag     5.673071    1.637674   10.000000    ( 0.0000,  0.0000,  0.0000)
   3 Pd     1.418268    4.094186   10.000000    ( 0.0000,  0.0000,  0.0000)
   4 Ag     4.254803    4.094186   10.000000    ( 0.0000,  0.0000,  0.0000)
   5 Ag     7.091338    4.094186   10.000000    ( 0.0000,  0.0000,  0.0000)
   6 Ag     2.836535    6.550698   10.000000    ( 0.0000,  0.0000,  0.0000)
   7 Pd     5.673071    6.550698   10.000000    ( 0.0000,  0.0000,  0.0000)
   8 Pd     8.509606    6.550698   10.000000    ( 0.0000,  0.0000,  0.0000)
   9 Pd     0.000000    0.000000   12.317643    ( 0.0000,  0.0000,  0.0000)
  10 Pd     2.836535    0.000000   12.317643    ( 0.0000,  0.0000,  0.0000)
  11 Pt     5.673071    0.000000   12.317643    ( 0.0000,  0.0000,  0.0000)
  12 Ir     1.418268    2.456512   12.317643    ( 0.0000,  0.0000,  0.0000)
  13 Pt     4.254803    2.456512   12.317643    ( 0.0000,  0.0000,  0.0000)
  14 Ag     7.091338    2.456512   12.317643    ( 0.0000,  0.0000,  0.0000)
  15 Pt     2.836535    4.913023   12.317643    ( 0.0000,  0.0000,  0.0000)
  16 Pd     5.673071    4.913023   12.317643    ( 0.0000,  0.0000,  0.0000)
  17 Pd     8.509606    4.913023   12.317643    ( 0.0000,  0.0000,  0.0000)
  18 Ag     1.383426    0.763125   14.610146    ( 0.0000,  0.0000,  0.0000)
  19 Ag     4.218214    0.784717   14.656964    ( 0.0000,  0.0000,  0.0000)
  20 Pt     7.061202    0.793257   14.653361    ( 0.0000,  0.0000,  0.0000)
  21 Ru     2.752022    3.302359   14.388679    ( 0.0000,  0.0000,  0.0000)
  22 Pd     5.602376    3.217350   14.640384    ( 0.0000,  0.0000,  0.0000)
  23 Pt     8.521347    3.252409   14.664256    ( 0.0000,  0.0000,  0.0000)
  24 Pt     4.172360    5.654880   14.616992    ( 0.0000,  0.0000,  0.0000)
  25 Pt     7.044288    5.604622   14.668198    ( 0.0000,  0.0000,  0.0000)
  26 Ag     9.871858    5.743516   14.697298    ( 0.0000,  0.0000,  0.0000)
  27 Ag     0.008737    1.607243   16.994324    ( 0.0000,  0.0000,  0.0000)
  28 Ag     2.793624    1.617786   16.880909    ( 0.0000,  0.0000,  0.0000)
  29 Pt     5.658724    1.643528   17.025184    ( 0.0000,  0.0000,  0.0000)
  30 Ag     1.334111    4.089916   17.011629    ( 0.0000,  0.0000,  0.0000)
  31 Pd     4.150419    4.031901   16.819380    ( 0.0000,  0.0000,  0.0000)
  32 Ru     6.949169    4.061609   16.867196    ( 0.0000,  0.0000,  0.0000)
  33 Pd     2.790108    6.550614   17.039600    ( 0.0000,  0.0000,  0.0000)
  34 Pt     5.653372    6.420826   16.911368    ( 0.0000,  0.0000,  0.0000)
  35 Pd     8.426997    6.498529   17.066945    ( 0.0000,  0.0000,  0.0000)
  36 Pt     0.080055   -0.041297   19.257208    ( 0.0000,  0.0000,  0.0000)
  37 Pt     2.813109    0.077494   19.247637    ( 0.0000,  0.0000,  0.0000)
  38 Ag     5.713714    0.011594   19.482949    ( 0.0000,  0.0000,  0.0000)
  39 Pt     1.572411    2.475670   19.488243    ( 0.0000,  0.0000,  0.0000)
  40 Ru     4.249468    2.586352   19.143551    ( 0.0000,  0.0000,  0.0000)
  41 Pt     7.124228    2.489778   19.206275    ( 0.0000,  0.0000,  0.0000)
  42 Ir     3.042761    4.833757   19.228320    ( 0.0000,  0.0000,  0.0000)
  43 Pt     5.728528    4.860452   19.152389    ( 0.0000,  0.0000,  0.0000)
  44 Ag     8.569082    4.904831   19.527042    ( 0.0000,  0.0000,  0.0000)
  45 H      2.913443    3.311637   20.606472    ( 0.0000,  0.0000,  0.0000)

Unit cell:
           periodic     x           y           z      points  spacing
  1. axis:    yes    8.509606    0.000000    0.000000    40     0.1842
  2. axis:    yes    4.254803    7.369535    0.000000    40     0.1842
  3. axis:    no     0.000000    0.000000   29.270571   140     0.2091

  Lengths:   8.509606   8.509606  29.270571
  Angles:   90.000000  90.000000  60.000000

Effective grid spacing dv^(1/3) = 0.2016

     iter     time        total  log10-change:
                         energy  eigst   dens
iter:   1 14:59:03  -204.808284  -2.97
iter:   2 15:00:10  -324.311663  -1.89  -1.68
iter:   3 15:01:16  -201.877017  -2.27  -1.23
iter:   4 15:02:23  -191.671885  -3.21  -1.76
iter:   5 15:03:31  -190.459164  -3.99  -2.20
iter:   6 15:04:38  -190.301454  -4.66  -2.51
iter:   7 15:05:45  -190.178057c -4.64  -2.63
iter:   8 15:06:52  -190.159503c -4.47  -2.77
iter:   9 15:07:59  -190.138938c -5.06  -2.64
iter:  10 15:09:05  -190.059339c -5.11  -2.81
iter:  11 15:10:11  -190.048437c -5.50  -3.15
iter:  12 15:11:18  -190.052829c -5.81  -3.18
iter:  13 15:12:25  -190.046831c -5.86  -3.16
iter:  14 15:13:33  -190.047486c -6.27  -3.50
iter:  15 15:14:41  -190.046153c -6.71  -3.56
iter:  16 15:15:48  -190.053145c -6.53  -3.47
iter:  17 15:16:54  -190.046016c -6.66  -3.50
iter:  18 15:18:01  -190.047821c -7.14  -3.71
iter:  19 15:19:07  -190.046558c -7.01  -3.83
iter:  20 15:20:13  -190.047166c -7.18  -3.91
iter:  21 15:21:19  -190.046022c -7.54c -3.93
iter:  22 15:22:24  -190.047745c -7.44c -4.10c

Converged after 22 iterations.

Dipole moment: (-6.841007, 7.186396, -0.253180) |e|*Ang

Energy contributions relative to reference atoms: (reference = -12371328.023897)

Kinetic:       -231.335790
Potential:     +103.696601
External:        +0.000000
XC:             -54.557088
Entropy (-ST):   -1.891803
Local:           -6.905566
--------------------------
Free energy:   -190.993646
Extrapolated:  -190.047745

Showing only first 2 kpts
 Kpt  Band  Eigenvalues  Occupancy
  0   364      0.77665    0.91831
  0   365      0.78146    0.89450
  0   366      0.82375    0.69288
  0   367      0.85305    0.56676

  1   364      0.64176    1.53174
  1   365      0.67937    1.38382
  1   366      0.69658    1.30815
  1   367      0.71177    1.23790


Fermi level: 0.76028

No gap

Forces in eV/Ang:
  0 Pd    0.71174    0.05941    0.09961
  1 Pt   -0.60893   -0.16683    0.56338
  2 Ag   -0.09824   -0.08472   -0.55587
  3 Pd   -0.04788   -0.33500    0.22408
  4 Ag   -0.01147    0.03333   -0.56885
  5 Ag    0.15086    0.17305   -0.49065
  6 Ag    0.03901   -0.00443   -0.47309
  7 Pd    0.24533    0.35891    0.07395
  8 Pd   -0.13280    0.13757    0.20276
  9 Pd    0.00744    0.07233   -0.02166
 10 Pd   -0.00394   -0.04559   -0.09217
 11 Pt   -0.04941   -0.16356    0.13798
 12 Ir    0.68481    0.16024   -0.00859
 13 Pt   -0.66615   -0.19248    0.26583
 14 Ag    0.10751   -0.00770    0.09736
 15 Pt   -0.28253    0.01485    0.18415
 16 Pd   -0.07225    0.25711    0.16731
 17 Pd    0.13518    0.00339    0.18071
 18 Ag   -0.00969   -0.00498    0.02671
 19 Ag    0.00418   -0.01360    0.02114
 20 Pt   -0.03348   -0.02394    0.05466
 21 Ru    0.00892    0.00004   -0.00681
 22 Pd   -0.01169   -0.02077    0.04259
 23 Pt   -0.01188   -0.02714    0.00728
 24 Pt   -0.01081   -0.02603    0.05144
 25 Pt   -0.01973    0.00408    0.01494
 26 Ag    0.00998   -0.00451    0.00361
 27 Ag   -0.00154   -0.00931   -0.04250
 28 Ag   -0.03796    0.04336    0.14725
 29 Pt    0.00171   -0.04629   -0.01895
 30 Ag    0.07650   -0.07641    0.19721
 31 Pd   -0.08826   -0.00972    0.27977
 32 Ru   -0.01089   -0.01962   -0.02622
 33 Pd   -0.03376   -0.02806    0.04390
 34 Pt   -0.00822    0.01099   -0.05621
 35 Pd    0.01342   -0.00992   -0.05378
 36 Pt    0.01995   -0.00038    0.08892
 37 Pt    0.00674    0.02892    0.08981
 38 Ag    0.02217   -0.01024    0.03023
 39 Pt   -0.04963   -0.10737    0.37807
 40 Ru    0.22438   -0.05663   -0.04610
 41 Pt    0.06913    0.01073    0.09613
 42 Ir    0.15049    0.02735    0.16453
 43 Pt   -0.05340   -0.07880    0.09004
 44 Ag    0.02244    0.00242    0.04536
 45 H    -0.33956    0.17788   -1.15542

System changes: positions 

Initializing position-dependent things.

Density initialized from wave functions
                                             
                                             
                                             
                                             
                                             
                                             
                 HIr           Ag            
                         Pt                  
             Pt   PRu    PPt    Pd           
                     Ag                      
       Pt    APt    Pd     Ru                
        Ag     Ag     Pt           Ag        
                     Pt     Pt               
                Ru     Pd     Pt             
                                             
           Ag    PAg    PPt    Pd            
                                             
            Ir     Pt    PAg    Pd           
       Pd    PPd    APt    Ag                
                                             
        Pd     Pt     Ag                     
                                             
                                             
                                             
                                             
                                             

Positions:
   0 Pd     0.000000    1.637674   10.000000    ( 0.0000,  0.0000,  0.0000)
   1 Pt     2.836535    1.637674   10.000000    ( 0.0000,  0.0000,  0.0000)
   2 Ag     5.673071    1.637674   10.000000    ( 0.0000,  0.0000,  0.0000)
   3 Pd     1.418268    4.094186   10.000000    ( 0.0000,  0.0000,  0.0000)
   4 Ag     4.254803    4.094186   10.000000    ( 0.0000,  0.0000,  0.0000)
   5 Ag     7.091338    4.094186   10.000000    ( 0.0000,  0.0000,  0.0000)
   6 Ag     2.836535    6.550698   10.000000    ( 0.0000,  0.0000,  0.0000)
   7 Pd     5.673071    6.550698   10.000000    ( 0.0000,  0.0000,  0.0000)
   8 Pd     8.509606    6.550698   10.000000    ( 0.0000,  0.0000,  0.0000)
   9 Pd     0.000000    0.000000   12.317643    ( 0.0000,  0.0000,  0.0000)
  10 Pd     2.836535    0.000000   12.317643    ( 0.0000,  0.0000,  0.0000)
  11 Pt     5.673071    0.000000   12.317643    ( 0.0000,  0.0000,  0.0000)
  12 Ir     1.418268    2.456512   12.317643    ( 0.0000,  0.0000,  0.0000)
  13 Pt     4.254803    2.456512   12.317643    ( 0.0000,  0.0000,  0.0000)
  14 Ag     7.091338    2.456512   12.317643    ( 0.0000,  0.0000,  0.0000)
  15 Pt     2.836535    4.913023   12.317643    ( 0.0000,  0.0000,  0.0000)
  16 Pd     5.673071    4.913023   12.317643    ( 0.0000,  0.0000,  0.0000)
  17 Pd     8.509606    4.913023   12.317643    ( 0.0000,  0.0000,  0.0000)
  18 Ag     1.380910    0.762694   14.609333    ( 0.0000,  0.0000,  0.0000)
  19 Ag     4.219051    0.782747   14.657738    ( 0.0000,  0.0000,  0.0000)
  20 Pt     7.059156    0.789396   14.648338    ( 0.0000,  0.0000,  0.0000)
  21 Ru     2.753036    3.300408   14.388769    ( 0.0000,  0.0000,  0.0000)
  22 Pd     5.601925    3.215832   14.641667    ( 0.0000,  0.0000,  0.0000)
  23 Pt     8.520299    3.251343   14.664247    ( 0.0000,  0.0000,  0.0000)
  24 Pt     4.173866    5.655651   14.619097    ( 0.0000,  0.0000,  0.0000)
  25 Pt     7.042667    5.603246   14.668398    ( 0.0000,  0.0000,  0.0000)
  26 Ag     9.870007    5.742230   14.697868    ( 0.0000,  0.0000,  0.0000)
  27 Ag     0.009150    1.607184   16.996082    ( 0.0000,  0.0000,  0.0000)
  28 Ag     2.793423    1.617710   16.884038    ( 0.0000,  0.0000,  0.0000)
  29 Pt     5.652391    1.646259   17.035411    ( 0.0000,  0.0000,  0.0000)
  30 Ag     1.334111    4.087653   17.012813    ( 0.0000,  0.0000,  0.0000)
  31 Pd     4.143250    4.030008   16.831483    ( 0.0000,  0.0000,  0.0000)
  32 Ru     6.947585    4.061951   16.864867    ( 0.0000,  0.0000,  0.0000)
  33 Pd     2.789685    6.537625   17.049907    ( 0.0000,  0.0000,  0.0000)
  34 Pt     5.652884    6.419668   16.913573    ( 0.0000,  0.0000,  0.0000)
  35 Pd     8.426733    6.496677   17.063704    ( 0.0000,  0.0000,  0.0000)
  36 Pt     0.082985   -0.041231   19.246180    ( 0.0000,  0.0000,  0.0000)
  37 Pt     2.814529    0.069456   19.244161    ( 0.0000,  0.0000,  0.0000)
  38 Ag     5.716479    0.011927   19.478643    ( 0.0000,  0.0000,  0.0000)
  39 Pt     1.584322    2.477625   19.568396    ( 0.0000,  0.0000,  0.0000)
  40 Ru     4.261669    2.573619   19.172747    ( 0.0000,  0.0000,  0.0000)
  41 Pt     7.130881    2.488093   19.198504    ( 0.0000,  0.0000,  0.0000)
  42 Ir     3.045313    4.838458   19.293169    ( 0.0000,  0.0000,  0.0000)
  43 Pt     5.732154    4.857981   19.147389    ( 0.0000,  0.0000,  0.0000)
  44 Ag     8.566538    4.909752   19.525357    ( 0.0000,  0.0000,  0.0000)
  45 H      2.880263    3.324873   20.409688    ( 0.0000,  0.0000,  0.0000)

Unit cell:
           periodic     x           y           z      points  spacing
  1. axis:    yes    8.509606    0.000000    0.000000    40     0.1842
  2. axis:    yes    4.254803    7.369535    0.000000    40     0.1842
  3. axis:    no     0.000000    0.000000   29.270571   140     0.2091

  Lengths:   8.509606   8.509606  29.270571
  Angles:   90.000000  90.000000  60.000000

Effective grid spacing dv^(1/3) = 0.2016

     iter     time        total  log10-change:
                         energy  eigst   dens
iter:   1 15:23:53  -192.721383  -3.06
iter:   2 15:24:59  -218.684000  -2.68  -2.01
iter:   3 15:26:05  -192.615242  -3.21  -1.54
iter:   4 15:27:11  -190.771879  -3.97  -2.11
iter:   5 15:28:17  -190.292712  -4.54  -2.42
iter:   6 15:29:24  -190.245369  -4.69  -2.78
iter:   7 15:30:31  -190.304520c -4.93  -2.76
iter:   8 15:31:38  -190.185915c -4.65  -2.74
iter:   9 15:32:45  -190.181391c -5.31  -2.92
iter:  10 15:33:51  -190.166743c -5.78  -3.11
iter:  11 15:34:57  -190.165270c -5.97  -3.21
iter:  12 15:36:03  -190.162212c -6.24  -3.47
iter:  13 15:37:09  -190.170056c -5.99  -3.36
iter:  14 15:38:14  -190.162359c -6.63  -3.47
iter:  15 15:39:20  -190.163206c -6.89  -3.57
iter:  16 15:40:26  -190.164174c -7.23  -3.77
iter:  17 15:41:32  -190.165065c -6.82  -3.78
iter:  18 15:42:37  -190.163212c -7.36  -3.76
iter:  19 15:43:44  -190.165283c -7.28  -3.99
iter:  20 15:44:52  -190.161854c -7.22  -3.75
iter:  21 15:45:59  -190.162938c -7.16  -3.82
iter:  22 15:47:07  -190.164483c -7.59c -4.15c

Converged after 22 iterations.

Dipole moment: (-7.220879, 7.199305, -0.251546) |e|*Ang

Energy contributions relative to reference atoms: (reference = -12371328.023897)

Kinetic:       -228.830930
Potential:     +101.713714
External:        +0.000000
XC:             -55.182362
Entropy (-ST):   -1.893576
Local:           -6.918117
--------------------------
Free energy:   -191.111271
Extrapolated:  -190.164483

Showing only first 2 kpts
 Kpt  Band  Eigenvalues  Occupancy
  0   364      0.76913    0.95710
  0   365      0.78113    0.89743
  0   366      0.82196    0.70224
  0   367      0.85107    0.57595

  1   364      0.64274    1.52921
  1   365      0.67884    1.38721
  1   366      0.69586    1.31260
  1   367      0.71205    1.23782


Fermi level: 0.76055

No gap

Forces in eV/Ang:
  0 Pd    0.70365    0.06448    0.10554
  1 Pt   -0.60199   -0.16020    0.56643
  2 Ag   -0.09616   -0.07983   -0.55296
  3 Pd   -0.04722   -0.33175    0.22581
  4 Ag   -0.00654    0.03400   -0.56346
  5 Ag    0.14491    0.16647   -0.48544
  6 Ag    0.04015   -0.00575   -0.46956
  7 Pd    0.23685    0.34951    0.08246
  8 Pd   -0.12689    0.13721    0.20996
  9 Pd    0.00483    0.06716   -0.02485
 10 Pd   -0.00200   -0.04494   -0.08537
 11 Pt   -0.05208   -0.16656    0.13188
 12 Ir    0.68563    0.16674    0.00344
 13 Pt   -0.66351   -0.18927    0.27689
 14 Ag    0.10393   -0.00630    0.09962
 15 Pt   -0.27770    0.00804    0.20779
 16 Pd   -0.07819    0.25405    0.17182
 17 Pd    0.13580    0.00172    0.18379
 18 Ag    0.01188    0.00550    0.04504
 19 Ag   -0.01580    0.00508    0.02734
 20 Pt   -0.03654   -0.01310    0.11651
 21 Ru    0.00428    0.01335    0.00750
 22 Pd   -0.03821   -0.01495    0.06714
 23 Pt    0.00352   -0.02558    0.00465
 24 Pt   -0.03949   -0.07460    0.07982
 25 Pt   -0.02174    0.01138    0.00748
 26 Ag    0.03824   -0.02399    0.00389
 27 Ag   -0.02017   -0.02996   -0.10442
 28 Ag   -0.05415    0.06268    0.21744
 29 Pt    0.03905   -0.09842   -0.12149
 30 Ag    0.10821   -0.10449    0.31828
 31 Pd   -0.06220    0.00474    0.33786
 32 Ru   -0.01625   -0.03856   -0.00833
 33 Pd   -0.06034    0.06518   -0.03508
 34 Pt   -0.01507    0.02009   -0.09662
 35 Pd    0.02534   -0.01220   -0.05514
 36 Pt    0.01611   -0.01293    0.20278
 37 Pt   -0.00853    0.10523    0.10103
 38 Ag    0.02731   -0.02905    0.05001
 39 Pt   -0.55102   -0.46653   -0.35833
 40 Ru    0.36207   -0.05145   -0.42327
 41 Pt    0.06042    0.01935    0.17041
 42 Ir    0.28551    0.23549   -0.48495
 43 Pt   -0.10026   -0.09013    0.11297
 44 Ag    0.06195   -0.03214    0.06449
 45 H    -0.08401    0.29449    0.02647

System changes: positions 

Initializing position-dependent things.

Density initialized from wave functions
                                             
                                             
                                             
                                             
                                             
                                             
                 HIr           Ag            
                         Pt                  
             Pt   PRu    PPt    Pd           
                     Ag                      
       Pt    APt    Pd     Ru                
        Ag            Pt                     
               Ag    Pt     Pt     Ag        
                       Pd     Pt             
                Ru                           
           Ag    PAg    PPt    Pd            
                                             
            Ir     Pt    PAg    Pd           
       Pd    PPd    APt    Ag                
                                             
        Pd     Pt     Ag                     
                                             
                                             
                                             
                                             
                                             

Positions:
   0 Pd     0.000000    1.637674   10.000000    ( 0.0000,  0.0000,  0.0000)
   1 Pt     2.836535    1.637674   10.000000    ( 0.0000,  0.0000,  0.0000)
   2 Ag     5.673071    1.637674   10.000000    ( 0.0000,  0.0000,  0.0000)
   3 Pd     1.418268    4.094186   10.000000    ( 0.0000,  0.0000,  0.0000)
   4 Ag     4.254803    4.094186   10.000000    ( 0.0000,  0.0000,  0.0000)
   5 Ag     7.091338    4.094186   10.000000    ( 0.0000,  0.0000,  0.0000)
   6 Ag     2.836535    6.550698   10.000000    ( 0.0000,  0.0000,  0.0000)
   7 Pd     5.673071    6.550698   10.000000    ( 0.0000,  0.0000,  0.0000)
   8 Pd     8.509606    6.550698   10.000000    ( 0.0000,  0.0000,  0.0000)
   9 Pd     0.000000    0.000000   12.317643    ( 0.0000,  0.0000,  0.0000)
  10 Pd     2.836535    0.000000   12.317643    ( 0.0000,  0.0000,  0.0000)
  11 Pt     5.673071    0.000000   12.317643    ( 0.0000,  0.0000,  0.0000)
  12 Ir     1.418268    2.456512   12.317643    ( 0.0000,  0.0000,  0.0000)
  13 Pt     4.254803    2.456512   12.317643    ( 0.0000,  0.0000,  0.0000)
  14 Ag     7.091338    2.456512   12.317643    ( 0.0000,  0.0000,  0.0000)
  15 Pt     2.836535    4.913023   12.317643    ( 0.0000,  0.0000,  0.0000)
  16 Pd     5.673071    4.913023   12.317643    ( 0.0000,  0.0000,  0.0000)
  17 Pd     8.509606    4.913023   12.317643    ( 0.0000,  0.0000,  0.0000)
  18 Ag     1.381416    0.762810   14.610024    ( 0.0000,  0.0000,  0.0000)
  19 Ag     4.218780    0.783106   14.657962    ( 0.0000,  0.0000,  0.0000)
  20 Pt     7.058985    0.789830   14.650614    ( 0.0000,  0.0000,  0.0000)
  21 Ru     2.752933    3.300916   14.388732    ( 0.0000,  0.0000,  0.0000)
  22 Pd     5.601561    3.215877   14.642349    ( 0.0000,  0.0000,  0.0000)
  23 Pt     8.520469    3.251182   14.664307    ( 0.0000,  0.0000,  0.0000)
  24 Pt     4.173137    5.654625   14.619779    ( 0.0000,  0.0000,  0.0000)
  25 Pt     7.042621    5.603575   14.668582    ( 0.0000,  0.0000,  0.0000)
  26 Ag     9.870789    5.742164   14.697802    ( 0.0000,  0.0000,  0.0000)
  27 Ag     0.008793    1.606828   16.994534    ( 0.0000,  0.0000,  0.0000)
  28 Ag     2.792795    1.618495   16.886344    ( 0.0000,  0.0000,  0.0000)
  29 Pt     5.653944    1.644595   17.032306    ( 0.0000,  0.0000,  0.0000)
  30 Ag     1.335475    4.086689   17.016629    ( 0.0000,  0.0000,  0.0000)
  31 Pd     4.143642    4.030378   16.833926    ( 0.0000,  0.0000,  0.0000)
  32 Ru     6.947613    4.061441   16.865084    ( 0.0000,  0.0000,  0.0000)
  33 Pd     2.789035    6.540488   17.047923    ( 0.0000,  0.0000,  0.0000)
  34 Pt     5.652814    6.420036   16.912000    ( 0.0000,  0.0000,  0.0000)
  35 Pd     8.427027    6.496837   17.063516    ( 0.0000,  0.0000,  0.0000)
  36 Pt     0.082729   -0.041408   19.250717    ( 0.0000,  0.0000,  0.0000)
  37 Pt     2.814204    0.072078   19.246296    ( 0.0000,  0.0000,  0.0000)
  38 Ag     5.716385    0.011544   19.480100    ( 0.0000,  0.0000,  0.0000)
  39 Pt     1.575923    2.471707   19.552035    ( 0.0000,  0.0000,  0.0000)
  40 Ru     4.264345    2.574970   19.163186    ( 0.0000,  0.0000,  0.0000)
  41 Pt     7.130574    2.488620   19.202108    ( 0.0000,  0.0000,  0.0000)
  42 Ir     3.048458    4.840556   19.277326    ( 0.0000,  0.0000,  0.0000)
  43 Pt     5.730255    4.857169   19.149912    ( 0.0000,  0.0000,  0.0000)
  44 Ag     8.567719    4.908545   19.526596    ( 0.0000,  0.0000,  0.0000)
  45 H      2.884177    3.326371   20.440652    ( 0.0000,  0.0000,  0.0000)

Unit cell:
           periodic     x           y           z      points  spacing
  1. axis:    yes    8.509606    0.000000    0.000000    40     0.1842
  2. axis:    yes    4.254803    7.369535    0.000000    40     0.1842
  3. axis:    no     0.000000    0.000000   29.270571   140     0.2091

  Lengths:   8.509606   8.509606  29.270571
  Angles:   90.000000  90.000000  60.000000

Effective grid spacing dv^(1/3) = 0.2016

     iter     time        total  log10-change:
                         energy  eigst   dens
iter:   1 15:48:36  -192.410572  -3.95
iter:   2 15:49:42  -239.033606  -2.59  -2.03
iter:   3 15:50:48  -193.147948  -3.07  -1.42
iter:   4 15:51:56  -190.757226  -4.02  -2.09
iter:   5 15:53:01  -190.289547  -4.75  -2.45
iter:   6 15:54:06  -190.206963  -5.09  -2.89
iter:   7 15:55:12  -190.206829c -5.50  -3.27
iter:   8 15:56:17  -190.193848c -5.69  -3.24
iter:   9 15:57:22  -190.189383c -5.77  -3.51
iter:  10 15:58:28  -190.191244c -6.38  -3.50
iter:  11 15:59:34  -190.189507c -6.37  -3.67
iter:  12 16:00:41  -190.188355c -6.85  -3.83
iter:  13 16:01:47  -190.190944c -6.72  -3.97
iter:  14 16:02:54  -190.188982c -7.41c -3.82
iter:  15 16:04:01  -190.188863c -7.54c -4.10c

Converged after 15 iterations.

Dipole moment: (-7.122519, 7.167022, -0.246321) |e|*Ang

Energy contributions relative to reference atoms: (reference = -12371328.023897)

Kinetic:       -229.433714
Potential:     +102.122908
External:        +0.000000
XC:             -55.006281
Entropy (-ST):   -1.893439
Local:           -6.925056
--------------------------
Free energy:   -191.135582
Extrapolated:  -190.188863

Showing only first 2 kpts
 Kpt  Band  Eigenvalues  Occupancy
  0   364      0.77048    0.94574
  0   365      0.77960    0.90042
  0   366      0.82224    0.69676
  0   367      0.85101    0.57240

  1   364      0.64070    1.53318
  1   365      0.67868    1.38397
  1   366      0.69444    1.31481
  1   367      0.71124    1.23731


Fermi level: 0.75962

No gap

Forces in eV/Ang:
  0 Pd    0.69763    0.06132    0.10107
  1 Pt   -0.59605   -0.15623    0.55640
  2 Ag   -0.09521   -0.07841   -0.55477
  3 Pd   -0.04469   -0.33009    0.21590
  4 Ag   -0.00498    0.03349   -0.56696
  5 Ag    0.14030    0.16429   -0.48765
  6 Ag    0.04076   -0.00472   -0.47251
  7 Pd    0.23449    0.34525    0.07911
  8 Pd   -0.12765    0.13733    0.20430
  9 Pd    0.00325    0.06822   -0.03135
 10 Pd   -0.00339   -0.04437   -0.09756
 11 Pt   -0.04778   -0.16135    0.12611
 12 Ir    0.68286    0.16563   -0.00752
 13 Pt   -0.66200   -0.18894    0.26363
 14 Ag    0.10370   -0.00829    0.09369
 15 Pt   -0.27596    0.00965    0.19113
 16 Pd   -0.07789    0.25515    0.16223
 17 Pd    0.13506   -0.00037    0.17566
 18 Ag    0.00809    0.00464    0.02672
 19 Ag   -0.01869    0.00213    0.01701
 20 Pt   -0.02404   -0.01377    0.05653
 21 Ru   -0.00090    0.00385    0.00142
 22 Pd   -0.03030   -0.00739    0.04628
 23 Pt    0.00219   -0.01469   -0.00098
 24 Pt   -0.02751   -0.05959    0.06088
 25 Pt   -0.01652    0.00159   -0.00251
 26 Ag    0.02363   -0.02729    0.00418
 27 Ag   -0.02668   -0.03192   -0.07315
 28 Ag   -0.03567    0.03702    0.16684
 29 Pt    0.03041   -0.07558   -0.07809
 30 Ag    0.07229   -0.07387    0.24968
 31 Pd   -0.03125    0.00638    0.24592
 32 Ru   -0.01772   -0.02308    0.00042
 33 Pd   -0.04658    0.04685   -0.01350
 34 Pt   -0.01235    0.00098   -0.05392
 35 Pd    0.01074   -0.02024   -0.03084
 36 Pt    0.01674   -0.00880    0.15244
 37 Pt    0.01375    0.04338    0.07434
 38 Ag    0.02383   -0.02791    0.03494
 39 Pt   -0.25609   -0.24824   -0.16323
 40 Ru    0.21468   -0.02661   -0.24704
 41 Pt    0.05584    0.00667    0.12366
 42 Ir    0.19055    0.04656   -0.24226
 43 Pt   -0.03515   -0.05763    0.07389
 44 Ag    0.04990   -0.01101    0.05864
 45 H    -0.17552    0.26672   -0.23027

System changes: positions 

Initializing position-dependent things.

Density initialized from wave functions
                                             
                                             
                                             
                                             
                                             
                                             
                 HIr           Ag            
                         Pt                  
             Pt   PRu    PPt    Pd           
                     Ag                      
       Pt    APt    Pd     Ru                
        Ag     Ag     Pt                     
                     Pt     Pt     Ag        
                       Pd     Pt             
                Ru                           
           Ag    PAg    PPt    Pd            
                                             
            Ir     Pt    PAg    Pd           
       Pd    PPd    APt    Ag                
                                             
        Pd     Pt     Ag                     
                                             
                                             
                                             
                                             
                                             

Positions:
   0 Pd     0.000000    1.637674   10.000000    ( 0.0000,  0.0000,  0.0000)
   1 Pt     2.836535    1.637674   10.000000    ( 0.0000,  0.0000,  0.0000)
   2 Ag     5.673071    1.637674   10.000000    ( 0.0000,  0.0000,  0.0000)
   3 Pd     1.418268    4.094186   10.000000    ( 0.0000,  0.0000,  0.0000)
   4 Ag     4.254803    4.094186   10.000000    ( 0.0000,  0.0000,  0.0000)
   5 Ag     7.091338    4.094186   10.000000    ( 0.0000,  0.0000,  0.0000)
   6 Ag     2.836535    6.550698   10.000000    ( 0.0000,  0.0000,  0.0000)
   7 Pd     5.673071    6.550698   10.000000    ( 0.0000,  0.0000,  0.0000)
   8 Pd     8.509606    6.550698   10.000000    ( 0.0000,  0.0000,  0.0000)
   9 Pd     0.000000    0.000000   12.317643    ( 0.0000,  0.0000,  0.0000)
  10 Pd     2.836535    0.000000   12.317643    ( 0.0000,  0.0000,  0.0000)
  11 Pt     5.673071    0.000000   12.317643    ( 0.0000,  0.0000,  0.0000)
  12 Ir     1.418268    2.456512   12.317643    ( 0.0000,  0.0000,  0.0000)
  13 Pt     4.254803    2.456512   12.317643    ( 0.0000,  0.0000,  0.0000)
  14 Ag     7.091338    2.456512   12.317643    ( 0.0000,  0.0000,  0.0000)
  15 Pt     2.836535    4.913023   12.317643    ( 0.0000,  0.0000,  0.0000)
  16 Pd     5.673071    4.913023   12.317643    ( 0.0000,  0.0000,  0.0000)
  17 Pd     8.509606    4.913023   12.317643    ( 0.0000,  0.0000,  0.0000)
  18 Ag     1.381566    0.762925   14.610842    ( 0.0000,  0.0000,  0.0000)
  19 Ag     4.218367    0.783154   14.658511    ( 0.0000,  0.0000,  0.0000)
  20 Pt     7.058144    0.789353   14.652469    ( 0.0000,  0.0000,  0.0000)
  21 Ru     2.752960    3.301106   14.388643    ( 0.0000,  0.0000,  0.0000)
  22 Pd     5.600685    3.215607   14.643884    ( 0.0000,  0.0000,  0.0000)
  23 Pt     8.520486    3.250705   14.664295    ( 0.0000,  0.0000,  0.0000)
  24 Pt     4.172308    5.652882   14.621676    ( 0.0000,  0.0000,  0.0000)
  25 Pt     7.042040    5.603578   14.668769    ( 0.0000,  0.0000,  0.0000)
  26 Ag     9.871543    5.741391   14.697882    ( 0.0000,  0.0000,  0.0000)
  27 Ag     0.007989    1.605935   16.992363    ( 0.0000,  0.0000,  0.0000)
  28 Ag     2.791750    1.619623   16.891457    ( 0.0000,  0.0000,  0.0000)
  29 Pt     5.654806    1.642416   17.030091    ( 0.0000,  0.0000,  0.0000)
  30 Ag     1.337655    4.084408   17.023994    ( 0.0000,  0.0000,  0.0000)
  31 Pd     4.142618    4.030550   16.841641    ( 0.0000,  0.0000,  0.0000)
  32 Ru     6.947037    4.060756   16.864958    ( 0.0000,  0.0000,  0.0000)
  33 Pd     2.787709    6.541685   17.047676    ( 0.0000,  0.0000,  0.0000)
  34 Pt     5.652513    6.420013   16.910296    ( 0.0000,  0.0000,  0.0000)
  35 Pd     8.427289    6.496308   17.062463    ( 0.0000,  0.0000,  0.0000)
  36 Pt     0.083264   -0.041720   19.255440    ( 0.0000,  0.0000,  0.0000)
  37 Pt     2.814449    0.073574   19.248845    ( 0.0000,  0.0000,  0.0000)
  38 Ag     5.717150    0.010811   19.481272    ( 0.0000,  0.0000,  0.0000)
  39 Pt     1.566803    2.463137   19.548156    ( 0.0000,  0.0000,  0.0000)
  40 Ru     4.271806    2.573648   19.156103    ( 0.0000,  0.0000,  0.0000)
  41 Pt     7.132226    2.488856   19.205992    ( 0.0000,  0.0000,  0.0000)
  42 Ir     3.054470    4.843610   19.270414    ( 0.0000,  0.0000,  0.0000)
  43 Pt     5.728849    4.855254   19.152495    ( 0.0000,  0.0000,  0.0000)
  44 Ag     8.569147    4.908149   19.528466    ( 0.0000,  0.0000,  0.0000)
  45 H      2.879478    3.334240   20.432822    ( 0.0000,  0.0000,  0.0000)

Unit cell:
           periodic     x           y           z      points  spacing
  1. axis:    yes    8.509606    0.000000    0.000000    40     0.1842
  2. axis:    yes    4.254803    7.369535    0.000000    40     0.1842
  3. axis:    no     0.000000    0.000000   29.270571   140     0.2091

  Lengths:   8.509606   8.509606  29.270571
  Angles:   90.000000  90.000000  60.000000

Effective grid spacing dv^(1/3) = 0.2016

     iter     time        total  log10-change:
                         energy  eigst   dens
iter:   1 16:05:31  -190.329041  -4.29
iter:   2 16:06:38  -191.926464  -4.16  -2.72
iter:   3 16:07:45  -190.439907  -4.26  -2.11
iter:   4 16:08:52  -190.219491  -5.18  -2.61
iter:   5 16:09:59  -190.213739c -6.25  -3.51
iter:   6 16:11:07  -190.217863c -6.65  -3.50
iter:   7 16:12:14  -190.217463c -6.94  -3.63
iter:   8 16:13:21  -190.215109c -6.61  -3.72
iter:   9 16:14:28  -190.215322c -7.27  -3.97
iter:  10 16:15:36  -190.215067c -7.58c -4.11c

Converged after 10 iterations.

Dipole moment: (-7.133690, 7.145421, -0.246935) |e|*Ang

Energy contributions relative to reference atoms: (reference = -12371328.023897)

Kinetic:       -231.055195
Potential:     +103.599083
External:        +0.000000
XC:             -54.910335
Entropy (-ST):   -1.892114
Local:           -6.902563
--------------------------
Free energy:   -191.161124
Extrapolated:  -190.215067

Showing only first 2 kpts
 Kpt  Band  Eigenvalues  Occupancy
  0   364      0.77240    0.93690
  0   365      0.77976    0.90030
  0   366      0.82214    0.69782
  0   367      0.85314    0.56431

  1   364      0.64050    1.53443
  1   365      0.67930    1.38193
  1   366      0.69438    1.31575
  1   367      0.71172    1.23566


Fermi level: 0.75976

No gap

Forces in eV/Ang:
  0 Pd    0.70385    0.06256    0.09594
  1 Pt   -0.60471   -0.16304    0.55028
  2 Ag   -0.09626   -0.07908   -0.56034
  3 Pd   -0.04827   -0.32983    0.21048
  4 Ag   -0.00488    0.03455   -0.57125
  5 Ag    0.14293    0.16732   -0.49302
  6 Ag    0.04052   -0.00567   -0.47679
  7 Pd    0.23760    0.34933    0.07071
  8 Pd   -0.12904    0.13625    0.19703
  9 Pd    0.00584    0.06714   -0.02264
 10 Pd   -0.00517   -0.04510   -0.09441
 11 Pt   -0.04945   -0.16142    0.13292
 12 Ir    0.68135    0.16208   -0.00934
 13 Pt   -0.65799   -0.19189    0.26876
 14 Ag    0.10307   -0.00873    0.10145
 15 Pt   -0.27368    0.01533    0.19139
 16 Pd   -0.07579    0.25560    0.16730
 17 Pd    0.13175    0.00111    0.17691
 18 Ag    0.01023    0.00135    0.02328
 19 Ag   -0.02360   -0.00115    0.02084
 20 Pt   -0.02030   -0.01264    0.04216
 21 Ru   -0.00363   -0.00375    0.00989
 22 Pd   -0.03185   -0.00515    0.03901
 23 Pt    0.00401   -0.00310    0.01210
 24 Pt   -0.02159   -0.04973    0.05383
 25 Pt   -0.00674    0.00001   -0.00643
 26 Ag    0.00894   -0.02777    0.01437
 27 Ag   -0.02483   -0.02766   -0.04156
 28 Ag   -0.03336    0.02006    0.12700
 29 Pt    0.02779   -0.06096   -0.06474
 30 Ag    0.04153   -0.05871    0.21202
 31 Pd   -0.01235    0.00681    0.13700
 32 Ru   -0.00260   -0.01448    0.00869
 33 Pd   -0.03812    0.03798   -0.01110
 34 Pt   -0.00736   -0.00462   -0.02270
 35 Pd    0.00281   -0.02310   -0.01046
 36 Pt    0.02573   -0.00393    0.12770
 37 Pt    0.03046    0.00907    0.06832
 38 Ag    0.02067   -0.03217    0.03802
 39 Pt   -0.18426   -0.18156   -0.15308
 40 Ru    0.13253   -0.02242   -0.17472
 41 Pt    0.05622    0.00531    0.10114
 42 Ir    0.12921    0.02509   -0.19288
 43 Pt    0.02511   -0.03048    0.06557
 44 Ag    0.03752   -0.00641    0.05817
 45 H    -0.19158    0.26446   -0.31974

System changes: positions 

Initializing position-dependent things.

Density initialized from wave functions
                                             
                                             
                                             
                                             
                                             
                                             
                H Ir    Pt      Ag           
                                             
             Pt   PdRu   PPt    Pd           
              Pt     Ag                      
       Pt    Ag     Pd     Ru                
        Ag     Ag     Pt           Ag        
                     Pt     Pt               
                Ru     Pd     Pt             
                                             
           Ag    PAg    PPt    Pd            
                                             
            Ir     Pt    PAg    Pd           
       Pd    PPd    APt    Ag                
                                             
        Pd     Pt     Ag                     
                                             
                                             
                                             
                                             
                                             

Positions:
   0 Pd     0.000000    1.637674   10.000000    ( 0.0000,  0.0000,  0.0000)
   1 Pt     2.836535    1.637674   10.000000    ( 0.0000,  0.0000,  0.0000)
   2 Ag     5.673071    1.637674   10.000000    ( 0.0000,  0.0000,  0.0000)
   3 Pd     1.418268    4.094186   10.000000    ( 0.0000,  0.0000,  0.0000)
   4 Ag     4.254803    4.094186   10.000000    ( 0.0000,  0.0000,  0.0000)
   5 Ag     7.091338    4.094186   10.000000    ( 0.0000,  0.0000,  0.0000)
   6 Ag     2.836535    6.550698   10.000000    ( 0.0000,  0.0000,  0.0000)
   7 Pd     5.673071    6.550698   10.000000    ( 0.0000,  0.0000,  0.0000)
   8 Pd     8.509606    6.550698   10.000000    ( 0.0000,  0.0000,  0.0000)
   9 Pd     0.000000    0.000000   12.317643    ( 0.0000,  0.0000,  0.0000)
  10 Pd     2.836535    0.000000   12.317643    ( 0.0000,  0.0000,  0.0000)
  11 Pt     5.673071    0.000000   12.317643    ( 0.0000,  0.0000,  0.0000)
  12 Ir     1.418268    2.456512   12.317643    ( 0.0000,  0.0000,  0.0000)
  13 Pt     4.254803    2.456512   12.317643    ( 0.0000,  0.0000,  0.0000)
  14 Ag     7.091338    2.456512   12.317643    ( 0.0000,  0.0000,  0.0000)
  15 Pt     2.836535    4.913023   12.317643    ( 0.0000,  0.0000,  0.0000)
  16 Pd     5.673071    4.913023   12.317643    ( 0.0000,  0.0000,  0.0000)
  17 Pd     8.509606    4.913023   12.317643    ( 0.0000,  0.0000,  0.0000)
  18 Ag     1.382124    0.763335   14.615684    ( 0.0000,  0.0000,  0.0000)
  19 Ag     4.215542    0.782790   14.662536    ( 0.0000,  0.0000,  0.0000)
  20 Pt     7.052526    0.785482   14.662296    ( 0.0000,  0.0000,  0.0000)
  21 Ru     2.753183    3.301325   14.388817    ( 0.0000,  0.0000,  0.0000)
  22 Pd     5.594795    3.213673   14.653539    ( 0.0000,  0.0000,  0.0000)
  23 Pt     8.520526    3.248259   14.665223    ( 0.0000,  0.0000,  0.0000)
  24 Pt     4.167748    5.642587   14.633844    ( 0.0000,  0.0000,  0.0000)
  25 Pt     7.038668    5.603189   14.669737    ( 0.0000,  0.0000,  0.0000)
  26 Ag     9.874882    5.736091   14.699308    ( 0.0000,  0.0000,  0.0000)
  27 Ag     0.003114    1.600535   16.981142    ( 0.0000,  0.0000,  0.0000)
  28 Ag     2.785136    1.625622   16.921995    ( 0.0000,  0.0000,  0.0000)
  29 Pt     5.658611    1.630181   17.019176    ( 0.0000,  0.0000,  0.0000)
  30 Ag     1.349353    4.070347   17.068676    ( 0.0000,  0.0000,  0.0000)
  31 Pd     4.135723    4.031233   16.885790    ( 0.0000,  0.0000,  0.0000)
  32 Ru     6.944129    4.057040   16.864223    ( 0.0000,  0.0000,  0.0000)
  33 Pd     2.779723    6.545669   17.048554    ( 0.0000,  0.0000,  0.0000)
  34 Pt     5.650834    6.419256   16.902138    ( 0.0000,  0.0000,  0.0000)
  35 Pd     8.428368    6.492306   17.056424    ( 0.0000,  0.0000,  0.0000)
  36 Pt     0.088058   -0.043370   19.281229    ( 0.0000,  0.0000,  0.0000)
  37 Pt     2.817479    0.078914   19.263784    ( 0.0000,  0.0000,  0.0000)
  38 Ag     5.722480    0.005875   19.487958    ( 0.0000,  0.0000,  0.0000)
  39 Pt     1.514590    2.412313   19.541423    ( 0.0000,  0.0000,  0.0000)
  40 Ru     4.316958    2.562268   19.122214    ( 0.0000,  0.0000,  0.0000)
  41 Pt     7.144369    2.489902   19.227316    ( 0.0000,  0.0000,  0.0000)
  42 Ir     3.089331    4.864073   19.243681    ( 0.0000,  0.0000,  0.0000)
  43 Pt     5.725011    4.844401   19.167180    ( 0.0000,  0.0000,  0.0000)
  44 Ag     8.576766    4.907035   19.539917    ( 0.0000,  0.0000,  0.0000)
  45 H      2.841459    3.387675   20.331777    ( 0.0000,  0.0000,  0.0000)

Unit cell:
           periodic     x           y           z      points  spacing
  1. axis:    yes    8.509606    0.000000    0.000000    40     0.1842
  2. axis:    yes    4.254803    7.369535    0.000000    40     0.1842
  3. axis:    no     0.000000    0.000000   29.270571   140     0.2091

  Lengths:   8.509606   8.509606  29.270571
  Angles:   90.000000  90.000000  60.000000

Effective grid spacing dv^(1/3) = 0.2016

     iter     time        total  log10-change:
                         energy  eigst   dens
iter:   1 16:17:06  -191.596181  -2.91
iter:   2 16:18:14  -212.889852  -2.97  -2.17
iter:   3 16:19:22  -191.197686  -3.25  -1.61
iter:   4 16:20:30  -190.389946  -4.24  -2.30
iter:   5 16:21:38  -190.322929  -4.88  -2.71
iter:   6 16:22:45  -190.334093c -5.47  -2.89
iter:   7 16:23:53  -190.309234c -5.67  -2.90
iter:   8 16:25:01  -190.296206c -5.31  -3.06
iter:   9 16:26:09  -190.308291c -5.74  -3.22
iter:  10 16:27:18  -190.297341c -6.17  -3.16
iter:  11 16:28:26  -190.292831c -6.16  -3.41
iter:  12 16:29:35  -190.298959c -6.48  -3.46
iter:  13 16:30:41  -190.294185c -6.21  -3.48
iter:  14 16:31:47  -190.293099c -6.63  -3.81
iter:  15 16:32:54  -190.294516c -6.72  -3.72
iter:  16 16:34:00  -190.294355c -7.05  -3.96
iter:  17 16:35:07  -190.293928c -7.41c -4.10c

Converged after 17 iterations.

Dipole moment: (-7.129602, 7.088032, -0.232968) |e|*Ang

Energy contributions relative to reference atoms: (reference = -12371328.023897)

Kinetic:       -229.519287
Potential:     +102.142686
External:        +0.000000
XC:             -55.088395
Entropy (-ST):   -1.881773
Local:           -6.888045
--------------------------
Free energy:   -191.234814
Extrapolated:  -190.293928

Showing only first 2 kpts
 Kpt  Band  Eigenvalues  Occupancy
  0   364      0.78003    0.92867
  0   365      0.78791    0.88960
  0   366      0.82682    0.70378
  0   367      0.86671    0.53411

  1   364      0.64334    1.54553
  1   365      0.68799    1.37030
  1   366      0.69424    1.34305
  1   367      0.71932    1.22802


Fermi level: 0.76574

No gap

Forces in eV/Ang:
  0 Pd    0.70886    0.06580    0.08971
  1 Pt   -0.60455   -0.15898    0.54588
  2 Ag   -0.09935   -0.08156   -0.56301
  3 Pd   -0.04838   -0.32894    0.20848
  4 Ag   -0.00611    0.03393   -0.57184
  5 Ag    0.14250    0.16864   -0.49905
  6 Ag    0.03910   -0.00600   -0.47610
  7 Pd    0.23758    0.34519    0.06392
  8 Pd   -0.12563    0.13740    0.19563
  9 Pd    0.00388    0.05569    0.00692
 10 Pd   -0.00839   -0.04240   -0.09440
 11 Pt   -0.05143   -0.16226    0.14546
 12 Ir    0.69190    0.16254   -0.00301
 13 Pt   -0.66149   -0.18813    0.28226
 14 Ag    0.09539   -0.01581    0.13387
 15 Pt   -0.25621    0.01455    0.20494
 16 Pd   -0.09043    0.25656    0.19054
 17 Pd    0.13093    0.00452    0.17991
 18 Ag    0.00984    0.00463    0.00054
 19 Ag   -0.06814    0.00574    0.02974
 20 Pt    0.02699   -0.01084   -0.06533
 21 Ru   -0.01920   -0.03529    0.05339
 22 Pd   -0.06195    0.03780    0.05127
 23 Pt    0.02124    0.04607    0.07390
 24 Pt    0.00378   -0.03832    0.03385
 25 Pt    0.00894   -0.04659   -0.02801
 26 Ag   -0.04360   -0.06904    0.05909
 27 Ag   -0.06358   -0.05366    0.07868
 28 Ag   -0.01438   -0.08798   -0.04033
 29 Pt    0.06647    0.00472   -0.02045
 30 Ag   -0.11501    0.00014    0.02080
 31 Pd    0.13092    0.01350   -0.24715
 32 Ru    0.04003   -0.00563    0.02403
 33 Pd    0.02999    0.07546   -0.03550
 34 Pt   -0.02042   -0.04264    0.13183
 35 Pd   -0.06281   -0.02245    0.06691
 36 Pt    0.05092    0.01153   -0.05665
 37 Pt    0.11955   -0.15302   -0.05915
 38 Ag    0.03977   -0.01214   -0.01210
 39 Pt    0.00387    0.00426   -0.27708
 40 Ru   -0.18987   -0.01292    0.12567
 41 Pt    0.02225   -0.07736   -0.07341
 42 Ir   -0.18070   -0.10775   -0.01431
 43 Pt    0.29040    0.07321   -0.03391
 44 Ag    0.00510    0.02293    0.00907
 45 H    -0.14141    0.21659   -0.21964

System changes: positions 

Initializing position-dependent things.

Density initialized from wave functions
                                             
                                             
                                             
                                             
                                             
                                             
                H Ir    Pt      Ag           
                                             
             Pt   PdRu   PPt    Pd           
       Pt     Pt     Ag                      
             Ag     Pd     Ru                
        Ag     Ag     Pt           Ag        
                     Pt     Pt               
                Ru     Pd     Pt             
                                             
           Ag    PAg    PPt    Pd            
                                             
            Ir     Pt    PAg    Pd           
       Pd    PPd    APt    Ag                
                                             
        Pd     Pt     Ag                     
                                             
                                             
                                             
                                             
                                             

Positions:
   0 Pd     0.000000    1.637674   10.000000    ( 0.0000,  0.0000,  0.0000)
   1 Pt     2.836535    1.637674   10.000000    ( 0.0000,  0.0000,  0.0000)
   2 Ag     5.673071    1.637674   10.000000    ( 0.0000,  0.0000,  0.0000)
   3 Pd     1.418268    4.094186   10.000000    ( 0.0000,  0.0000,  0.0000)
   4 Ag     4.254803    4.094186   10.000000    ( 0.0000,  0.0000,  0.0000)
   5 Ag     7.091338    4.094186   10.000000    ( 0.0000,  0.0000,  0.0000)
   6 Ag     2.836535    6.550698   10.000000    ( 0.0000,  0.0000,  0.0000)
   7 Pd     5.673071    6.550698   10.000000    ( 0.0000,  0.0000,  0.0000)
   8 Pd     8.509606    6.550698   10.000000    ( 0.0000,  0.0000,  0.0000)
   9 Pd     0.000000    0.000000   12.317643    ( 0.0000,  0.0000,  0.0000)
  10 Pd     2.836535    0.000000   12.317643    ( 0.0000,  0.0000,  0.0000)
  11 Pt     5.673071    0.000000   12.317643    ( 0.0000,  0.0000,  0.0000)
  12 Ir     1.418268    2.456512   12.317643    ( 0.0000,  0.0000,  0.0000)
  13 Pt     4.254803    2.456512   12.317643    ( 0.0000,  0.0000,  0.0000)
  14 Ag     7.091338    2.456512   12.317643    ( 0.0000,  0.0000,  0.0000)
  15 Pt     2.836535    4.913023   12.317643    ( 0.0000,  0.0000,  0.0000)
  16 Pd     5.673071    4.913023   12.317643    ( 0.0000,  0.0000,  0.0000)
  17 Pd     8.509606    4.913023   12.317643    ( 0.0000,  0.0000,  0.0000)
  18 Ag     1.382187    0.763423   14.615900    ( 0.0000,  0.0000,  0.0000)
  19 Ag     4.214533    0.782827   14.663140    ( 0.0000,  0.0000,  0.0000)
  20 Pt     7.052559    0.785036   14.661777    ( 0.0000,  0.0000,  0.0000)
  21 Ru     2.752969    3.300852   14.389481    ( 0.0000,  0.0000,  0.0000)
  22 Pd     5.593657    3.214072   14.654817    ( 0.0000,  0.0000,  0.0000)
  23 Pt     8.520781    3.248714   14.666237    ( 0.0000,  0.0000,  0.0000)
  24 Pt     4.167597    5.641550   14.634981    ( 0.0000,  0.0000,  0.0000)
  25 Pt     7.038521    5.602456   14.669492    ( 0.0000,  0.0000,  0.0000)
  26 Ag     9.874465    5.734843   14.700151    ( 0.0000,  0.0000,  0.0000)
  27 Ag     0.001963    1.599508   16.981635    ( 0.0000,  0.0000,  0.0000)
  28 Ag     2.784642    1.624716   16.923118    ( 0.0000,  0.0000,  0.0000)
  29 Pt     5.659592    1.629709   17.018610    ( 0.0000,  0.0000,  0.0000)
  30 Ag     1.348394    4.069575   17.071166    ( 0.0000,  0.0000,  0.0000)
  31 Pd     4.137027    4.031412   16.885222    ( 0.0000,  0.0000,  0.0000)
  32 Ru     6.944419    4.056765   16.864397    ( 0.0000,  0.0000,  0.0000)
  33 Pd     2.779764    6.546621   17.048368    ( 0.0000,  0.0000,  0.0000)
  34 Pt     5.650453    6.418574   16.903525    ( 0.0000,  0.0000,  0.0000)
  35 Pd     8.427521    6.491795   17.056896    ( 0.0000,  0.0000,  0.0000)
  36 Pt     0.089027   -0.043324   19.281531    ( 0.0000,  0.0000,  0.0000)
  37 Pt     2.819222    0.077008   19.263673    ( 0.0000,  0.0000,  0.0000)
  38 Ag     5.723387    0.005544   19.488010    ( 0.0000,  0.0000,  0.0000)
  39 Pt     1.511854    2.409496   19.539327    ( 0.0000,  0.0000,  0.0000)
  40 Ru     4.317281    2.561103   19.122938    ( 0.0000,  0.0000,  0.0000)
  41 Pt     7.145370    2.488814   19.227234    ( 0.0000,  0.0000,  0.0000)
  42 Ir     3.088785    4.864088   19.243691    ( 0.0000,  0.0000,  0.0000)
  43 Pt     5.728648    4.844704   19.167400    ( 0.0000,  0.0000,  0.0000)
  44 Ag     8.577176    4.907388   19.540580    ( 0.0000,  0.0000,  0.0000)
  45 H      2.837202    3.393468   20.319836    ( 0.0000,  0.0000,  0.0000)

Unit cell:
           periodic     x           y           z      points  spacing
  1. axis:    yes    8.509606    0.000000    0.000000    40     0.1842
  2. axis:    yes    4.254803    7.369535    0.000000    40     0.1842
  3. axis:    no     0.000000    0.000000   29.270571   140     0.2091

  Lengths:   8.509606   8.509606  29.270571
  Angles:   90.000000  90.000000  60.000000

Effective grid spacing dv^(1/3) = 0.2016

     iter     time        total  log10-change:
                         energy  eigst   dens
iter:   1 16:36:36  -191.918941  -4.35
iter:   2 16:37:41  -221.998093  -2.88  -2.12
iter:   3 16:38:47  -191.526575  -3.10  -1.55
iter:   4 16:39:53  -190.430183  -4.26  -2.26
iter:   5 16:40:58  -190.324012  -4.99  -2.72
iter:   6 16:42:05  -190.309379c -5.65  -3.10
iter:   7 16:43:12  -190.305414c -5.94  -3.48
iter:   8 16:44:19  -190.301728c -6.27  -3.72
iter:   9 16:45:27  -190.302478c -6.57  -3.47
iter:  10 16:46:35  -190.302654c -6.67  -3.85
iter:  11 16:47:42  -190.301872c -7.11  -4.13c
iter:  12 16:48:50  -190.302216c -7.33  -4.13c
iter:  13 16:49:57  -190.301940c -7.61c -4.29c

Converged after 13 iterations.

Dipole moment: (-7.082350, 7.162252, -0.236320) |e|*Ang

Energy contributions relative to reference atoms: (reference = -12371328.023897)

Kinetic:       -229.294394
Potential:     +101.959424
External:        +0.000000
XC:             -55.116058
Entropy (-ST):   -1.881264
Local:           -6.910280
--------------------------
Free energy:   -191.242572
Extrapolated:  -190.301940

Showing only first 2 kpts
 Kpt  Band  Eigenvalues  Occupancy
  0   364      0.77959    0.92864
  0   365      0.78782    0.88786
  0   366      0.82601    0.70544
  0   367      0.86628    0.53404

  1   364      0.64349    1.54346
  1   365      0.68725    1.37158
  1   366      0.69397    1.34227
  1   367      0.71890    1.22792


Fermi level: 0.76530

No gap

Forces in eV/Ang:
  0 Pd    0.71126    0.06528    0.09973
  1 Pt   -0.60816   -0.16408    0.55255
  2 Ag   -0.09807   -0.07979   -0.55275
  3 Pd   -0.05004   -0.33170    0.21211
  4 Ag   -0.00604    0.03389   -0.56442
  5 Ag    0.14382    0.16786   -0.48798
  6 Ag    0.04084   -0.00592   -0.46834
  7 Pd    0.24056    0.35050    0.07493
  8 Pd   -0.13308    0.13558    0.20250
  9 Pd    0.00456    0.06273    0.00739
 10 Pd   -0.01168   -0.04246   -0.08863
 11 Pt   -0.04954   -0.15953    0.15741
 12 Ir    0.68024    0.15741    0.00045
 13 Pt   -0.65491   -0.19230    0.28953
 14 Ag    0.09634   -0.01735    0.13537
 15 Pt   -0.25683    0.01982    0.21463
 16 Pd   -0.08795    0.25621    0.18981
 17 Pd    0.12973    0.00155    0.18509
 18 Ag    0.00960   -0.00335   -0.00387
 19 Ag   -0.05647   -0.00874    0.02239
 20 Pt    0.01105   -0.00769   -0.05425
 21 Ru   -0.01960   -0.03282    0.03724
 22 Pd   -0.04151    0.01796    0.02916
 23 Pt    0.01629    0.03736    0.05695
 24 Pt    0.00074   -0.01839    0.01782
 25 Pt    0.01258   -0.02672   -0.01827
 26 Ag   -0.04537   -0.04814    0.05110
 27 Ag   -0.04109   -0.03832    0.06420
 28 Ag   -0.00808   -0.07589   -0.04338
 29 Pt    0.04157    0.00499   -0.01769
 30 Ag   -0.10388    0.01137    0.01281
 31 Pd    0.09735   -0.00330   -0.19613
 32 Ru    0.04522    0.00779    0.03249
 33 Pd    0.00935    0.04112   -0.03519
 34 Pt    0.00193   -0.04235    0.10084
 35 Pd   -0.04738   -0.02550    0.05315
 36 Pt    0.06236    0.00164   -0.01663
 37 Pt    0.10110   -0.12231   -0.01607
 38 Ag    0.02334   -0.01657    0.00605
 39 Pt    0.01464    0.01657   -0.26061
 40 Ru   -0.16092    0.00915    0.09935
 41 Pt    0.01012   -0.04325   -0.04288
 42 Ir   -0.13330   -0.10418   -0.01081
 43 Pt    0.22452    0.03907    0.00051
 44 Ag    0.00636    0.00978    0.02871
 45 H    -0.14003    0.20418   -0.17893

System changes: positions 

Initializing position-dependent things.

Density initialized from wave functions
                                             
                                             
                                             
                                             
                                             
                                             
                H Ir     Pt     Ag           
                                             
            Pt    PdRu   PPt    Pd           
       Pt    APt     Ag                      
                    Pd     Ru                
        Ag     Ag     Pt           Ag        
                     Pt     Pt               
                Ru     Pd     Pt             
                                             
           Ag    PAg    PPt    Pd            
                                             
            Ir     Pt    PAg    Pd           
       Pd    PPd    APt    Ag                
                                             
        Pd     Pt     Ag                     
                                             
                                             
                                             
                                             
                                             

Positions:
   0 Pd     0.000000    1.637674   10.000000    ( 0.0000,  0.0000,  0.0000)
   1 Pt     2.836535    1.637674   10.000000    ( 0.0000,  0.0000,  0.0000)
   2 Ag     5.673071    1.637674   10.000000    ( 0.0000,  0.0000,  0.0000)
   3 Pd     1.418268    4.094186   10.000000    ( 0.0000,  0.0000,  0.0000)
   4 Ag     4.254803    4.094186   10.000000    ( 0.0000,  0.0000,  0.0000)
   5 Ag     7.091338    4.094186   10.000000    ( 0.0000,  0.0000,  0.0000)
   6 Ag     2.836535    6.550698   10.000000    ( 0.0000,  0.0000,  0.0000)
   7 Pd     5.673071    6.550698   10.000000    ( 0.0000,  0.0000,  0.0000)
   8 Pd     8.509606    6.550698   10.000000    ( 0.0000,  0.0000,  0.0000)
   9 Pd     0.000000    0.000000   12.317643    ( 0.0000,  0.0000,  0.0000)
  10 Pd     2.836535    0.000000   12.317643    ( 0.0000,  0.0000,  0.0000)
  11 Pt     5.673071    0.000000   12.317643    ( 0.0000,  0.0000,  0.0000)
[...]
  12 Ir     1.418268    2.456512   12.317643    ( 0.0000,  0.0000,  0.0000)
  13 Pt     4.254803    2.456512   12.317643    ( 0.0000,  0.0000,  0.0000)
  14 Ag     7.091338    2.456512   12.317643    ( 0.0000,  0.0000,  0.0000)
  15 Pt     2.836535    4.913023   12.317643    ( 0.0000,  0.0000,  0.0000)
  16 Pd     5.673071    4.913023   12.317643    ( 0.0000,  0.0000,  0.0000)
  17 Pd     8.509606    4.913023   12.317643    ( 0.0000,  0.0000,  0.0000)
  18 Ag     1.372686    0.746152   14.618600    ( 0.0000,  0.0000,  0.0000)
  19 Ag     4.206352    0.766471   14.664780    ( 0.0000,  0.0000,  0.0000)
  20 Pt     7.039250    0.783263   14.648281    ( 0.0000,  0.0000,  0.0000)
  21 Ru     2.744318    3.291401   14.387488    ( 0.0000,  0.0000,  0.0000)
  22 Pd     5.591557    3.203408   14.645680    ( 0.0000,  0.0000,  0.0000)
  23 Pt     8.514898    3.241085   14.678981    ( 0.0000,  0.0000,  0.0000)
  24 Pt     4.160948    5.637249   14.627906    ( 0.0000,  0.0000,  0.0000)
  25 Pt     7.027957    5.592267   14.676667    ( 0.0000,  0.0000,  0.0000)
  26 Ag     9.858750    5.722976   14.711362    ( 0.0000,  0.0000,  0.0000)
  27 Ag    -0.008838    1.570497   16.973445    ( 0.0000,  0.0000,  0.0000)
  28 Ag     2.782529    1.586828   16.902788    ( 0.0000,  0.0000,  0.0000)
  29 Pt     5.653185    1.621317   17.027283    ( 0.0000,  0.0000,  0.0000)
  30 Ag     1.332470    4.065170   17.061690    ( 0.0000,  0.0000,  0.0000)
  31 Pd     4.136785    4.002451   16.834546    ( 0.0000,  0.0000,  0.0000)
  32 Ru     6.947853    4.041677   16.870317    ( 0.0000,  0.0000,  0.0000)
  33 Pd     2.773145    6.550043   17.017652    ( 0.0000,  0.0000,  0.0000)
  34 Pt     5.648896    6.384183   16.927086    ( 0.0000,  0.0000,  0.0000)
  35 Pd     8.418590    6.469672   17.083253    ( 0.0000,  0.0000,  0.0000)
  36 Pt     0.127261   -0.068531   19.275313    ( 0.0000,  0.0000,  0.0000)
  37 Pt     2.870524    0.049583   19.293094    ( 0.0000,  0.0000,  0.0000)
  38 Ag     5.759048   -0.009947   19.499460    ( 0.0000,  0.0000,  0.0000)
  39 Pt     1.508330    2.363773   19.413891    ( 0.0000,  0.0000,  0.0000)
  40 Ru     4.283793    2.555262   19.115330    ( 0.0000,  0.0000,  0.0000)
  41 Pt     7.157841    2.470473   19.218203    ( 0.0000,  0.0000,  0.0000)
  42 Ir     3.116928    4.887751   19.181342    ( 0.0000,  0.0000,  0.0000)
  43 Pt     5.778355    4.812083   19.190217    ( 0.0000,  0.0000,  0.0000)
  44 Ag     8.611407    4.884548   19.585967    ( 0.0000,  0.0000,  0.0000)
  45 H      2.645608    3.558461   20.221997    ( 0.0000,  0.0000,  0.0000)

Unit cell:
           periodic     x           y           z      points  spacing
  1. axis:    yes    8.509606    0.000000    0.000000    40     0.1842
  2. axis:    yes    4.254803    7.369535    0.000000    40     0.1842
  3. axis:    no     0.000000    0.000000   29.270571   140     0.2091

  Lengths:   8.509606   8.509606  29.270571
  Angles:   90.000000  90.000000  60.000000

Effective grid spacing dv^(1/3) = 0.2016

     iter     time        total  log10-change:
                         energy  eigst   dens
iter:   1 18:54:50  -190.754033  -3.48
iter:   2 18:55:57  -198.056086  -3.55  -2.44
iter:   3 18:57:05  -190.413921  -3.73  -1.82
iter:   4 18:58:11  -190.415914  -5.22  -2.90
iter:   5 18:59:17  -190.382817c -5.67  -3.04
iter:   6 19:00:25  -190.382792c -6.17  -3.30
iter:   7 19:01:32  -190.380204c -6.32  -3.40
iter:   8 19:02:38  -190.394206c -6.18  -3.36
iter:   9 19:03:44  -190.382283c -6.30  -3.23
iter:  10 19:04:50  -190.379164c -6.72  -3.65
iter:  11 19:05:55  -190.381287c -6.99  -3.66
iter:  12 19:07:01  -190.381762c -7.14  -3.76
iter:  13 19:08:08  -190.379383c -7.09  -3.80
iter:  14 19:09:14  -190.380254c -7.07  -3.94
iter:  15 19:10:21  -190.380520c -7.42c -4.01c

Converged after 15 iterations.

Dipole moment: (-10.267098, 8.722650, -0.216715) |e|*Ang

Energy contributions relative to reference atoms: (reference = -12371328.023897)

Kinetic:       -225.585802
Potential:      +98.931580
External:        +0.000000
XC:             -55.876309
Entropy (-ST):   -1.865356
Local:           -6.917311
--------------------------
Free energy:   -191.313198
Extrapolated:  -190.380520

Showing only first 2 kpts
 Kpt  Band  Eigenvalues  Occupancy
  0   364      0.78757    0.94395
  0   365      0.79884    0.88806
  0   366      0.83556    0.71231
  0   367      0.87439    0.54563

  1   364      0.65486    1.54233
  1   365      0.69218    1.39765
  1   366      0.70330    1.34983
  1   367      0.72306    1.26035


Fermi level: 0.77635

No gap

Forces in eV/Ang:
  0 Pd    0.70528    0.06481    0.10165
  1 Pt   -0.60350   -0.16122    0.55929
  2 Ag   -0.09644   -0.07867   -0.55499
  3 Pd   -0.04696   -0.33143    0.22460
  4 Ag   -0.00474    0.03409   -0.56456
  5 Ag    0.14303    0.16795   -0.48904
  6 Ag    0.04242   -0.00525   -0.46890
  7 Pd    0.24037    0.34709    0.07947
  8 Pd   -0.13073    0.13625    0.20435
  9 Pd   -0.00771    0.06576   -0.01051
 10 Pd   -0.02151   -0.05238   -0.07925
 11 Pt   -0.06437   -0.18823    0.15619
 12 Ir    0.65744    0.12900    0.00916
 13 Pt   -0.66962   -0.21377    0.28054
 14 Ag    0.11721   -0.00592    0.10334
 15 Pt   -0.28994    0.01557    0.21075
 16 Pd   -0.08189    0.26098    0.18164
 17 Pd    0.12503   -0.00279    0.20717
 18 Ag    0.00275    0.00848   -0.02348
 19 Ag   -0.03792    0.01948    0.00262
 20 Pt    0.05428   -0.04264   -0.00782
 21 Ru    0.00152   -0.03624    0.02774
 22 Pd   -0.02575    0.00664    0.04105
 23 Pt    0.02136    0.01275   -0.02008
 24 Pt    0.00139    0.01702    0.01774
 25 Pt    0.03814   -0.00892   -0.02290
 26 Ag   -0.00829   -0.02092   -0.03332
 27 Ag   -0.00221    0.00024   -0.03733
 28 Ag   -0.01898   -0.01842    0.00629
 29 Pt    0.00985   -0.01141   -0.02490
 30 Ag    0.00748   -0.03599    0.01785
 31 Pd    0.01205    0.00435    0.06542
 32 Ru   -0.00114   -0.03406   -0.01531
 33 Pd    0.02366    0.01901   -0.00170
 34 Pt   -0.03642    0.01059   -0.00144
 35 Pd   -0.00107   -0.01646   -0.00883
 36 Pt   -0.00840    0.01015    0.01141
 37 Pt    0.01085    0.01701   -0.03072
 38 Ag    0.00355    0.02163   -0.00405
 39 Pt    0.05378    0.01862    0.11647
 40 Ru   -0.01385    0.08375    0.04234
 41 Pt    0.00513   -0.06266    0.01183
 42 Ir    0.07419   -0.19937    0.08285
 43 Pt   -0.06449   -0.00200   -0.01885
 44 Ag   -0.01487    0.03948   -0.06407
 45 H    -0.07273    0.05211    0.05071

System changes: positions 

Initializing position-dependent things.

Density initialized from wave functions
                                             
                                             
                                             
                                             
                                             
                                             
                H Ir     Pt     Ag           
             Pt                              
                  PRu    PPt    Pd           
        Pt   APt    PAg    Ru                
                                             
        Ag     Ag    PPt    Pt     Ag        
                                             
                Ru     Pd     Pt             
           Ag    PAg    PPt    Pd            
                                             
            Ir     Pt     Ag    Pd           
       Pd     Pd     Pt                      
             Pd     Ag     Ag                
        Pd     Pt     Ag                     
                                             
                                             
                                             
                                             
                                             

Positions:
   0 Pd     0.000000    1.637674   10.000000    ( 0.0000,  0.0000,  0.0000)
   1 Pt     2.836535    1.637674   10.000000    ( 0.0000,  0.0000,  0.0000)
   2 Ag     5.673071    1.637674   10.000000    ( 0.0000,  0.0000,  0.0000)
   3 Pd     1.418268    4.094186   10.000000    ( 0.0000,  0.0000,  0.0000)
   4 Ag     4.254803    4.094186   10.000000    ( 0.0000,  0.0000,  0.0000)
   5 Ag     7.091338    4.094186   10.000000    ( 0.0000,  0.0000,  0.0000)
   6 Ag     2.836535    6.550698   10.000000    ( 0.0000,  0.0000,  0.0000)
   7 Pd     5.673071    6.550698   10.000000    ( 0.0000,  0.0000,  0.0000)
   8 Pd     8.509606    6.550698   10.000000    ( 0.0000,  0.0000,  0.0000)
   9 Pd     0.000000    0.000000   12.317643    ( 0.0000,  0.0000,  0.0000)
  10 Pd     2.836535    0.000000   12.317643    ( 0.0000,  0.0000,  0.0000)
  11 Pt     5.673071    0.000000   12.317643    ( 0.0000,  0.0000,  0.0000)
  12 Ir     1.418268    2.456512   12.317643    ( 0.0000,  0.0000,  0.0000)
  13 Pt     4.254803    2.456512   12.317643    ( 0.0000,  0.0000,  0.0000)
  14 Ag     7.091338    2.456512   12.317643    ( 0.0000,  0.0000,  0.0000)
  15 Pt     2.836535    4.913023   12.317643    ( 0.0000,  0.0000,  0.0000)
  16 Pd     5.673071    4.913023   12.317643    ( 0.0000,  0.0000,  0.0000)
  17 Pd     8.509606    4.913023   12.317643    ( 0.0000,  0.0000,  0.0000)
  18 Ag     1.373433    0.747300   14.618067    ( 0.0000,  0.0000,  0.0000)
  19 Ag     4.205998    0.767691   14.664789    ( 0.0000,  0.0000,  0.0000)
  20 Pt     7.040835    0.782850   14.648753    ( 0.0000,  0.0000,  0.0000)
  21 Ru     2.744698    3.291309   14.388132    ( 0.0000,  0.0000,  0.0000)
  22 Pd     5.591040    3.204318   14.646975    ( 0.0000,  0.0000,  0.0000)
  23 Pt     8.515593    3.242053   14.678362    ( 0.0000,  0.0000,  0.0000)
  24 Pt     4.161379    5.637487   14.628621    ( 0.0000,  0.0000,  0.0000)
  25 Pt     7.029201    5.592515   14.675846    ( 0.0000,  0.0000,  0.0000)
  26 Ag     9.859270    5.723073   14.710489    ( 0.0000,  0.0000,  0.0000)
  27 Ag    -0.008490    1.572101   16.973995    ( 0.0000,  0.0000,  0.0000)
  28 Ag     2.782251    1.588325   16.903757    ( 0.0000,  0.0000,  0.0000)
  29 Pt     5.654127    1.621603   17.026168    ( 0.0000,  0.0000,  0.0000)
  30 Ag     1.332844    4.065061   17.062560    ( 0.0000,  0.0000,  0.0000)
  31 Pd     4.137714    4.004394   16.836707    ( 0.0000,  0.0000,  0.0000)
  32 Ru     6.948040    4.042163   16.870031    ( 0.0000,  0.0000,  0.0000)
  33 Pd     2.773969    6.550393   17.019220    ( 0.0000,  0.0000,  0.0000)
  34 Pt     5.648604    6.386031   16.926375    ( 0.0000,  0.0000,  0.0000)
  35 Pd     8.418732    6.470511   17.082109    ( 0.0000,  0.0000,  0.0000)
  36 Pt     0.125310   -0.066775   19.275646    ( 0.0000,  0.0000,  0.0000)
  37 Pt     2.868284    0.050505   19.290746    ( 0.0000,  0.0000,  0.0000)
  38 Ag     5.756988   -0.008932   19.498746    ( 0.0000,  0.0000,  0.0000)
  39 Pt     1.508776    2.366746   19.420174    ( 0.0000,  0.0000,  0.0000)
  40 Ru     4.284442    2.556611   19.116475    ( 0.0000,  0.0000,  0.0000)
  41 Pt     7.157399    2.470628   19.218592    ( 0.0000,  0.0000,  0.0000)
  42 Ir     3.114801    4.883596   19.185312    ( 0.0000,  0.0000,  0.0000)
  43 Pt     5.776430    4.814429   19.188555    ( 0.0000,  0.0000,  0.0000)
  44 Ag     8.609042    4.886435   19.582474    ( 0.0000,  0.0000,  0.0000)
  45 H      2.656004    3.549721   20.229898    ( 0.0000,  0.0000,  0.0000)

Unit cell:
           periodic     x           y           z      points  spacing
  1. axis:    yes    8.509606    0.000000    0.000000    40     0.1842
  2. axis:    yes    4.254803    7.369535    0.000000    40     0.1842
  3. axis:    no     0.000000    0.000000   29.270571   140     0.2091

  Lengths:   8.509606   8.509606  29.270571
  Angles:   90.000000  90.000000  60.000000

Effective grid spacing dv^(1/3) = 0.2016

     iter     time        total  log10-change:
                         energy  eigst   dens
iter:   1 19:11:49  -190.555470  -4.55
iter:   2 19:12:54  -191.447084  -4.06  -2.63
iter:   3 19:13:59  -191.024676  -4.26  -2.24
iter:   4 19:15:06  -190.388693  -4.88  -2.36
iter:   5 19:16:13  -190.380640  -6.35  -3.55
iter:   6 19:17:21  -190.381916c -7.10  -3.91
iter:   7 19:18:30  -190.381208c -7.46c -4.07c

Converged after 7 iterations.

Dipole moment: (-10.114279, 8.639804, -0.215181) |e|*Ang

Energy contributions relative to reference atoms: (reference = -12371328.023897)

Kinetic:       -225.985984
Potential:      +99.291623
External:        +0.000000
XC:             -55.813776
Entropy (-ST):   -1.866594
Local:           -6.939774
--------------------------
Free energy:   -191.314505
Extrapolated:  -190.381208

Showing only first 2 kpts
 Kpt  Band  Eigenvalues  Occupancy
  0   364      0.78655    0.94123
  0   365      0.79707    0.88900
  0   366      0.83427    0.71101
  0   367      0.87315    0.54433

  1   364      0.65355    1.54141
  1   365      0.69109    1.39562
  1   366      0.70163    1.35026
  1   367      0.72181    1.25884


Fermi level: 0.77478

No gap

Forces in eV/Ang:
  0 Pd    0.70730    0.06641    0.09040
  1 Pt   -0.60391   -0.16438    0.54217
  2 Ag   -0.09770   -0.08034   -0.56585
  3 Pd   -0.04918   -0.32815    0.20976
  4 Ag   -0.00478    0.03532   -0.57411
  5 Ag    0.14449    0.16779   -0.49736
  6 Ag    0.04034   -0.00654   -0.47964
  7 Pd    0.24084    0.34776    0.06505
  8 Pd   -0.12874    0.13659    0.18991
  9 Pd   -0.00268    0.05817   -0.01252
 10 Pd   -0.01650   -0.04981   -0.07986
 11 Pt   -0.07547   -0.19111    0.16721
 12 Ir    0.66055    0.14559    0.02459
 13 Pt   -0.66881   -0.20874    0.29273
 14 Ag    0.11666    0.00541    0.12276
 15 Pt   -0.29059    0.00771    0.23008
 16 Pd   -0.08495    0.25197    0.19248
 17 Pd    0.12843   -0.01193    0.22081
 18 Ag    0.00504    0.00589   -0.02379
 19 Ag   -0.01929    0.00537   -0.00054
 20 Pt    0.00702   -0.01341    0.00737
 21 Ru   -0.00360   -0.01612    0.00225
 22 Pd   -0.00338   -0.01703   -0.00254
 23 Pt    0.00247    0.00057   -0.04492
 24 Pt   -0.00879   -0.02108   -0.00398
 25 Pt    0.01388   -0.02232   -0.01681
 26 Ag   -0.00666   -0.01844   -0.03748
 27 Ag   -0.01427   -0.01035   -0.03334
 28 Ag   -0.00277   -0.02517    0.00421
 29 Pt   -0.00482   -0.02120   -0.02596
 30 Ag    0.01729   -0.03135    0.02941
 31 Pd   -0.00609   -0.02492   -0.01259
 32 Ru   -0.02397   -0.04917   -0.00626
 33 Pd    0.00547    0.01092   -0.03326
 34 Pt   -0.02276   -0.03021   -0.01025
 35 Pd    0.00680   -0.00693    0.00012
 36 Pt    0.00423    0.00038   -0.02376
 37 Pt    0.03951    0.01472   -0.03982
 38 Ag    0.00582   -0.01629   -0.01665
 39 Pt   -0.03705    0.00103    0.05756
 40 Ru   -0.00411   -0.02434   -0.06750
 41 Pt    0.06620   -0.01876   -0.00883
 42 Ir   -0.05552   -0.07198    0.02800
 43 Pt    0.02034   -0.01692   -0.06160
 44 Ag    0.00938   -0.00002   -0.03393
 45 H    -0.01019    0.00591    0.08171

Timing:                                      incl.     excl.
-------------------------------------------------------------------
Density initialized from wave functions:    56.340    56.339   0.3% |
 Symmetrize density:                         0.001     0.001   0.0% |
Forces:                                    269.030   269.030   1.4% ||
Hamiltonian:                                31.601     0.193   0.0% |
 Atomic:                                     1.388     0.114   0.0% |
  XC Correction:                             1.273     1.273   0.0% |
 Calculate atomic Hamiltonians:             18.235    18.235   0.1% |
 Communicate:                                5.512     5.512   0.0% |
 Initialize Hamiltonian:                     0.000     0.000   0.0% |
 Poisson:                                    0.104     0.104   0.0% |
 XC 3D grid:                                 6.170     6.170   0.0% |
LCAO initialization:                       133.936     2.426   0.0% |
 LCAO eigensolver:                          14.633     0.001   0.0% |
  Blacs Orbital Layouts:                     0.284     0.000   0.0% |
   General diagonalize:                      0.279     0.279   0.0% |
   Redistribute coefs:                       0.004     0.004   0.0% |
   Send coefs to domains:                    0.002     0.002   0.0% |
  Calculate projections:                     0.004     0.004   0.0% |
  Distribute overlap matrix:                13.570     0.000   0.0% |
   Scalapack redistribute:                   0.008     0.008   0.0% |
   blocked summation:                       13.561    13.561   0.1% |
  Potential matrix:                          0.734     0.734   0.0% |
  SparseAtomicCorrection:                    0.004     0.004   0.0% |
  Sum over cells:                            0.036     0.036   0.0% |
 LCAO to grid:                             113.722   113.722   0.6% |
 Set positions (LCAO WFS):                   3.156     0.011   0.0% |
  Basic WFS set positions:                   0.003     0.003   0.0% |
  Basis functions set positions:             0.000     0.000   0.0% |
  P tci:                                     0.000     0.000   0.0% |
  ST tci:                                    0.282     0.282   0.0% |
  Scalapack redistribute:                    0.007     0.007   0.0% |
  blocked summation:                         2.747     2.747   0.0% |
  mktci:                                     0.106     0.106   0.0% |
PWDescriptor:                                0.637     0.637   0.0% |
Redistribute:                                0.016     0.016   0.0% |
SCF-cycle:                               18540.452  1038.870   5.4% |-|
 Davidson:                               16184.558  3751.055  19.6% |-------|
  Apply H:                                1634.766  1599.346   8.4% |--|
   HMM T:                                   35.420    35.420   0.2% |
  Subspace diag:                          1888.069     0.048   0.0% |
   calc_h_matrix:                         1244.392   361.377   1.9% ||
    Apply H:                               883.014   862.682   4.5% |-|
     HMM T:                                 20.332    20.332   0.1% |
   diagonalize:                             66.693    66.693   0.3% |
   rotate_psi:                             576.936   576.936   3.0% ||
  calc. matrices:                         6207.779  3818.855  20.0% |-------|
   Apply H:                               2388.924  2336.056  12.2% |----|
    HMM T:                                  52.868    52.868   0.3% |
  diagonalize:                             899.171   899.171   4.7% |-|
  rotate_psi:                             1803.718  1803.718   9.4% |---|
 Density:                                  800.890     0.010   0.0% |
  Atomic density matrices:                   5.079     5.079   0.0% |
  Mix:                                     276.093   276.093   1.4% ||
  Multipole moments:                         0.429     0.429   0.0% |
  Pseudo density:                          519.279   519.267   2.7% ||
   Symmetrize density:                       0.011     0.011   0.0% |
 Hamiltonian:                              442.609     2.573   0.0% |
  Atomic:                                   18.593     1.067   0.0% |
   XC Correction:                           17.526    17.526   0.1% |
  Calculate atomic Hamiltonians:           241.546   241.546   1.3% ||
  Communicate:                              87.237    87.237   0.5% |
  Poisson:                                   1.386     1.386   0.0% |
  XC 3D grid:                               91.274    91.274   0.5% |
 Orthonormalize:                            73.525     0.005   0.0% |
  calc_s_matrix:                            11.909    11.909   0.1% |
  inverse-cholesky:                          3.624     3.624   0.0% |
  projections:                              38.116    38.116   0.2% |
  rotate_psi_s:                             19.871    19.871   0.1% |
Set symmetry:                                0.003     0.003   0.0% |
Other:                                      91.655    91.655   0.5% |
-------------------------------------------------------------------
Total:                                             19123.670 100.0%

Memory usage: 853.87 MiB
Date: Fri Jun 14 19:18:46 2024
