
  ___ ___ ___ _ _ _  
 |   |   |_  | | | | 
 | | | | | . | | | | 
 |__ |  _|___|_____|  22.1.0
 |___|_|             

User:   clausen@node492.cluster
Date:   Thu Jun 13 21:54:50 2024
Arch:   x86_64
Pid:    36284
Python: 3.10.4
gpaw:   /groups/kemi/clausen/miniconda3/envs/gpaw22/lib/python3.10/site-packages/gpaw
_gpaw:  /groups/kemi/clausen/miniconda3/envs/gpaw22/lib/python3.10/site-packages/
        _gpaw.cpython-310-x86_64-linux-gnu.so
ase:    /groups/kemi/clausen/miniconda3/envs/gpaw22/lib/python3.10/site-packages/ase (version 3.22.1)
numpy:  /groups/kemi/clausen/miniconda3/envs/gpaw22/lib/python3.10/site-packages/numpy (version 1.23.1)
scipy:  /groups/kemi/clausen/miniconda3/envs/gpaw22/lib/python3.10/site-packages/scipy (version 1.8.1)
libxc:  5.2.3
units:  Angstrom and eV
cores: 24
OpenMP: True
OMP_NUM_THREADS: 1

Input parameters:
  eigensolver: {name: dav,
                niter: 3}
  kpts: [4 4 1]
  mixer: {backend: pulay,
          beta: 0.05,
          method: difference,
          nmaxold: 5,
          weight: 50.0}
  mode: {ecut: 400.0,
         name: pw}
  xc: RPBE

System changes: positions, numbers, cell, pbc, initial_charges, initial_magmoms 

Initialize ...

Pd-setup:
  name: Palladium
  id: 6da19bfba079f22767af9506641940b9
  Z: 46.0
  valence: 16
  core: 30
  charge: 0.0
  file: /groups/kemi/clausen/miniconda3/envs/gpaw22/share/gpaw/Pd.RPBE.gz
  compensation charges: gauss, rc=0.38, lmax=2
  cutoffs: 2.38(filt), 2.28(core),
  valence states:
                energy  radius
    5s(0.00)    -3.225   1.228
    4p(6.00)   -51.131   1.360
    5p(0.00)    -0.373   1.360
    4d(10.00)    -3.964   1.228
    *s          23.987   1.228
    *d          23.247   1.228

  Using partial waves for Pd as LCAO basis

Pt-setup:
  name: Platinum
  id: f04f522592575c47ad794f6b4a415b4b
  Z: 78.0
  valence: 16
  core: 62
  charge: 0.0
  file: /groups/kemi/clausen/miniconda3/envs/gpaw22/share/gpaw/Pt.RPBE.gz
  compensation charges: gauss, rc=0.41, lmax=2
  cutoffs: 2.26(filt), 2.26(core),
  valence states:
                energy  radius
    6s(1.00)    -5.516   1.307
    5p(6.00)   -55.971   1.371
    6p(0.00)    -0.856   1.371
    5d(9.00)    -6.087   1.307
    *s          21.695   1.307
    *d          21.125   1.307

  Using partial waves for Pt as LCAO basis

Ag-setup:
  name: Silver
  id: c05e55bab2c3858b3f9398f6d75cb77c
  Z: 47.0
  valence: 17
  core: 30
  charge: 0.0
  file: /groups/kemi/clausen/miniconda3/envs/gpaw22/share/gpaw/Ag.RPBE.gz
  compensation charges: gauss, rc=0.40, lmax=2
  cutoffs: 2.35(filt), 2.19(core),
  valence states:
                energy  radius
    5s(1.00)    -4.277   1.286
    4p(6.00)   -58.523   1.328
    5p(0.00)    -0.755   1.328
    4d(10.00)    -7.386   1.180
    *s          22.934   1.286
    *d          19.826   1.180

  Using partial waves for Ag as LCAO basis

Ir-setup:
  name: Iridium
  id: 73b603359d1d5397a85ae3c2440f9033
  Z: 77.0
  valence: 15
  core: 62
  charge: 0.0
  file: /groups/kemi/clausen/miniconda3/envs/gpaw22/share/gpaw/Ir.RPBE.gz
  compensation charges: gauss, rc=0.40, lmax=2
  cutoffs: 2.40(filt), 2.36(core),
  valence states:
                energy  radius
    6s(2.00)    -6.219   1.296
    5p(6.00)   -54.684   1.328
    6p(0.00)    -1.215   1.328
    5d(7.00)    -7.118   1.286
    *s          20.992   1.296
    *d          20.093   1.286

  Using partial waves for Ir as LCAO basis

Ru-setup:
  name: Ruthenium
  id: 76477906e28f51dc1b29884d53556fe9
  Z: 44.0
  valence: 16
  core: 28
  charge: 0.0
  file: /groups/kemi/clausen/miniconda3/envs/gpaw22/share/gpaw/Ru.RPBE.gz
  compensation charges: gauss, rc=0.39, lmax=2
  cutoffs: 2.16(filt), 1.30(core),
  valence states:
                energy  radius
    4s(2.00)   -76.255   1.281
    5s(1.00)    -4.126   1.281
    4p(6.00)   -46.371   1.286
    5p(0.00)    -0.913   1.286
    4d(7.00)    -5.146   1.254
    *d          22.066   1.254

  Using partial waves for Ru as LCAO basis

O-setup:
  name: Oxygen
  id: 08071ca1eed670e7821b24b7eb4d558c
  Z: 8.0
  valence: 6
  core: 2
  charge: 0.0
  file: /groups/kemi/clausen/miniconda3/envs/gpaw22/share/gpaw/O.RPBE.gz
  compensation charges: gauss, rc=0.21, lmax=2
  cutoffs: 1.17(filt), 0.83(core),
  valence states:
                energy  radius
    2s(2.00)   -24.041   0.688
    2p(4.00)    -8.984   0.598
    *s           3.170   0.688
    *p          18.228   0.598
    *d           0.000   0.619

  Using partial waves for O as LCAO basis

H-setup:
  name: Hydrogen
  id: ea3f9156a1dc40d47a60fdce8f8bd75d
  Z: 1.0
  valence: 1
  core: 0
  charge: 0.0
  file: /groups/kemi/clausen/miniconda3/envs/gpaw22/share/gpaw/H.RPBE.gz
  compensation charges: gauss, rc=0.15, lmax=2
  cutoffs: 0.85(filt), 0.53(core),
  valence states:
                energy  radius
    1s(1.00)    -6.572   0.476
    *s          20.639   0.476
    *p           0.000   0.476

  Using partial waves for H as LCAO basis

Reference energy: -12373371.003080

Spin-paired calculation

Convergence criteria:
 Maximum [total energy] change in last 3 cyles: 0.0005 eV / electron
 Maximum integral of absolute [dens]ity change: 0.0001 electrons / valence electron
 Maximum integral of absolute [eigenst]ate change: 4e-08 eV^2 / valence electron
 Maximum number of scf [iter]ations: 333
 (Square brackets indicate name in SCF output, whereas a 'c' in
 the SCF output indicates the quantity has converged.)

Symmetries present (total): 1

  ( 1  0  0)
  ( 0  1  0)
  ( 0  0  1)

16 k-points: 4 x 4 x 1 Monkhorst-Pack grid
8 k-points in the irreducible part of the Brillouin zone
       k-points in crystal coordinates                weights
   0:     0.12500000   -0.37500000    0.00000000          2/16
   1:     0.12500000   -0.12500000    0.00000000          2/16
   2:     0.12500000    0.12500000    0.00000000          2/16
   3:     0.12500000    0.37500000    0.00000000          2/16
   4:     0.37500000   -0.37500000    0.00000000          2/16
   5:     0.37500000   -0.12500000    0.00000000          2/16
   6:     0.37500000    0.12500000    0.00000000          2/16
   7:     0.37500000    0.37500000    0.00000000          2/16

Wave functions: Plane wave expansion
  Cutoff energy: 400.000 eV
  Number of coefficients (min, max): 33288, 33380
  Pulay-stress correction: 0.000000 eV/Ang^3 (de/decut=0.000000)
  Using FFTW library
  ScaLapack parameters: grid=3x1, blocksize=64
  Wavefunction extrapolation:
    Improved wavefunction reuse through dual PAW basis 

Occupation numbers: Fermi-Dirac: width=0.1000 eV
 

Eigensolver
   Davidson(niter=3) 

Densities:
  Coarse grid: 40*40*140 grid
  Fine grid: 80*80*280 grid
  Total Charge: 0.000000 

Density mixing:
  Method: separate
  Backend: pulay
  Linear mixing parameter: 0.05
  Mixing with 5 old densities
  Damping of long wave oscillations: 50 

Hamiltonian:
  XC and Coulomb potentials evaluated on a 80*80*280 grid
  Using the RPBE Exchange-Correlation functional
  External potential:
    NoExternalPotential
 

XC parameters: RPBE with 2 nearest neighbor stencil

Memory estimate:
  Process memory now: 194.48 MiB
  Calculator: 564.18 MiB
    Density: 50.39 MiB
      Arrays: 14.92 MiB
      Localized functions: 29.74 MiB
      Mixer: 5.74 MiB
    Hamiltonian: 10.71 MiB
      Arrays: 9.75 MiB
      XC: 0.00 MiB
      Poisson: 0.00 MiB
      vbar: 0.96 MiB
    Wavefunctions: 503.07 MiB
      Arrays psit_nG: 227.67 MiB
      Eigensolver: 260.72 MiB
      Projections: 1.88 MiB
      Projectors: 3.99 MiB
      PW-descriptor: 8.80 MiB

Total number of cores used: 24
Parallelization over k-points: 8
Domain decomposition: 1 x 1 x 3
                      2 x 2 x 6 (xc only)

Number of atoms: 47
Number of atomic orbitals: 548
Number of bands in calculation: 447
Number of valence electrons: 738
Bands to converge: occupied

... initialized

Initializing position-dependent things.

Density initialized from atomic densities
Creating initial wave functions:
  447 bands from LCAO basis set

                                             
                                             
                                             
                                             
                                             
                                             
                     H                       
                   O                         
                  Ir    Pt     Ag            
                                             
             Pt   PRu    PPt    Pd           
              Pt     Ag                      
       Pt    Ag     Pd     Ru                
        Ag     Ag     Pt           Ag        
                     Pt     Pt               
                Ru     Pd     Pt             
                                             
           Ag    PAg    PPt    Pd            
                                             
            Ir     Pt    PAg    Pd           
       Pd    PPd    APt    Ag                
                                             
        Pd     Pt     Ag                     
                                             
                                             
                                             
                                             
                                             

Positions:
   0 Pd     0.000000    1.637674   10.000000    ( 0.0000,  0.0000,  0.0000)
   1 Pt     2.836535    1.637674   10.000000    ( 0.0000,  0.0000,  0.0000)
   2 Ag     5.673071    1.637674   10.000000    ( 0.0000,  0.0000,  0.0000)
   3 Pd     1.418268    4.094186   10.000000    ( 0.0000,  0.0000,  0.0000)
   4 Ag     4.254803    4.094186   10.000000    ( 0.0000,  0.0000,  0.0000)
   5 Ag     7.091338    4.094186   10.000000    ( 0.0000,  0.0000,  0.0000)
   6 Ag     2.836535    6.550698   10.000000    ( 0.0000,  0.0000,  0.0000)
   7 Pd     5.673071    6.550698   10.000000    ( 0.0000,  0.0000,  0.0000)
   8 Pd     8.509606    6.550698   10.000000    ( 0.0000,  0.0000,  0.0000)
   9 Pd     0.000000    0.000000   12.317643    ( 0.0000,  0.0000,  0.0000)
  10 Pd     2.836535    0.000000   12.317643    ( 0.0000,  0.0000,  0.0000)
  11 Pt     5.673071    0.000000   12.317643    ( 0.0000,  0.0000,  0.0000)
  12 Ir     1.418268    2.456512   12.317643    ( 0.0000,  0.0000,  0.0000)
  13 Pt     4.254803    2.456512   12.317643    ( 0.0000,  0.0000,  0.0000)
  14 Ag     7.091338    2.456512   12.317643    ( 0.0000,  0.0000,  0.0000)
  15 Pt     2.836535    4.913023   12.317643    ( 0.0000,  0.0000,  0.0000)
  16 Pd     5.673071    4.913023   12.317643    ( 0.0000,  0.0000,  0.0000)
  17 Pd     8.509606    4.913023   12.317643    ( 0.0000,  0.0000,  0.0000)
  18 Ag     1.389069    0.761593   14.611341    ( 0.0000,  0.0000,  0.0000)
  19 Ag     4.222794    0.791242   14.654783    ( 0.0000,  0.0000,  0.0000)
  20 Pt     7.073540    0.805567   14.664382    ( 0.0000,  0.0000,  0.0000)
  21 Ru     2.749307    3.307485   14.388094    ( 0.0000,  0.0000,  0.0000)
  22 Pd     5.607707    3.222150   14.639274    ( 0.0000,  0.0000,  0.0000)
  23 Pt     8.524948    3.259735   14.660441    ( 0.0000,  0.0000,  0.0000)
  24 Pt     4.174602    5.656474   14.614052    ( 0.0000,  0.0000,  0.0000)
  25 Pt     7.045997    5.607689   14.670733    ( 0.0000,  0.0000,  0.0000)
  26 Ag     9.879948    5.755300   14.695121    ( 0.0000,  0.0000,  0.0000)
  27 Ag     0.017308    1.615647   16.996175    ( 0.0000,  0.0000,  0.0000)
  28 Ag     2.800366    1.626414   16.880782    ( 0.0000,  0.0000,  0.0000)
  29 Pt     5.672197    1.642004   17.012334    ( 0.0000,  0.0000,  0.0000)
  30 Ag     1.343075    4.094522   17.005234    ( 0.0000,  0.0000,  0.0000)
  31 Pd     4.166190    4.037462   16.812922    ( 0.0000,  0.0000,  0.0000)
  32 Ru     6.951751    4.066498   16.866913    ( 0.0000,  0.0000,  0.0000)
  33 Pd     2.796571    6.569134   17.026379    ( 0.0000,  0.0000,  0.0000)
  34 Pt     5.661494    6.420339   16.911143    ( 0.0000,  0.0000,  0.0000)
  35 Pd     8.433103    6.505308   17.066448    ( 0.0000,  0.0000,  0.0000)
  36 Pt     0.070793   -0.041697   19.273531    ( 0.0000,  0.0000,  0.0000)
  37 Pt     2.805116    0.091543   19.247171    ( 0.0000,  0.0000,  0.0000)
  38 Ag     5.703172    0.006706   19.481189    ( 0.0000,  0.0000,  0.0000)
  39 Pt     1.550859    2.466264   19.402929    ( 0.0000,  0.0000,  0.0000)
  40 Ru     4.237408    2.607644   19.096110    ( 0.0000,  0.0000,  0.0000)
  41 Pt     7.106116    2.494030   19.217545    ( 0.0000,  0.0000,  0.0000)
  42 Ir     3.043460    4.824551   19.141209    ( 0.0000,  0.0000,  0.0000)
  43 Pt     5.709443    4.866601   19.167406    ( 0.0000,  0.0000,  0.0000)
  44 Ag     8.567230    4.895418   19.518661    ( 0.0000,  0.0000,  0.0000)
  45 O      4.237408    2.607644   21.518661    ( 0.0000,  0.0000,  0.0000)
  46 H      4.887408    3.257644   21.918661    ( 0.0000,  0.0000,  0.0000)

Unit cell:
           periodic     x           y           z      points  spacing
  1. axis:    yes    8.509606    0.000000    0.000000    40     0.1842
  2. axis:    yes    4.254803    7.369535    0.000000    40     0.1842
  3. axis:    no     0.000000    0.000000   29.270571   140     0.2091

  Lengths:   8.509606   8.509606  29.270571
  Angles:   90.000000  90.000000  60.000000

Effective grid spacing dv^(1/3) = 0.2016

     iter     time        total  log10-change:
                         energy  eigst   dens
iter:   1 21:58:33  -250.961188
iter:   2 21:59:42  -357.189245  -1.41  -1.22
iter:   3 22:00:52  -218.807242  -1.99  -1.08
iter:   4 22:02:02  -206.554238  -2.46  -1.38
iter:   5 22:03:12  -203.113723  -2.63  -1.46
iter:   6 22:04:22  -202.076864  -2.72  -1.53
iter:   7 22:05:32  -197.492484  -2.96  -1.56
iter:   8 22:06:42  -197.058508  -3.36  -1.70
iter:   9 22:07:52  -197.189806  -3.03  -1.72
iter:  10 22:09:02  -195.880884  -3.37  -1.81
iter:  11 22:10:12  -194.669931  -3.38  -1.96
iter:  12 22:11:22  -194.676139  -3.90  -2.16
iter:  13 22:12:33  -194.712403c -4.20  -2.22
iter:  14 22:13:43  -194.709098c -4.27  -2.25
iter:  15 22:14:54  -194.552496c -4.12  -2.26
iter:  16 22:16:05  -194.974582  -4.43  -2.38
iter:  17 22:17:14  -194.445722  -4.32  -2.29
iter:  18 22:18:24  -194.407684  -4.76  -2.55
iter:  19 22:19:33  -194.416627c -4.85  -2.59
iter:  20 22:20:42  -194.356908c -4.86  -2.61
iter:  21 22:21:52  -194.338646c -4.89  -2.74
iter:  22 22:23:01  -194.366932c -4.91  -2.79
iter:  23 22:24:12  -194.334409c -5.70  -2.72
iter:  24 22:25:21  -194.319657c -5.14  -2.84
iter:  25 22:26:30  -194.330616c -5.66  -2.88
iter:  26 22:27:40  -194.320987c -5.59  -2.90
iter:  27 22:28:50  -194.317293c -6.07  -3.00
iter:  28 22:30:00  -194.316575c -5.68  -3.05
iter:  29 22:31:10  -194.325947c -5.25  -3.17
iter:  30 22:32:21  -194.311913c -5.73  -3.15
iter:  31 22:33:32  -194.313475c -6.64  -3.27
iter:  32 22:34:42  -194.312875c -7.05  -3.47
iter:  33 22:35:53  -194.311655c -6.93  -3.52
iter:  34 22:37:04  -194.312157c -6.48  -3.54
iter:  35 22:38:15  -194.313410c -6.92  -3.68
iter:  36 22:39:25  -194.311481c -7.25  -3.74
iter:  37 22:40:35  -194.313561c -7.02  -3.69
iter:  38 22:41:45  -194.313445c -7.01  -3.78
iter:  39 22:42:54  -194.312136c -7.62c -4.02c

Converged after 39 iterations.

Dipole moment: (-4.975019, 7.696361, -0.530979) |e|*Ang

Energy contributions relative to reference atoms: (reference = -12373371.003080)

Kinetic:       -236.433461
Potential:     +109.664767
External:        +0.000000
XC:             -59.587486
Entropy (-ST):   -1.882283
Local:           -7.014815
--------------------------
Free energy:   -195.253278
Extrapolated:  -194.312136

Showing only first 2 kpts
 Kpt  Band  Eigenvalues  Occupancy
  0   367      0.67340    0.95742
  0   368      0.71511    0.75396
  0   369      0.73707    0.65395
  0   370      0.75029    0.59712

  1   367      0.54295    1.54387
  1   368      0.57562    1.41883
  1   369      0.60303    1.29975
  1   370      0.63397    1.15333


Fermi level: 0.66488

No gap

Forces in eV/Ang:
  0 Pd    0.71740    0.06055    0.09793
  1 Pt   -0.60532   -0.14669    0.55077
  2 Ag   -0.11012   -0.08304   -0.54885
  3 Pd   -0.04563   -0.34705    0.20882
  4 Ag   -0.01499    0.02100   -0.56437
  5 Ag    0.14892    0.17082   -0.50027
  6 Ag    0.03914   -0.00200   -0.46696
  7 Pd    0.24230    0.35588    0.05657
  8 Pd   -0.13686    0.13762    0.19968
  9 Pd   -0.01353    0.09527   -0.02511
 10 Pd    0.01718   -0.02515   -0.10788
 11 Pt   -0.02095   -0.13495    0.14723
 12 Ir    0.70335    0.17023   -0.00330
 13 Pt   -0.68358   -0.18203    0.25838
 14 Ag    0.10802   -0.02681    0.09087
 15 Pt   -0.28803    0.00972    0.17414
 16 Pd   -0.08091    0.25958    0.16355
 17 Pd    0.15880    0.00077    0.18364
 18 Ag   -0.02905    0.01719   -0.00249
 19 Ag   -0.00236   -0.00533    0.00178
 20 Pt   -0.04563   -0.05364   -0.01291
 21 Ru    0.04839    0.01256   -0.02092
 22 Pd   -0.03754   -0.00725    0.05934
 23 Pt   -0.01414   -0.02679    0.01014
 24 Pt    0.00179    0.05794   -0.05512
 25 Pt    0.00025   -0.01238   -0.00371
 26 Ag   -0.02745   -0.04935   -0.02225
 27 Ag   -0.04920   -0.03112   -0.01185
 28 Ag   -0.02204   -0.03588    0.02364
 29 Pt   -0.10356    0.04343    0.06308
 30 Ag   -0.02631   -0.04682    0.03063
 31 Pd   -0.06139   -0.00653    0.01066
 32 Ru    0.02128   -0.06735    0.00533
 33 Pd    0.00997   -0.04538   -0.01581
 34 Pt   -0.03691    0.04346    0.00241
 35 Pd   -0.02987   -0.00588   -0.02122
 36 Pt    0.05994   -0.01552   -0.01291
 37 Pt   -0.10706   -0.15867   -0.03586
 38 Ag    0.05017    0.00158    0.03191
 39 Pt   -0.09537    0.00921   -0.12401
 40 Ru    0.23581    0.11181    2.58090
 41 Pt    0.20286    0.04251   -0.08284
 42 Ir   -0.04684    0.05211   -0.00916
 43 Pt    0.12623    0.08353   -0.08133
 44 Ag   -0.01313    0.00648    0.02002
 45 O     0.12231    0.07122   -1.55034
 46 H    -0.22980   -0.29194   -0.59095

System changes: positions 

Initializing position-dependent things.

Density initialized from wave functions
                                             
                                             
                                             
                                             
                                             
                                             
                     H                       
                   O                         
                  Ir    Pt     Ag            
                                             
             Pt   PRu    PPt    Pd           
              Pt     Ag                      
       Pt    Ag     Pd     Ru                
        Ag     Ag     Pt           Ag        
                     Pt     Pt               
                Ru     Pd     Pt             
                                             
           Ag    PAg    PPt    Pd            
                                             
            Ir     Pt    PAg    Pd           
       Pd    PPd    APt    Ag                
                                             
        Pd     Pt     Ag                     
                                             
                                             
                                             
                                             
                                             

Positions:
   0 Pd     0.000000    1.637674   10.000000    ( 0.0000,  0.0000,  0.0000)
   1 Pt     2.836535    1.637674   10.000000    ( 0.0000,  0.0000,  0.0000)
   2 Ag     5.673071    1.637674   10.000000    ( 0.0000,  0.0000,  0.0000)
   3 Pd     1.418268    4.094186   10.000000    ( 0.0000,  0.0000,  0.0000)
   4 Ag     4.254803    4.094186   10.000000    ( 0.0000,  0.0000,  0.0000)
   5 Ag     7.091338    4.094186   10.000000    ( 0.0000,  0.0000,  0.0000)
   6 Ag     2.836535    6.550698   10.000000    ( 0.0000,  0.0000,  0.0000)
   7 Pd     5.673071    6.550698   10.000000    ( 0.0000,  0.0000,  0.0000)
   8 Pd     8.509606    6.550698   10.000000    ( 0.0000,  0.0000,  0.0000)
   9 Pd     0.000000    0.000000   12.317643    ( 0.0000,  0.0000,  0.0000)
  10 Pd     2.836535    0.000000   12.317643    ( 0.0000,  0.0000,  0.0000)
  11 Pt     5.673071    0.000000   12.317643    ( 0.0000,  0.0000,  0.0000)
  12 Ir     1.418268    2.456512   12.317643    ( 0.0000,  0.0000,  0.0000)
  13 Pt     4.254803    2.456512   12.317643    ( 0.0000,  0.0000,  0.0000)
  14 Ag     7.091338    2.456512   12.317643    ( 0.0000,  0.0000,  0.0000)
  15 Pt     2.836535    4.913023   12.317643    ( 0.0000,  0.0000,  0.0000)
  16 Pd     5.673071    4.913023   12.317643    ( 0.0000,  0.0000,  0.0000)
  17 Pd     8.509606    4.913023   12.317643    ( 0.0000,  0.0000,  0.0000)
  18 Ag     1.388654    0.761839   14.611305    ( 0.0000,  0.0000,  0.0000)
  19 Ag     4.222760    0.791166   14.654809    ( 0.0000,  0.0000,  0.0000)
  20 Pt     7.072888    0.804800   14.664198    ( 0.0000,  0.0000,  0.0000)
  21 Ru     2.749999    3.307665   14.387795    ( 0.0000,  0.0000,  0.0000)
  22 Pd     5.607171    3.222047   14.640122    ( 0.0000,  0.0000,  0.0000)
  23 Pt     8.524746    3.259352   14.660586    ( 0.0000,  0.0000,  0.0000)
  24 Pt     4.174627    5.657302   14.613264    ( 0.0000,  0.0000,  0.0000)
  25 Pt     7.046001    5.607512   14.670679    ( 0.0000,  0.0000,  0.0000)
  26 Ag     9.879556    5.754595   14.694803    ( 0.0000,  0.0000,  0.0000)
  27 Ag     0.016606    1.615203   16.996006    ( 0.0000,  0.0000,  0.0000)
  28 Ag     2.800051    1.625901   16.881120    ( 0.0000,  0.0000,  0.0000)
  29 Pt     5.670718    1.642624   17.013235    ( 0.0000,  0.0000,  0.0000)
  30 Ag     1.342699    4.093853   17.005672    ( 0.0000,  0.0000,  0.0000)
  31 Pd     4.165313    4.037369   16.813074    ( 0.0000,  0.0000,  0.0000)
  32 Ru     6.952055    4.065536   16.866990    ( 0.0000,  0.0000,  0.0000)
  33 Pd     2.796713    6.568486   17.026153    ( 0.0000,  0.0000,  0.0000)
  34 Pt     5.660967    6.420960   16.911178    ( 0.0000,  0.0000,  0.0000)
  35 Pd     8.432676    6.505224   17.066145    ( 0.0000,  0.0000,  0.0000)
  36 Pt     0.071649   -0.041919   19.273346    ( 0.0000,  0.0000,  0.0000)
  37 Pt     2.803587    0.089276   19.246659    ( 0.0000,  0.0000,  0.0000)
  38 Ag     5.703889    0.006729   19.481645    ( 0.0000,  0.0000,  0.0000)
  39 Pt     1.549497    2.466395   19.401158    ( 0.0000,  0.0000,  0.0000)
  40 Ru     4.240777    2.609241   19.132980    ( 0.0000,  0.0000,  0.0000)
  41 Pt     7.109014    2.494637   19.216362    ( 0.0000,  0.0000,  0.0000)
  42 Ir     3.042791    4.825295   19.141078    ( 0.0000,  0.0000,  0.0000)
  43 Pt     5.711246    4.867794   19.166244    ( 0.0000,  0.0000,  0.0000)
  44 Ag     8.567043    4.895510   19.518947    ( 0.0000,  0.0000,  0.0000)
  45 O      4.239155    2.608662   21.496513    ( 0.0000,  0.0000,  0.0000)
  46 H      4.884125    3.253473   21.910219    ( 0.0000,  0.0000,  0.0000)

Unit cell:
           periodic     x           y           z      points  spacing
  1. axis:    yes    8.509606    0.000000    0.000000    40     0.1842
  2. axis:    yes    4.254803    7.369535    0.000000    40     0.1842
  3. axis:    no     0.000000    0.000000   29.270571   140     0.2091

  Lengths:   8.509606   8.509606  29.270571
  Angles:   90.000000  90.000000  60.000000

Effective grid spacing dv^(1/3) = 0.2016

     iter     time        total  log10-change:
                         energy  eigst   dens
iter:   1 22:44:26  -195.135854  -4.15
iter:   2 22:45:35  -208.226246  -3.31  -2.31
iter:   3 22:46:44  -195.473826  -3.36  -1.71
iter:   4 22:47:54  -194.523932  -4.43  -2.31
iter:   5 22:49:04  -194.458624  -5.17  -2.96
iter:   6 22:50:14  -194.461304c -6.02  -3.33
iter:   7 22:51:25  -194.454650c -6.28  -3.41
iter:   8 22:52:36  -194.453868c -6.53  -3.53
iter:   9 22:53:46  -194.451807c -6.08  -3.57
iter:  10 22:54:56  -194.452990c -6.50  -3.24
iter:  11 22:56:05  -194.448123c -6.39  -3.63
iter:  12 22:57:16  -194.450811c -6.96  -3.68
iter:  13 22:58:26  -194.448960c -7.46c -3.89
iter:  14 22:59:36  -194.449490c -6.91  -3.99
iter:  15 23:00:45  -194.449633c -7.58c -4.24c

Converged after 15 iterations.

Dipole moment: (-4.903290, 7.772392, -0.495132) |e|*Ang

Energy contributions relative to reference atoms: (reference = -12373371.003080)

Kinetic:       -232.817901
Potential:     +106.003621
External:        +0.000000
XC:             -59.719803
Entropy (-ST):   -1.882013
Local:           -6.974544
--------------------------
Free energy:   -195.390640
Extrapolated:  -194.449633

Showing only first 2 kpts
 Kpt  Band  Eigenvalues  Occupancy
  0   367      0.68915    0.95662
  0   368      0.73040    0.75540
  0   369      0.75343    0.65057
  0   370      0.76626    0.59558

  1   367      0.55760    1.54718
  1   368      0.59140    1.41806
  1   369      0.62084    1.28961
  1   370      0.64985    1.15194


Fermi level: 0.68047

No gap

Forces in eV/Ang:
  0 Pd    0.70173    0.05526    0.10021
  1 Pt   -0.60472   -0.15490    0.55099
  2 Ag   -0.09799   -0.07969   -0.56329
  3 Pd   -0.05012   -0.33037    0.19987
  4 Ag   -0.00397    0.03378   -0.57645
  5 Ag    0.14209    0.17119   -0.50038
  6 Ag    0.04228   -0.00308   -0.48300
  7 Pd    0.23670    0.34349    0.05840
  8 Pd   -0.13511    0.12824    0.19069
  9 Pd    0.00545    0.09799   -0.03424
 10 Pd    0.00456   -0.04310   -0.10621
 11 Pt   -0.02875   -0.14162    0.14466
 12 Ir    0.68695    0.15302   -0.01367
 13 Pt   -0.66256   -0.18299    0.25751
 14 Ag    0.10702   -0.01394    0.08695
 15 Pt   -0.28693    0.02534    0.15452
 16 Pd   -0.06123    0.26520    0.15391
 17 Pd    0.13769    0.00685    0.17453
 18 Ag   -0.01581    0.01258    0.00061
 19 Ag   -0.01238   -0.00969    0.01405
 20 Pt   -0.05206   -0.04151   -0.00247
 21 Ru    0.05440    0.00654    0.01360
 22 Pd   -0.03955   -0.00808    0.05255
 23 Pt   -0.01403   -0.02511    0.00868
 24 Pt    0.00349    0.04383   -0.03924
 25 Pt    0.00653   -0.00200   -0.02429
 26 Ag   -0.03448   -0.04020   -0.00428
 27 Ag   -0.03826   -0.03955   -0.03227
 28 Ag    0.02636    0.00877    0.07396
 29 Pt   -0.14085    0.05608    0.13990
 30 Ag   -0.01609   -0.03318    0.02504
 31 Pd   -0.06489   -0.06382    0.06338
 32 Ru    0.00435   -0.07190    0.00418
 33 Pd   -0.01000   -0.05356   -0.01957
 34 Pt   -0.04296    0.04120   -0.01985
 35 Pd    0.00330   -0.00538   -0.01577
 36 Pt    0.02206   -0.01134   -0.00042
 37 Pt   -0.06711   -0.15329   -0.02806
 38 Ag    0.05054   -0.03352    0.01783
 39 Pt   -0.10642    0.00638   -0.13952
 40 Ru    0.19650    0.13959    2.34911
 41 Pt    0.20378    0.03056   -0.08253
 42 Ir   -0.06026    0.05518   -0.05091
 43 Pt    0.12818    0.08926   -0.10024
 44 Ag    0.00834    0.02980    0.03055
 45 O     0.10224    0.00532   -1.55736
 46 H    -0.20103   -0.26825   -0.62418

System changes: positions 

Initializing position-dependent things.

Density initialized from wave functions
                                             
                                             
                                             
                                             
                                             
                                             
                     H                       
                   O                         
                  Ir    Pt     Ag            
             Pt    Ru           Pd           
                  Pd     PPt                 
       Pt    APt    PAg    Ru                
                                             
        Ag     Ag    PPt    Pt     Ag        
                                             
                Ru     Pd     Pt             
           Ag    PAg    PPt    Pd            
                                             
            Ir     Pt    PAg    Pd           
       Pd     Pd     Pt                      
             Pd     Ag     Ag                
        Pd     Pt     Ag                     
                                             
                                             
                                             
                                             
                                             

Positions:
   0 Pd     0.000000    1.637674   10.000000    ( 0.0000,  0.0000,  0.0000)
   1 Pt     2.836535    1.637674   10.000000    ( 0.0000,  0.0000,  0.0000)
   2 Ag     5.673071    1.637674   10.000000    ( 0.0000,  0.0000,  0.0000)
   3 Pd     1.418268    4.094186   10.000000    ( 0.0000,  0.0000,  0.0000)
   4 Ag     4.254803    4.094186   10.000000    ( 0.0000,  0.0000,  0.0000)
   5 Ag     7.091338    4.094186   10.000000    ( 0.0000,  0.0000,  0.0000)
   6 Ag     2.836535    6.550698   10.000000    ( 0.0000,  0.0000,  0.0000)
   7 Pd     5.673071    6.550698   10.000000    ( 0.0000,  0.0000,  0.0000)
   8 Pd     8.509606    6.550698   10.000000    ( 0.0000,  0.0000,  0.0000)
   9 Pd     0.000000    0.000000   12.317643    ( 0.0000,  0.0000,  0.0000)
  10 Pd     2.836535    0.000000   12.317643    ( 0.0000,  0.0000,  0.0000)
  11 Pt     5.673071    0.000000   12.317643    ( 0.0000,  0.0000,  0.0000)
  12 Ir     1.418268    2.456512   12.317643    ( 0.0000,  0.0000,  0.0000)
  13 Pt     4.254803    2.456512   12.317643    ( 0.0000,  0.0000,  0.0000)
  14 Ag     7.091338    2.456512   12.317643    ( 0.0000,  0.0000,  0.0000)
  15 Pt     2.836535    4.913023   12.317643    ( 0.0000,  0.0000,  0.0000)
  16 Pd     5.673071    4.913023   12.317643    ( 0.0000,  0.0000,  0.0000)
  17 Pd     8.509606    4.913023   12.317643    ( 0.0000,  0.0000,  0.0000)
  18 Ag     1.387220    0.762931   14.611331    ( 0.0000,  0.0000,  0.0000)
  19 Ag     4.221803    0.790388   14.655888    ( 0.0000,  0.0000,  0.0000)
  20 Pt     7.068572    0.801220   14.663906    ( 0.0000,  0.0000,  0.0000)
  21 Ru     2.754514    3.308262   14.388657    ( 0.0000,  0.0000,  0.0000)
  22 Pd     5.603869    3.221375   14.644585    ( 0.0000,  0.0000,  0.0000)
  23 Pt     8.523567    3.257232   14.661326    ( 0.0000,  0.0000,  0.0000)
  24 Pt     4.174906    5.661093   14.609844    ( 0.0000,  0.0000,  0.0000)
  25 Pt     7.046498    5.607260   14.668808    ( 0.0000,  0.0000,  0.0000)
  26 Ag     9.876720    5.751149   14.694298    ( 0.0000,  0.0000,  0.0000)
  27 Ag     0.013307    1.611953   16.993464    ( 0.0000,  0.0000,  0.0000)
  28 Ag     2.801869    1.626275   16.886917    ( 0.0000,  0.0000,  0.0000)
  29 Pt     5.659203    1.647226   17.024349    ( 0.0000,  0.0000,  0.0000)
  30 Ag     1.341267    4.090959   17.007818    ( 0.0000,  0.0000,  0.0000)
  31 Pd     4.159898    4.032479   16.817964    ( 0.0000,  0.0000,  0.0000)
  32 Ru     6.952558    4.059541   16.867349    ( 0.0000,  0.0000,  0.0000)
  33 Pd     2.796036    6.564059   17.024542    ( 0.0000,  0.0000,  0.0000)
  34 Pt     5.657411    6.424435   16.909693    ( 0.0000,  0.0000,  0.0000)
  35 Pd     8.432684    6.504768   17.064778    ( 0.0000,  0.0000,  0.0000)
  36 Pt     0.073807   -0.042904   19.273210    ( 0.0000,  0.0000,  0.0000)
  37 Pt     2.797632    0.076372   19.244241    ( 0.0000,  0.0000,  0.0000)
  38 Ag     5.708126    0.004201   19.483255    ( 0.0000,  0.0000,  0.0000)
  39 Pt     1.540658    2.466953   19.389579    ( 0.0000,  0.0000,  0.0000)
  40 Ru     4.257582    2.620727   19.331941    ( 0.0000,  0.0000,  0.0000)
  41 Pt     7.126103    2.497298   19.209435    ( 0.0000,  0.0000,  0.0000)
  42 Ir     3.037844    4.829900   19.137145    ( 0.0000,  0.0000,  0.0000)
  43 Pt     5.721984    4.875237   19.157988    ( 0.0000,  0.0000,  0.0000)
  44 Ag     8.567568    4.897821   19.521424    ( 0.0000,  0.0000,  0.0000)
  45 O      4.247896    2.609643   21.365913    ( 0.0000,  0.0000,  0.0000)
  46 H      4.867026    3.230776   21.858122    ( 0.0000,  0.0000,  0.0000)

Unit cell:
           periodic     x           y           z      points  spacing
  1. axis:    yes    8.509606    0.000000    0.000000    40     0.1842
  2. axis:    yes    4.254803    7.369535    0.000000    40     0.1842
  3. axis:    no     0.000000    0.000000   29.270571   140     0.2091

  Lengths:   8.509606   8.509606  29.270571
  Angles:   90.000000  90.000000  60.000000

Effective grid spacing dv^(1/3) = 0.2016

     iter     time        total  log10-change:
                         energy  eigst   dens
iter:   1 23:02:17  -199.387517  -2.78
iter:   2 23:03:26  -225.860806  -2.67  -1.98
iter:   3 23:04:35  -210.341901  -2.60  -1.56
iter:   4 23:05:44  -196.475853  -3.46  -1.69
iter:   5 23:06:54  -195.438394  -4.22  -2.23
iter:   6 23:08:03  -195.210155  -4.71  -2.54
iter:   7 23:09:11  -195.141353c -4.91  -2.72
iter:   8 23:10:20  -195.102415c -4.91  -2.83
iter:   9 23:11:29  -195.306410c -4.85  -2.98
iter:  10 23:12:38  -195.078916c -4.96  -2.47
iter:  11 23:13:46  -195.073669c -5.14  -3.09
iter:  12 23:14:54  -195.063424c -5.60  -2.96
iter:  13 23:16:02  -195.060385c -6.14  -3.31
iter:  14 23:17:10  -195.060957c -6.40  -3.42
iter:  15 23:18:18  -195.059983c -6.05  -3.50
iter:  16 23:19:27  -195.064032c -6.39  -3.35
iter:  17 23:20:35  -195.059000c -6.49  -3.58
iter:  18 23:21:43  -195.064531c -6.69  -3.52
iter:  19 23:22:51  -195.060125c -7.00  -3.62
iter:  20 23:24:00  -195.059555c -7.29  -3.78
iter:  21 23:25:11  -195.060050c -7.18  -3.84
iter:  22 23:26:22  -195.060332c -7.61c -3.98
iter:  23 23:27:34  -195.059594c -7.45c -3.99
iter:  24 23:28:45  -195.061344c -7.48c -4.13c

Converged after 24 iterations.

Dipole moment: (-4.219334, 8.297259, -0.258726) |e|*Ang

Energy contributions relative to reference atoms: (reference = -12373371.003080)

Kinetic:       -232.870450
Potential:     +105.872272
External:        +0.000000
XC:             -60.132733
Entropy (-ST):   -1.886562
Local:           -6.987152
--------------------------
Free energy:   -196.004625
Extrapolated:  -195.061344

Showing only first 2 kpts
 Kpt  Band  Eigenvalues  Occupancy
  0   367      0.80078    0.95804
  0   368      0.84746    0.73137
  0   369      0.87085    0.62664
  0   370      0.88467    0.56872

  1   367      0.66642    1.55791
  1   368      0.69986    1.43222
  1   369      0.73127    1.29639
  1   370      0.75528    1.18342


Fermi level: 0.79238

No gap

Forces in eV/Ang:
  0 Pd    0.70861    0.05473    0.11181
  1 Pt   -0.60903   -0.16164    0.56830
  2 Ag   -0.09842   -0.08106   -0.55375
  3 Pd   -0.05202   -0.33522    0.21841
  4 Ag   -0.00407    0.03534   -0.56867
  5 Ag    0.14600    0.17268   -0.48892
  6 Ag    0.04266   -0.00292   -0.47194
  7 Pd    0.23444    0.35259    0.07192
  8 Pd   -0.13294    0.13077    0.20327
  9 Pd    0.00272    0.10491   -0.01880
 10 Pd    0.00849   -0.04505   -0.09131
 11 Pt   -0.03821   -0.14614    0.15387
 12 Ir    0.68872    0.15459    0.00149
 13 Pt   -0.65348   -0.18986    0.27346
 14 Ag    0.10149   -0.01128    0.10248
 15 Pt   -0.29008    0.02600    0.15369
 16 Pd   -0.05870    0.25982    0.16375
 17 Pd    0.13388    0.00479    0.17638
 18 Ag   -0.00214    0.02072    0.01343
 19 Ag   -0.01713   -0.00782    0.03880
 20 Pt   -0.06308   -0.01530   -0.00528
 21 Ru    0.03841    0.00519    0.04028
 22 Pd   -0.03553   -0.00545    0.07191
 23 Pt   -0.00533   -0.02175    0.01368
 24 Pt   -0.00469    0.01791    0.00100
 25 Pt   -0.00854   -0.00320    0.01015
 26 Ag   -0.01983   -0.03398    0.01053
 27 Ag   -0.03134   -0.06985   -0.07722
 28 Ag    0.09315    0.04294    0.22905
 29 Pt   -0.04872    0.05792    0.26427
 30 Ag   -0.04031   -0.01481    0.00326
 31 Pd    0.02031   -0.07280    0.10604
 32 Ru   -0.04173   -0.06726   -0.04738
 33 Pd   -0.01057   -0.04358   -0.02671
 34 Pt   -0.02004    0.01642   -0.07239
 35 Pd   -0.00363   -0.01866   -0.01118
 36 Pt   -0.01393    0.01032   -0.04455
 37 Pt   -0.03885   -0.08798    0.02995
 38 Ag    0.07106   -0.03542   -0.05132
 39 Pt   -0.05552   -0.04752   -0.10642
 40 Ru   -0.10201    0.45017    1.14652
 41 Pt    0.12885    0.00219   -0.00360
 42 Ir    0.03249   -0.09110    0.01555
 43 Pt    0.05274    0.06211   -0.00852
 44 Ag    0.03560    0.04480    0.00199
 45 O     0.18705   -0.14586   -0.36958
 46 H    -0.27747   -0.34949   -0.76596

System changes: positions 

Initializing position-dependent things.

Density initialized from wave functions
                                             
                                             
                                             
                                             
                                             
                                             
                     H                       
                   O                         
                  Ir     Pt    Ag            
             Pt   PRu           Pd           
                         PPt                 
       Pt    APt    PAg    Ru                
                                             
        Ag     Ag    PPt    Pt     Ag        
                              Pt             
                Ru     Pd                    
           Ag    PAg    PPt    Pd            
                                             
            Ir     Pt    PAg    Pd           
       Pd     Pd     Pt                      
             Pd     Ag     Ag                
        Pd     Pt     Ag                     
                                             
                                             
                                             
                                             
                                             

Positions:
   0 Pd     0.000000    1.637674   10.000000    ( 0.0000,  0.0000,  0.0000)
   1 Pt     2.836535    1.637674   10.000000    ( 0.0000,  0.0000,  0.0000)
   2 Ag     5.673071    1.637674   10.000000    ( 0.0000,  0.0000,  0.0000)
   3 Pd     1.418268    4.094186   10.000000    ( 0.0000,  0.0000,  0.0000)
   4 Ag     4.254803    4.094186   10.000000    ( 0.0000,  0.0000,  0.0000)
   5 Ag     7.091338    4.094186   10.000000    ( 0.0000,  0.0000,  0.0000)
   6 Ag     2.836535    6.550698   10.000000    ( 0.0000,  0.0000,  0.0000)
   7 Pd     5.673071    6.550698   10.000000    ( 0.0000,  0.0000,  0.0000)
   8 Pd     8.509606    6.550698   10.000000    ( 0.0000,  0.0000,  0.0000)
   9 Pd     0.000000    0.000000   12.317643    ( 0.0000,  0.0000,  0.0000)
  10 Pd     2.836535    0.000000   12.317643    ( 0.0000,  0.0000,  0.0000)
  11 Pt     5.673071    0.000000   12.317643    ( 0.0000,  0.0000,  0.0000)
  12 Ir     1.418268    2.456512   12.317643    ( 0.0000,  0.0000,  0.0000)
  13 Pt     4.254803    2.456512   12.317643    ( 0.0000,  0.0000,  0.0000)
  14 Ag     7.091338    2.456512   12.317643    ( 0.0000,  0.0000,  0.0000)
  15 Pt     2.836535    4.913023   12.317643    ( 0.0000,  0.0000,  0.0000)
  16 Pd     5.673071    4.913023   12.317643    ( 0.0000,  0.0000,  0.0000)
  17 Pd     8.509606    4.913023   12.317643    ( 0.0000,  0.0000,  0.0000)
  18 Ag     1.385974    0.764377   14.611704    ( 0.0000,  0.0000,  0.0000)
  19 Ag     4.220615    0.789574   14.657750    ( 0.0000,  0.0000,  0.0000)
  20 Pt     7.063459    0.797915   14.663494    ( 0.0000,  0.0000,  0.0000)
  21 Ru     2.759120    3.308899   14.390305    ( 0.0000,  0.0000,  0.0000)
  22 Pd     5.600291    3.220697   14.650102    ( 0.0000,  0.0000,  0.0000)
  23 Pt     8.522486    3.254953   14.662289    ( 0.0000,  0.0000,  0.0000)
  24 Pt     4.174995    5.664643   14.607093    ( 0.0000,  0.0000,  0.0000)
  25 Pt     7.046639    5.606935   14.667669    ( 0.0000,  0.0000,  0.0000)
  26 Ag     9.873955    5.747457   14.694116    ( 0.0000,  0.0000,  0.0000)
  27 Ag     0.009797    1.607512   16.989431    ( 0.0000,  0.0000,  0.0000)
  28 Ag     2.805657    1.627571   16.897533    ( 0.0000,  0.0000,  0.0000)
  29 Pt     5.648867    1.652405   17.040049    ( 0.0000,  0.0000,  0.0000)
  30 Ag     1.339001    4.088208   17.009633    ( 0.0000,  0.0000,  0.0000)
  31 Pd     4.156153    4.026831   16.824526    ( 0.0000,  0.0000,  0.0000)
  32 Ru     6.951891    4.052972   16.866359    ( 0.0000,  0.0000,  0.0000)
  33 Pd     2.795285    6.559391   17.022552    ( 0.0000,  0.0000,  0.0000)
  34 Pt     5.654065    6.427650   16.906637    ( 0.0000,  0.0000,  0.0000)
  35 Pd     8.432472    6.503899   17.063369    ( 0.0000,  0.0000,  0.0000)
  36 Pt     0.075284   -0.043424   19.271852    ( 0.0000,  0.0000,  0.0000)
  37 Pt     2.791703    0.063715   19.243100    ( 0.0000,  0.0000,  0.0000)
  38 Ag     5.713414    0.001362   19.483199    ( 0.0000,  0.0000,  0.0000)
  39 Pt     1.532170    2.466123   19.377552    ( 0.0000,  0.0000,  0.0000)
  40 Ru     4.268329    2.641924   19.521963    ( 0.0000,  0.0000,  0.0000)
  41 Pt     7.143170    2.499515   19.203829    ( 0.0000,  0.0000,  0.0000)
  42 Ir     3.034838    4.831088   19.134590    ( 0.0000,  0.0000,  0.0000)
  43 Pt     5.731940    4.882812   19.151262    ( 0.0000,  0.0000,  0.0000)
  44 Ag     8.568871    4.900784   19.523410    ( 0.0000,  0.0000,  0.0000)
  45 O      4.259974    2.606720   21.252110    ( 0.0000,  0.0000,  0.0000)
  46 H      4.845827    3.203198   21.796120    ( 0.0000,  0.0000,  0.0000)

Unit cell:
           periodic     x           y           z      points  spacing
  1. axis:    yes    8.509606    0.000000    0.000000    40     0.1842
  2. axis:    yes    4.254803    7.369535    0.000000    40     0.1842
  3. axis:    no     0.000000    0.000000   29.270571   140     0.2091

  Lengths:   8.509606   8.509606  29.270571
  Angles:   90.000000  90.000000  60.000000

Effective grid spacing dv^(1/3) = 0.2016

     iter     time        total  log10-change:
                         energy  eigst   dens
iter:   1 23:30:17  -199.359327  -2.72
iter:   2 23:31:26  -210.783180  -2.73  -1.94
iter:   3 23:32:34  -206.342299  -2.87  -1.70
iter:   4 23:33:43  -196.597759  -3.33  -1.75
iter:   5 23:34:52  -195.086210  -3.98  -2.17
iter:   6 23:36:02  -194.896143  -4.80  -2.46
iter:   7 23:37:13  -194.884808c -4.82  -2.75
iter:   8 23:38:22  -194.839876c -4.91  -2.61
iter:   9 23:39:32  -194.828143c -5.07  -2.86
iter:  10 23:40:41  -194.783715c -5.03  -2.76
iter:  11 23:41:50  -194.775286c -5.39  -3.14
iter:  12 23:42:59  -194.774951c -5.81  -3.12
iter:  13 23:44:08  -194.768040c -6.21  -3.29
iter:  14 23:45:17  -194.774002c -6.30  -3.35
iter:  15 23:46:26  -194.769950c -6.57  -3.34
iter:  16 23:47:35  -194.770186c -6.36  -3.52
iter:  17 23:48:44  -194.770402c -6.96  -3.57
iter:  18 23:49:53  -194.774907c -6.54  -3.63
iter:  19 23:51:01  -194.769215c -7.00  -3.54
iter:  20 23:52:10  -194.772027c -7.04  -3.74
iter:  21 23:53:18  -194.771194c -7.18  -3.76
iter:  22 23:54:27  -194.769857c -7.10  -3.97
iter:  23 23:55:35  -194.771012c -6.96  -3.98
iter:  24 23:56:44  -194.770941c -7.36  -3.95
iter:  25 23:57:53  -194.769651c -7.79c -4.20c

Converged after 25 iterations.

Dipole moment: (-3.721823, 8.770485, 0.043110) |e|*Ang

Energy contributions relative to reference atoms: (reference = -12373371.003080)

Kinetic:       -219.369878
Potential:      +94.788377
External:        +0.000000
XC:             -62.095582
Entropy (-ST):   -1.884772
Local:           -7.150182
--------------------------
Free energy:   -195.712037
Extrapolated:  -194.769651

Showing only first 2 kpts
 Kpt  Band  Eigenvalues  Occupancy
  0   367      0.94224    0.94994
  0   368      0.99272    0.70640
  0   369      1.00911    0.63346
  0   370      1.04048    0.50605

  1   367      0.81536    1.52579
  1   368      0.82497    1.49015
  1   369      0.85579    1.36457
  1   370      0.90018    1.15888


Fermi level: 0.93222

No gap

Forces in eV/Ang:
  0 Pd    0.71610    0.05527    0.10064
  1 Pt   -0.61981   -0.16842    0.55253
  2 Ag   -0.10003   -0.08379   -0.56137
  3 Pd   -0.05522   -0.33525    0.20368
  4 Ag   -0.00461    0.03751   -0.57538
  5 Ag    0.14830    0.17387   -0.49280
  6 Ag    0.04206   -0.00392   -0.47886
  7 Pd    0.23039    0.36132    0.06045
  8 Pd   -0.13164    0.13155    0.18807
  9 Pd    0.00514    0.10748   -0.02009
 10 Pd    0.01275   -0.04205   -0.10792
 11 Pt   -0.05284   -0.15184    0.14607
 12 Ir    0.70127    0.16071   -0.00424
 13 Pt   -0.65526   -0.19733    0.27696
 14 Ag    0.09925   -0.01021    0.10510
 15 Pt   -0.29908    0.01927    0.14114
 16 Pd   -0.05687    0.26061    0.15955
 17 Pd    0.13413    0.00517    0.16108
 18 Ag    0.01348    0.03072   -0.00163
 19 Ag   -0.02322   -0.00061    0.04743
 20 Pt   -0.05473    0.00328   -0.03377
 21 Ru    0.01025   -0.00500    0.02375
 22 Pd   -0.03239   -0.00876    0.05345
 23 Pt    0.00644   -0.01696   -0.03086
 24 Pt   -0.00353   -0.00640    0.01533
 25 Pt   -0.02266   -0.00585   -0.00566
 26 Ag   -0.00391   -0.02680   -0.00387
 27 Ag   -0.02689   -0.09338   -0.12500
 28 Ag    0.09153    0.03047    0.23333
 29 Pt    0.06847    0.02583    0.17861
 30 Ag   -0.02773    0.00230   -0.01911
 31 Pd    0.08521   -0.00277   -0.02469
 32 Ru   -0.07947   -0.04476   -0.10992
 33 Pd   -0.02693   -0.02911   -0.03471
 34 Pt   -0.01935   -0.00844   -0.14180
 35 Pd   -0.00177   -0.02133   -0.01035
 36 Pt   -0.05310    0.00543   -0.09175
 37 Pt   -0.00719   -0.07901    0.05261
 38 Ag    0.06252   -0.02716   -0.12747
 39 Pt   -0.03349   -0.04567   -0.08993
 40 Ru   -0.43477    0.68987   -4.75705
 41 Pt    0.07729   -0.03197    0.07696
 42 Ir    0.08412   -0.18645   -0.00479
 43 Pt   -0.03502    0.03887    0.06780
 44 Ag    0.08266    0.06198   -0.01717
 45 O     0.09457   -0.62712    5.22474
 46 H     0.08978    0.02423   -0.26310

System changes: positions 

Initializing position-dependent things.

Density initialized from wave functions
                                             
                                             
                                             
                                             
                                             
                                             
                     H                       
                   O                         
                  Ir    Pt     Ag            
             Pt   PRu           Pd           
                         PPt                 
       Pt    APt    PAg    Ru                
                                             
        Ag     Ag    PPt    Pt     Ag        
                                             
                Ru     Pd     Pt             
           Ag    PAg    PPt    Pd            
                                             
            Ir     Pt    PAg    Pd           
       Pd     Pd     Pt                      
             Pd     Ag     Ag                
        Pd     Pt     Ag                     
                                             
                                             
                                             
                                             
                                             

Positions:
   0 Pd     0.000000    1.637674   10.000000    ( 0.0000,  0.0000,  0.0000)
   1 Pt     2.836535    1.637674   10.000000    ( 0.0000,  0.0000,  0.0000)
   2 Ag     5.673071    1.637674   10.000000    ( 0.0000,  0.0000,  0.0000)
   3 Pd     1.418268    4.094186   10.000000    ( 0.0000,  0.0000,  0.0000)
   4 Ag     4.254803    4.094186   10.000000    ( 0.0000,  0.0000,  0.0000)
   5 Ag     7.091338    4.094186   10.000000    ( 0.0000,  0.0000,  0.0000)
   6 Ag     2.836535    6.550698   10.000000    ( 0.0000,  0.0000,  0.0000)
   7 Pd     5.673071    6.550698   10.000000    ( 0.0000,  0.0000,  0.0000)
   8 Pd     8.509606    6.550698   10.000000    ( 0.0000,  0.0000,  0.0000)
   9 Pd     0.000000    0.000000   12.317643    ( 0.0000,  0.0000,  0.0000)
  10 Pd     2.836535    0.000000   12.317643    ( 0.0000,  0.0000,  0.0000)
  11 Pt     5.673071    0.000000   12.317643    ( 0.0000,  0.0000,  0.0000)
  12 Ir     1.418268    2.456512   12.317643    ( 0.0000,  0.0000,  0.0000)
  13 Pt     4.254803    2.456512   12.317643    ( 0.0000,  0.0000,  0.0000)
  14 Ag     7.091338    2.456512   12.317643    ( 0.0000,  0.0000,  0.0000)
  15 Pt     2.836535    4.913023   12.317643    ( 0.0000,  0.0000,  0.0000)
  16 Pd     5.673071    4.913023   12.317643    ( 0.0000,  0.0000,  0.0000)
  17 Pd     8.509606    4.913023   12.317643    ( 0.0000,  0.0000,  0.0000)
  18 Ag     1.386935    0.763583   14.611559    ( 0.0000,  0.0000,  0.0000)
  19 Ag     4.221291    0.790121   14.656861    ( 0.0000,  0.0000,  0.0000)
  20 Pt     7.066566    0.800297   14.663645    ( 0.0000,  0.0000,  0.0000)
  21 Ru     2.756003    3.308459   14.389501    ( 0.0000,  0.0000,  0.0000)
  22 Pd     5.602576    3.221138   14.646797    ( 0.0000,  0.0000,  0.0000)
  23 Pt     8.523282    3.256424   14.661614    ( 0.0000,  0.0000,  0.0000)
  24 Pt     4.174860    5.662095   14.609258    ( 0.0000,  0.0000,  0.0000)
  25 Pt     7.046360    5.607120   14.668682    ( 0.0000,  0.0000,  0.0000)
  26 Ag     9.875874    5.749847   14.694341    ( 0.0000,  0.0000,  0.0000)
  27 Ag     0.012074    1.609916   16.991364    ( 0.0000,  0.0000,  0.0000)
  28 Ag     2.803963    1.627075   16.892477    ( 0.0000,  0.0000,  0.0000)
  29 Pt     5.656576    1.649099   17.031259    ( 0.0000,  0.0000,  0.0000)
  30 Ag     1.340209    4.090161   17.008217    ( 0.0000,  0.0000,  0.0000)
  31 Pd     4.159531    4.030459   16.820497    ( 0.0000,  0.0000,  0.0000)
  32 Ru     6.951737    4.057186   16.866285    ( 0.0000,  0.0000,  0.0000)
  33 Pd     2.795701    6.562448   17.023701    ( 0.0000,  0.0000,  0.0000)
  34 Pt     5.656388    6.425322   16.907823    ( 0.0000,  0.0000,  0.0000)
  35 Pd     8.432543    6.504301   17.064298    ( 0.0000,  0.0000,  0.0000)
  36 Pt     0.073886   -0.042895   19.272126    ( 0.0000,  0.0000,  0.0000)
  37 Pt     2.795785    0.072307   19.244461    ( 0.0000,  0.0000,  0.0000)
  38 Ag     5.710292    0.003137   19.482325    ( 0.0000,  0.0000,  0.0000)
  39 Pt     1.538047    2.466104   19.385445    ( 0.0000,  0.0000,  0.0000)
  40 Ru     4.257678    2.632474   19.374668    ( 0.0000,  0.0000,  0.0000)
  41 Pt     7.131607    2.497748   19.208351    ( 0.0000,  0.0000,  0.0000)
  42 Ir     3.037792    4.828608   19.136795    ( 0.0000,  0.0000,  0.0000)
  43 Pt     5.724715    4.877741   19.156599    ( 0.0000,  0.0000,  0.0000)
  44 Ag     8.568464    4.899134   19.521829    ( 0.0000,  0.0000,  0.0000)
  45 O      4.253021    2.605679   21.350744    ( 0.0000,  0.0000,  0.0000)
  46 H      4.859329    3.220655   21.834832    ( 0.0000,  0.0000,  0.0000)

Unit cell:
           periodic     x           y           z      points  spacing
  1. axis:    yes    8.509606    0.000000    0.000000    40     0.1842
  2. axis:    yes    4.254803    7.369535    0.000000    40     0.1842
  3. axis:    no     0.000000    0.000000   29.270571   140     0.2091

  Lengths:   8.509606   8.509606  29.270571
  Angles:   90.000000  90.000000  60.000000

Effective grid spacing dv^(1/3) = 0.2016

     iter     time        total  log10-change:
                         energy  eigst   dens
iter:   1 23:59:24  -198.420313  -2.73
iter:   2 00:00:32  -204.626325  -3.00  -2.07
iter:   3 00:01:41  -202.510344  -3.10  -1.74
iter:   4 00:02:50  -196.752272  -3.65  -1.83
iter:   5 00:03:59  -195.570609  -4.11  -2.19
iter:   6 00:05:09  -195.347284  -4.40  -2.62
iter:   7 00:06:18  -195.197089  -4.89  -2.62
iter:   8 00:07:26  -195.219846c -5.43  -2.89
iter:   9 00:08:35  -195.174929c -5.29  -2.83
iter:  10 00:09:43  -195.238478c -4.99  -2.87
iter:  11 00:10:52  -195.195377c -5.07  -2.71
iter:  12 00:12:02  -195.139026c -5.36  -2.80
iter:  13 00:13:11  -195.145664c -6.13  -3.31
iter:  14 00:14:20  -195.138337c -6.47  -3.26
iter:  15 00:15:29  -195.139089c -5.98  -3.43
iter:  16 00:16:38  -195.145322c -6.58  -3.60
iter:  17 00:17:47  -195.141016c -6.78  -3.40
iter:  18 00:18:56  -195.139061c -7.09  -3.68
iter:  19 00:20:05  -195.140833c -7.31  -3.72
iter:  20 00:21:15  -195.137828c -6.94  -3.77
iter:  21 00:22:24  -195.139033c -7.54c -3.76
iter:  22 00:23:33  -195.139474c -7.52c -4.08c

Converged after 22 iterations.

Dipole moment: (-4.075960, 8.467345, -0.214181) |e|*Ang

Energy contributions relative to reference atoms: (reference = -12373371.003080)

Kinetic:       -231.495994
Potential:     +104.809999
External:        +0.000000
XC:             -60.474858
Entropy (-ST):   -1.886124
Local:           -7.035560
--------------------------
Free energy:   -196.082536
Extrapolated:  -195.139474

Showing only first 2 kpts
 Kpt  Band  Eigenvalues  Occupancy
  0   367      0.81933    0.95665
  0   368      0.86802    0.72078
  0   369      0.89140    0.61684
  0   370      0.90380    0.56525

  1   367      0.68586    1.55387
  1   368      0.71643    1.43910
  1   369      0.74301    1.32588
  1   370      0.77431    1.17976


Fermi level: 0.81065

No gap

Forces in eV/Ang:
  0 Pd    0.71216    0.05284    0.09096
  1 Pt   -0.61479   -0.16290    0.54702
  2 Ag   -0.09717   -0.08412   -0.56891
  3 Pd   -0.05363   -0.33512    0.19949
  4 Ag   -0.00574    0.03704   -0.58219
  5 Ag    0.14844    0.17530   -0.50304
  6 Ag    0.04246   -0.00170   -0.48876
  7 Pd    0.23589    0.35616    0.05014
  8 Pd   -0.13547    0.12926    0.18322
  9 Pd    0.00610    0.10525   -0.01971
 10 Pd    0.00882   -0.04293   -0.09933
 11 Pt   -0.04415   -0.14959    0.15419
 12 Ir    0.69230    0.15629    0.00335
 13 Pt   -0.65734   -0.19091    0.27783
 14 Ag    0.10160   -0.00898    0.10667
 15 Pt   -0.29389    0.02097    0.15517
 16 Pd   -0.05878    0.26221    0.16699
 17 Pd    0.13568    0.00500    0.17379
 18 Ag    0.00166    0.02177    0.00831
 19 Ag   -0.01906   -0.00121    0.04947
 20 Pt   -0.05254   -0.00803   -0.00919
 21 Ru    0.02877   -0.00094    0.03523
 22 Pd   -0.03086   -0.00440    0.07040
 23 Pt   -0.00723   -0.01735    0.00067
 24 Pt   -0.00102    0.01511    0.00061
 25 Pt   -0.01362   -0.01122    0.00373
 26 Ag   -0.01566   -0.03033    0.00265
 27 Ag   -0.03078   -0.06389   -0.09169
 28 Ag    0.11683    0.04913    0.23698
 29 Pt   -0.06849    0.06985    0.26889
 30 Ag   -0.01581   -0.01961   -0.00386
 31 Pd    0.04423   -0.07414    0.08776
 32 Ru   -0.07501   -0.07079   -0.04944
 33 Pd   -0.01632   -0.04505   -0.03060
 34 Pt   -0.01188   -0.00608   -0.08973
 35 Pd   -0.00387    0.00961   -0.01032
 36 Pt   -0.02896    0.01934   -0.00578
 37 Pt   -0.02003   -0.07124    0.03245
 38 Ag    0.06062   -0.04559   -0.06909
 39 Pt   -0.04219   -0.05901   -0.09129
 40 Ru   -0.16940    0.41158    0.85770
 41 Pt    0.13138    0.00102   -0.02361
 42 Ir    0.01624   -0.07034   -0.01743
 43 Pt    0.04873    0.06396   -0.04199
 44 Ag    0.04879    0.05271    0.00985
 45 O    -0.05083   -0.43769   -0.72856
 46 H     0.14199    0.07646   -0.40402

System changes: positions 

Initializing position-dependent things.

Density initialized from wave functions
                                             
                                             
                                             
                                             
                                             
                                             
                     H                       
                   O                         
                  Ir     Pt    Ag            
             Pt   PRu           Pd           
                         PPt                 
       Pt    APt    PAg    Ru                
                                             
        Ag     Ag    PPt    Pt     Ag        
                                             
                Ru     Pd     Pt             
           Ag    PAg    PPt    Pd            
                                             
            Ir     Pt    PAg    Pd           
       Pd     Pd     Pt                      
             Pd     Ag     Ag                
        Pd     Pt     Ag                     
                                             
                                             
                                             
                                             
                                             

Positions:
   0 Pd     0.000000    1.637674   10.000000    ( 0.0000,  0.0000,  0.0000)
   1 Pt     2.836535    1.637674   10.000000    ( 0.0000,  0.0000,  0.0000)
   2 Ag     5.673071    1.637674   10.000000    ( 0.0000,  0.0000,  0.0000)
   3 Pd     1.418268    4.094186   10.000000    ( 0.0000,  0.0000,  0.0000)
   4 Ag     4.254803    4.094186   10.000000    ( 0.0000,  0.0000,  0.0000)
   5 Ag     7.091338    4.094186   10.000000    ( 0.0000,  0.0000,  0.0000)
   6 Ag     2.836535    6.550698   10.000000    ( 0.0000,  0.0000,  0.0000)
   7 Pd     5.673071    6.550698   10.000000    ( 0.0000,  0.0000,  0.0000)
   8 Pd     8.509606    6.550698   10.000000    ( 0.0000,  0.0000,  0.0000)
   9 Pd     0.000000    0.000000   12.317643    ( 0.0000,  0.0000,  0.0000)
  10 Pd     2.836535    0.000000   12.317643    ( 0.0000,  0.0000,  0.0000)
  11 Pt     5.673071    0.000000   12.317643    ( 0.0000,  0.0000,  0.0000)
  12 Ir     1.418268    2.456512   12.317643    ( 0.0000,  0.0000,  0.0000)
  13 Pt     4.254803    2.456512   12.317643    ( 0.0000,  0.0000,  0.0000)
  14 Ag     7.091338    2.456512   12.317643    ( 0.0000,  0.0000,  0.0000)
  15 Pt     2.836535    4.913023   12.317643    ( 0.0000,  0.0000,  0.0000)
  16 Pd     5.673071    4.913023   12.317643    ( 0.0000,  0.0000,  0.0000)
  17 Pd     8.509606    4.913023   12.317643    ( 0.0000,  0.0000,  0.0000)
  18 Ag     1.386779    0.764079   14.611674    ( 0.0000,  0.0000,  0.0000)
  19 Ag     4.220910    0.790019   14.657704    ( 0.0000,  0.0000,  0.0000)
  20 Pt     7.065253    0.799747   14.663393    ( 0.0000,  0.0000,  0.0000)
  21 Ru     2.756919    3.308531   14.390036    ( 0.0000,  0.0000,  0.0000)
  22 Pd     5.601717    3.220987   14.648398    ( 0.0000,  0.0000,  0.0000)
  23 Pt     8.523068    3.255903   14.661672    ( 0.0000,  0.0000,  0.0000)
  24 Pt     4.174858    5.662757   14.608874    ( 0.0000,  0.0000,  0.0000)
  25 Pt     7.046170    5.606907   14.668594    ( 0.0000,  0.0000,  0.0000)
  26 Ag     9.875351    5.748958   14.694274    ( 0.0000,  0.0000,  0.0000)
  27 Ag     0.011195    1.608499   16.989651    ( 0.0000,  0.0000,  0.0000)
  28 Ag     2.805777    1.627710   16.896707    ( 0.0000,  0.0000,  0.0000)
  29 Pt     5.654648    1.650567   17.036332    ( 0.0000,  0.0000,  0.0000)
  30 Ag     1.339698    4.089542   17.008391    ( 0.0000,  0.0000,  0.0000)
  31 Pd     4.159689    4.029065   16.822078    ( 0.0000,  0.0000,  0.0000)
  32 Ru     6.950705    4.055474   16.865425    ( 0.0000,  0.0000,  0.0000)
  33 Pd     2.795420    6.561306   17.023048    ( 0.0000,  0.0000,  0.0000)
  34 Pt     5.655798    6.425651   16.906231    ( 0.0000,  0.0000,  0.0000)
  35 Pd     8.432384    6.504288   17.063966    ( 0.0000,  0.0000,  0.0000)
  36 Pt     0.073760   -0.042752   19.271737    ( 0.0000,  0.0000,  0.0000)
  37 Pt     2.794679    0.069695   19.244724    ( 0.0000,  0.0000,  0.0000)
  38 Ag     5.711744    0.002299   19.481363    ( 0.0000,  0.0000,  0.0000)
  39 Pt     1.536433    2.465283   19.382745    ( 0.0000,  0.0000,  0.0000)
  40 Ru     4.256548    2.640822   19.400294    ( 0.0000,  0.0000,  0.0000)
  41 Pt     7.135456    2.498030   19.207452    ( 0.0000,  0.0000,  0.0000)
  42 Ir     3.037716    4.827714   19.136304    ( 0.0000,  0.0000,  0.0000)
  43 Pt     5.726503    4.879504   19.155366    ( 0.0000,  0.0000,  0.0000)
  44 Ag     8.569274    4.900157   19.522156    ( 0.0000,  0.0000,  0.0000)
  45 O      4.253970    2.599202   21.337303    ( 0.0000,  0.0000,  0.0000)
  46 H      4.858728    3.218401   21.822388    ( 0.0000,  0.0000,  0.0000)

Unit cell:
           periodic     x           y           z      points  spacing
  1. axis:    yes    8.509606    0.000000    0.000000    40     0.1842
  2. axis:    yes    4.254803    7.369535    0.000000    40     0.1842
  3. axis:    no     0.000000    0.000000   29.270571   140     0.2091

  Lengths:   8.509606   8.509606  29.270571
  Angles:   90.000000  90.000000  60.000000

Effective grid spacing dv^(1/3) = 0.2016

     iter     time        total  log10-change:
                         energy  eigst   dens
iter:   1 00:25:06  -195.811469  -4.12
iter:   2 00:26:15  -207.117132  -3.22  -2.32
iter:   3 00:27:24  -195.736985  -3.63  -1.73
iter:   4 00:28:32  -195.234701  -4.50  -2.42
iter:   5 00:29:41  -195.176584  -5.24  -2.94
iter:   6 00:30:50  -195.189011c -5.74  -3.13
iter:   7 00:31:59  -195.174547c -6.20  -3.30
iter:   8 00:33:07  -195.171429c -6.45  -3.60
iter:   9 00:34:15  -195.171374c -6.83  -3.77
iter:  10 00:35:23  -195.172106c -7.13  -3.60
iter:  11 00:36:32  -195.169494c -6.53  -3.84
iter:  12 00:37:41  -195.178338c -6.58  -3.53
iter:  13 00:38:49  -195.170744c -6.88  -3.51
iter:  14 00:39:57  -195.170529c -8.01c -4.09c

Converged after 14 iterations.

Dipole moment: (-3.981901, 8.576529, -0.177129) |e|*Ang

Energy contributions relative to reference atoms: (reference = -12373371.003080)

Kinetic:       -229.961940
Potential:     +103.432690
External:        +0.000000
XC:             -60.711966
Entropy (-ST):   -1.886350
Local:           -6.986138
--------------------------
Free energy:   -196.113704
Extrapolated:  -195.170529

Showing only first 2 kpts
 Kpt  Band  Eigenvalues  Occupancy
  0   367      0.83607    0.95445
  0   368      0.88630    0.71167
  0   369      0.90828    0.61440
  0   370      0.92119    0.56084

  1   367      0.70328    1.54999
  1   368      0.73080    1.44685
  1   369      0.75516    1.34432
  1   370      0.79119    1.17690


Fermi level: 0.82695

No gap

Forces in eV/Ang:
  0 Pd    0.70776    0.05243    0.09757
  1 Pt   -0.61063   -0.15854    0.54739
  2 Ag   -0.09755   -0.08254   -0.56229
  3 Pd   -0.05013   -0.33403    0.19879
  4 Ag   -0.00591    0.03578   -0.57746
  5 Ag    0.14527    0.17206   -0.49536
  6 Ag    0.04287   -0.00262   -0.48407
  7 Pd    0.23060    0.35357    0.05841
  8 Pd   -0.13264    0.12919    0.18752
  9 Pd    0.00344    0.10871   -0.02085
 10 Pd    0.01188   -0.03736   -0.10254
 11 Pt   -0.04692   -0.14633    0.14870
 12 Ir    0.69580    0.15949    0.00184
 13 Pt   -0.65851   -0.19175    0.27596
 14 Ag    0.10016   -0.00962    0.10478
 15 Pt   -0.29564    0.01482    0.15155
 16 Pd   -0.06047    0.25673    0.16315
 17 Pd    0.13731    0.00095    0.16882
 18 Ag    0.01273    0.03058   -0.00022
 19 Ag   -0.02234    0.00288    0.04711
 20 Pt   -0.05782    0.00024   -0.01495
 21 Ru    0.01830   -0.00570    0.02008
 22 Pd   -0.02915   -0.01313    0.03996
 23 Pt    0.00026   -0.01492   -0.02270
 24 Pt   -0.00528    0.00648   -0.00539
 25 Pt   -0.01049   -0.00881   -0.01501
 26 Ag   -0.01338   -0.03021   -0.00470
 27 Ag   -0.02306   -0.07204   -0.10917
 28 Ag    0.11728    0.04548    0.23302
 29 Pt   -0.07077    0.05859    0.26580
 30 Ag   -0.01670   -0.01525   -0.01545
 31 Pd    0.04867   -0.06587    0.06571
 32 Ru   -0.07439   -0.05623   -0.05431
 33 Pd   -0.01959   -0.03370   -0.04034
 34 Pt   -0.01189   -0.00400   -0.09841
 35 Pd   -0.00054    0.00893   -0.00983
 36 Pt   -0.04312    0.00833    0.01024
 37 Pt   -0.00190   -0.04496    0.04582
 38 Ag    0.05606   -0.04060   -0.08095
 39 Pt   -0.02418   -0.06169   -0.06897
 40 Ru   -0.21598    0.36433    0.09160
 41 Pt    0.09496    0.00386    0.00562
 42 Ir    0.02288   -0.06231   -0.02508
 43 Pt    0.02689    0.04012   -0.02145
 44 Ag    0.05500    0.05410    0.03597
 45 O    -0.02299   -0.43450    0.07938
 46 H     0.07760    0.00792   -0.43116

System changes: positions 

Initializing position-dependent things.

Density initialized from wave functions
                                             
                                             
                                             
                                             
                                             
                                             
                     H                       
                   O                         
                  Ir     Pt    Ag            
             Pt   PRu           Pd           
                         PPt                 
       Pt    APt    PAg    Ru                
                                             
        Ag     Ag    PPt    Pt     Ag        
                              Pt             
                Ru     Pd                    
           Ag    PAg    PPt    Pd            
                                             
            Ir     Pt    PAg    Pd           
       Pd     Pd     Pt                      
             Pd     Ag     Ag                
        Pd     Pt     Ag                     
                                             
                                             
                                             
                                             
                                             

Positions:
   0 Pd     0.000000    1.637674   10.000000    ( 0.0000,  0.0000,  0.0000)
   1 Pt     2.836535    1.637674   10.000000    ( 0.0000,  0.0000,  0.0000)
   2 Ag     5.673071    1.637674   10.000000    ( 0.0000,  0.0000,  0.0000)
   3 Pd     1.418268    4.094186   10.000000    ( 0.0000,  0.0000,  0.0000)
   4 Ag     4.254803    4.094186   10.000000    ( 0.0000,  0.0000,  0.0000)
   5 Ag     7.091338    4.094186   10.000000    ( 0.0000,  0.0000,  0.0000)
   6 Ag     2.836535    6.550698   10.000000    ( 0.0000,  0.0000,  0.0000)
   7 Pd     5.673071    6.550698   10.000000    ( 0.0000,  0.0000,  0.0000)
   8 Pd     8.509606    6.550698   10.000000    ( 0.0000,  0.0000,  0.0000)
   9 Pd     0.000000    0.000000   12.317643    ( 0.0000,  0.0000,  0.0000)
  10 Pd     2.836535    0.000000   12.317643    ( 0.0000,  0.0000,  0.0000)
  11 Pt     5.673071    0.000000   12.317643    ( 0.0000,  0.0000,  0.0000)
  12 Ir     1.418268    2.456512   12.317643    ( 0.0000,  0.0000,  0.0000)
  13 Pt     4.254803    2.456512   12.317643    ( 0.0000,  0.0000,  0.0000)
  14 Ag     7.091338    2.456512   12.317643    ( 0.0000,  0.0000,  0.0000)
  15 Pt     2.836535    4.913023   12.317643    ( 0.0000,  0.0000,  0.0000)
  16 Pd     5.673071    4.913023   12.317643    ( 0.0000,  0.0000,  0.0000)
  17 Pd     8.509606    4.913023   12.317643    ( 0.0000,  0.0000,  0.0000)
  18 Ag     1.386898    0.765042   14.611704    ( 0.0000,  0.0000,  0.0000)
  19 Ag     4.220254    0.790028   14.659099    ( 0.0000,  0.0000,  0.0000)
  20 Pt     7.063261    0.799345   14.662883    ( 0.0000,  0.0000,  0.0000)
  21 Ru     2.757846    3.308483   14.390591    ( 0.0000,  0.0000,  0.0000)
  22 Pd     5.600587    3.220603   14.650152    ( 0.0000,  0.0000,  0.0000)
  23 Pt     8.522952    3.255262   14.661209    ( 0.0000,  0.0000,  0.0000)
  24 Pt     4.174735    5.663366   14.608411    ( 0.0000,  0.0000,  0.0000)
  25 Pt     7.045842    5.606573   14.668244    ( 0.0000,  0.0000,  0.0000)
  26 Ag     9.874764    5.747740   14.694046    ( 0.0000,  0.0000,  0.0000)
  27 Ag     0.010143    1.606177   16.986455    ( 0.0000,  0.0000,  0.0000)
  28 Ag     2.809012    1.628809   16.903732    ( 0.0000,  0.0000,  0.0000)
  29 Pt     5.652092    1.652580   17.044477    ( 0.0000,  0.0000,  0.0000)
  30 Ag     1.338985    4.088792   17.008211    ( 0.0000,  0.0000,  0.0000)
  31 Pd     4.160688    4.027109   16.824124    ( 0.0000,  0.0000,  0.0000)
  32 Ru     6.948703    4.053311   16.863820    ( 0.0000,  0.0000,  0.0000)
  33 Pd     2.794921    6.559955   17.021823    ( 0.0000,  0.0000,  0.0000)
  34 Pt     5.655175    6.425845   16.903367    ( 0.0000,  0.0000,  0.0000)
  35 Pd     8.432160    6.504427   17.063531    ( 0.0000,  0.0000,  0.0000)
  36 Pt     0.072971   -0.042571   19.271668    ( 0.0000,  0.0000,  0.0000)
  37 Pt     2.793781    0.067093   19.245763    ( 0.0000,  0.0000,  0.0000)
  38 Ag     5.713778    0.001112   19.479227    ( 0.0000,  0.0000,  0.0000)
  39 Pt     1.534945    2.463589   19.379706    ( 0.0000,  0.0000,  0.0000)
  40 Ru     4.251849    2.653036   19.418294    ( 0.0000,  0.0000,  0.0000)
  41 Pt     7.139779    2.498363   19.207031    ( 0.0000,  0.0000,  0.0000)
  42 Ir     3.038140    4.825993   19.135612    ( 0.0000,  0.0000,  0.0000)
  43 Pt     5.728184    4.881370   19.154245    ( 0.0000,  0.0000,  0.0000)
  44 Ag     8.570790    4.901787   19.523126    ( 0.0000,  0.0000,  0.0000)
  45 O      4.254511    2.587104   21.332416    ( 0.0000,  0.0000,  0.0000)
  46 H      4.859144    3.216368   21.805520    ( 0.0000,  0.0000,  0.0000)

Unit cell:
           periodic     x           y           z      points  spacing
  1. axis:    yes    8.509606    0.000000    0.000000    40     0.1842
  2. axis:    yes    4.254803    7.369535    0.000000    40     0.1842
  3. axis:    no     0.000000    0.000000   29.270571   140     0.2091

  Lengths:   8.509606   8.509606  29.270571
  Angles:   90.000000  90.000000  60.000000

Effective grid spacing dv^(1/3) = 0.2016

     iter     time        total  log10-change:
                         energy  eigst   dens
iter:   1 00:41:28  -196.920370  -4.07
iter:   2 00:42:37  -228.411027  -2.86  -2.12
iter:   3 00:43:45  -196.351495  -3.07  -1.53
iter:   4 00:44:54  -195.304851  -4.24  -2.27
iter:   5 00:46:02  -195.225129  -4.98  -2.80
iter:   6 00:47:10  -195.215788c -5.64  -3.21
iter:   7 00:48:19  -195.207083c -5.95  -3.35
iter:   8 00:49:26  -195.198787c -5.97  -3.49
iter:   9 00:50:32  -195.202447c -6.62  -3.55
iter:  10 00:51:39  -195.198742c -6.55  -3.66
iter:  11 00:52:47  -195.196713c -6.65  -3.84
iter:  12 00:53:54  -195.198647c -6.98  -3.74
iter:  13 00:55:03  -195.198007c -7.55c -4.11c

Converged after 13 iterations.

Dipole moment: (-3.882011, 8.712294, -0.164641) |e|*Ang

Energy contributions relative to reference atoms: (reference = -12373371.003080)

Kinetic:       -227.053109
Potential:     +100.796617
External:        +0.000000
XC:             -61.004261
Entropy (-ST):   -1.881275
Local:           -6.996616
--------------------------
Free energy:   -196.138644
Extrapolated:  -195.198007

Showing only first 2 kpts
 Kpt  Band  Eigenvalues  Occupancy
  0   367      0.84613    0.95442
  0   368      0.89672    0.71003
  0   369      0.91918    0.61081
  0   370      0.93429    0.54865

  1   367      0.71453    1.54582
  1   368      0.73909    1.45391
  1   369      0.76248    1.35632
  1   370      0.80123    1.17701


Fermi level: 0.83701

No gap

Forces in eV/Ang:
  0 Pd    0.69968    0.05474    0.11772
  1 Pt   -0.60076   -0.14891    0.57067
  2 Ag   -0.09836   -0.08063   -0.54970
  3 Pd   -0.04583   -0.33581    0.21884
  4 Ag   -0.00822    0.03054   -0.56572
  5 Ag    0.14364    0.16731   -0.47975
  6 Ag    0.04266   -0.00117   -0.47162
  7 Pd    0.22664    0.35021    0.07661
  8 Pd   -0.13026    0.13203    0.20582
  9 Pd    0.00383    0.11273   -0.01500
 10 Pd    0.01359   -0.03515   -0.09558
 11 Pt   -0.05150   -0.14544    0.15498
 12 Ir    0.69702    0.16218    0.01036
 13 Pt   -0.65947   -0.19124    0.28344
 14 Ag    0.09975   -0.00840    0.10620
 15 Pt   -0.29582    0.00835    0.15845
 16 Pd   -0.06184    0.25337    0.16681
 17 Pd    0.13744   -0.00071    0.17081
 18 Ag    0.01927    0.02896    0.00091
 19 Ag   -0.01982    0.00313    0.05251
 20 Pt   -0.05715    0.00405   -0.01037
 21 Ru    0.01479   -0.00499    0.01254
 22 Pd   -0.02769   -0.02048    0.03189
 23 Pt   -0.00351   -0.01038   -0.02398
 24 Pt   -0.00875    0.00340   -0.00300
 25 Pt   -0.00549   -0.00840   -0.01576
 26 Ag   -0.01346   -0.02345   -0.00459
 27 Ag   -0.02388   -0.06640   -0.09730
 28 Ag    0.08702    0.01884    0.19494
 29 Pt   -0.03762    0.03630    0.21577
 30 Ag   -0.02782   -0.00814   -0.01733
 31 Pd    0.05301   -0.01159    0.01093
 32 Ru   -0.05207   -0.04478   -0.04593
 33 Pd   -0.01572   -0.03128   -0.03850
 34 Pt   -0.00733   -0.00479   -0.07836
 35 Pd   -0.00476   -0.00281   -0.01454
 36 Pt   -0.03343    0.00768   -0.02703
 37 Pt   -0.01098   -0.04543    0.03600
 38 Ag    0.04633   -0.02362   -0.08959
 39 Pt   -0.03056   -0.06363   -0.05200
 40 Ru   -0.21762    0.28906   -0.15996
 41 Pt    0.08560    0.01690    0.00439
 42 Ir    0.00602   -0.01811   -0.01050
 43 Pt    0.02717    0.03424   -0.01790
 44 Ag    0.05524    0.04095    0.00861
 45 O     0.03150   -0.39547    0.32336
 46 H     0.06075   -0.01368   -0.38567

System changes: positions 

Initializing position-dependent things.

Density initialized from wave functions
                                             
                                             
                                             
                                             
                                             
                                             
                     H                       
                   O                         
                  Ir     Pt     Ag           
             Pt   PRu     Pt    Pd           
                         Pt                  
       Pt    APt    PAg    Ru                
                                             
        Ag     Ag    PPt    Pt     Ag        
                              Pt             
                Ru     Pd                    
           Ag    PAg    PPt    Pd            
                                             
            Ir     Pt    PAg    Pd           
       Pd     Pd     Pt                      
             Pd     Ag     Ag                
        Pd     Pt     Ag                     
                                             
                                             
                                             
                                             
                                             

Positions:
   0 Pd     0.000000    1.637674   10.000000    ( 0.0000,  0.0000,  0.0000)
   1 Pt     2.836535    1.637674   10.000000    ( 0.0000,  0.0000,  0.0000)
   2 Ag     5.673071    1.637674   10.000000    ( 0.0000,  0.0000,  0.0000)
   3 Pd     1.418268    4.094186   10.000000    ( 0.0000,  0.0000,  0.0000)
   4 Ag     4.254803    4.094186   10.000000    ( 0.0000,  0.0000,  0.0000)
   5 Ag     7.091338    4.094186   10.000000    ( 0.0000,  0.0000,  0.0000)
   6 Ag     2.836535    6.550698   10.000000    ( 0.0000,  0.0000,  0.0000)
   7 Pd     5.673071    6.550698   10.000000    ( 0.0000,  0.0000,  0.0000)
   8 Pd     8.509606    6.550698   10.000000    ( 0.0000,  0.0000,  0.0000)
   9 Pd     0.000000    0.000000   12.317643    ( 0.0000,  0.0000,  0.0000)
  10 Pd     2.836535    0.000000   12.317643    ( 0.0000,  0.0000,  0.0000)
  11 Pt     5.673071    0.000000   12.317643    ( 0.0000,  0.0000,  0.0000)
  12 Ir     1.418268    2.456512   12.317643    ( 0.0000,  0.0000,  0.0000)
  13 Pt     4.254803    2.456512   12.317643    ( 0.0000,  0.0000,  0.0000)
  14 Ag     7.091338    2.456512   12.317643    ( 0.0000,  0.0000,  0.0000)
  15 Pt     2.836535    4.913023   12.317643    ( 0.0000,  0.0000,  0.0000)
  16 Pd     5.673071    4.913023   12.317643    ( 0.0000,  0.0000,  0.0000)
  17 Pd     8.509606    4.913023   12.317643    ( 0.0000,  0.0000,  0.0000)
  18 Ag     1.387624    0.767629   14.611853    ( 0.0000,  0.0000,  0.0000)
  19 Ag     4.218539    0.790122   14.663282    ( 0.0000,  0.0000,  0.0000)
  20 Pt     7.057911    0.798631   14.661684    ( 0.0000,  0.0000,  0.0000)
  21 Ru     2.760045    3.308319   14.391881    ( 0.0000,  0.0000,  0.0000)
  22 Pd     5.597658    3.219257   14.654533    ( 0.0000,  0.0000,  0.0000)
  23 Pt     8.522524    3.253781   14.659810    ( 0.0000,  0.0000,  0.0000)
  24 Pt     4.174229    5.664705   14.607450    ( 0.0000,  0.0000,  0.0000)
  25 Pt     7.045086    5.605651   14.667329    ( 0.0000,  0.0000,  0.0000)
  26 Ag     9.873268    5.744806   14.693469    ( 0.0000,  0.0000,  0.0000)
  27 Ag     0.007351    1.600037   16.977982    ( 0.0000,  0.0000,  0.0000)
  28 Ag     2.817034    1.630929   16.921949    ( 0.0000,  0.0000,  0.0000)
  29 Pt     5.646737    1.657178   17.065168    ( 0.0000,  0.0000,  0.0000)
  30 Ag     1.336646    4.087142   17.007463    ( 0.0000,  0.0000,  0.0000)
  31 Pd     4.164108    4.023938   16.827564    ( 0.0000,  0.0000,  0.0000)
  32 Ru     6.943794    4.047985   16.859627    ( 0.0000,  0.0000,  0.0000)
  33 Pd     2.793680    6.556474   17.018505    ( 0.0000,  0.0000,  0.0000)
  34 Pt     5.653855    6.426078   16.896122    ( 0.0000,  0.0000,  0.0000)
  35 Pd     8.431394    6.504448   17.062202    ( 0.0000,  0.0000,  0.0000)
  36 Pt     0.070910   -0.041960   19.270102    ( 0.0000,  0.0000,  0.0000)
  37 Pt     2.791341    0.060612   19.248495    ( 0.0000,  0.0000,  0.0000)
  38 Ag     5.718871   -0.001489   19.472660    ( 0.0000,  0.0000,  0.0000)
  39 Pt     1.531053    2.458571   19.372553    ( 0.0000,  0.0000,  0.0000)
  40 Ru     4.237282    2.683676   19.451887    ( 0.0000,  0.0000,  0.0000)
  41 Pt     7.150594    2.499688   19.206113    ( 0.0000,  0.0000,  0.0000)
  42 Ir     3.038881    4.822752   19.134409    ( 0.0000,  0.0000,  0.0000)
  43 Pt     5.732334    4.885973   19.151567    ( 0.0000,  0.0000,  0.0000)
  44 Ag     8.575112    4.905775   19.524628    ( 0.0000,  0.0000,  0.0000)
  45 O      4.257135    2.553760   21.329242    ( 0.0000,  0.0000,  0.0000)
  46 H      4.861598    3.212025   21.763191    ( 0.0000,  0.0000,  0.0000)

Unit cell:
           periodic     x           y           z      points  spacing
  1. axis:    yes    8.509606    0.000000    0.000000    40     0.1842
  2. axis:    yes    4.254803    7.369535    0.000000    40     0.1842
  3. axis:    no     0.000000    0.000000   29.270571   140     0.2091

  Lengths:   8.509606   8.509606  29.270571
  Angles:   90.000000  90.000000  60.000000

Effective grid spacing dv^(1/3) = 0.2016

     iter     time        total  log10-change:
                         energy  eigst   dens
iter:   1 00:56:35  -195.661627  -3.65
iter:   2 00:57:43  -202.617379  -3.54  -2.45
iter:   3 00:58:52  -195.795951  -3.64  -1.83
iter:   4 01:00:01  -195.288037  -4.72  -2.43
iter:   5 01:01:08  -195.255296  -5.60  -3.01
iter:   6 01:02:17  -195.261279c -6.20  -3.23
iter:   7 01:03:25  -195.245912c -6.08  -3.19
iter:   8 01:04:32  -195.244820c -6.35  -3.40
iter:   9 01:05:40  -195.241606c -6.20  -3.45
iter:  10 01:06:48  -195.242421c -6.54  -3.23
iter:  11 01:07:56  -195.237430c -6.27  -3.55
iter:  12 01:09:03  -195.244568c -6.50  -3.46
iter:  13 01:10:11  -195.238498c -6.89  -3.58
iter:  14 01:11:22  -195.238274c -7.46c -3.88
iter:  15 01:12:32  -195.238494c -7.72c -4.00
iter:  16 01:13:42  -195.239638c -7.73c -3.96
iter:  17 01:14:51  -195.238596c -7.60c -4.06c

Converged after 17 iterations.

Dipole moment: (-3.618699, 9.037209, -0.150125) |e|*Ang

Energy contributions relative to reference atoms: (reference = -12373371.003080)

Kinetic:       -225.656731
Potential:      +99.721341
External:        +0.000000
XC:             -61.341591
Entropy (-ST):   -1.870874
Local:           -7.026178
--------------------------
Free energy:   -196.174033
Extrapolated:  -195.238596

Showing only first 2 kpts
 Kpt  Band  Eigenvalues  Occupancy
  0   367      0.85215    0.95405
  0   368      0.90344    0.70649
  0   369      0.92397    0.61575
  0   370      0.94812    0.51781

  1   367      0.72370    1.53438
  1   368      0.74068    1.47103
  1   369      0.76445    1.37355
  1   370      0.80696    1.17806


Fermi level: 0.84296

No gap

Forces in eV/Ang:
  0 Pd    0.70401    0.05173    0.09865
  1 Pt   -0.60717   -0.15717    0.54862
  2 Ag   -0.09716   -0.08075   -0.56460
  3 Pd   -0.05053   -0.33257    0.20130
  4 Ag   -0.00410    0.03542   -0.57826
  5 Ag    0.14379    0.17080   -0.49539
  6 Ag    0.04356   -0.00232   -0.48470
  7 Pd    0.22531    0.35290    0.06043
  8 Pd   -0.13040    0.12855    0.18755
  9 Pd    0.00166    0.11233   -0.01588
 10 Pd    0.01809   -0.03717   -0.09710
 11 Pt   -0.06155   -0.14975    0.14765
 12 Ir    0.70411    0.16518    0.00394
 13 Pt   -0.65601   -0.19544    0.28672
 14 Ag    0.09271   -0.00413    0.10427
 15 Pt   -0.29610    0.00838    0.15363
 16 Pd   -0.06147    0.25159    0.16308
 17 Pd    0.13378    0.00202    0.15917
 18 Ag    0.02657    0.03237    0.01468
 19 Ag   -0.02022    0.00780    0.06646
 20 Pt   -0.04176    0.01119    0.00729
 21 Ru    0.00217   -0.00474    0.01363
 22 Pd   -0.02865   -0.03708    0.00422
 23 Pt   -0.00717   -0.00926   -0.01858
 24 Pt   -0.01598    0.00209   -0.00143
 25 Pt    0.00032   -0.01387   -0.03196
 26 Ag   -0.01150   -0.01338   -0.00257
 27 Ag   -0.01322   -0.05203   -0.07971
[...]
  21 Ru     2.750624    3.302967   14.394021    ( 0.0000,  0.0000,  0.0000)
  22 Pd     5.575067    3.206092   14.664070    ( 0.0000,  0.0000,  0.0000)
  23 Pt     8.505316    3.249490   14.652358    ( 0.0000,  0.0000,  0.0000)
  24 Pt     4.150211    5.664921   14.609041    ( 0.0000,  0.0000,  0.0000)
  25 Pt     7.025986    5.596860   14.668038    ( 0.0000,  0.0000,  0.0000)
  26 Ag     9.850906    5.732454   14.702448    ( 0.0000,  0.0000,  0.0000)
  27 Ag    -0.042705    1.548921   16.930459    ( 0.0000,  0.0000,  0.0000)
  28 Ag     2.767159    1.606319   16.942804    ( 0.0000,  0.0000,  0.0000)
  29 Pt     5.583574    1.673922   17.154458    ( 0.0000,  0.0000,  0.0000)
  30 Ag     1.284272    4.052146   17.034515    ( 0.0000,  0.0000,  0.0000)
  31 Pd     4.105734    4.030149   16.825837    ( 0.0000,  0.0000,  0.0000)
  32 Ru     6.915759    4.028742   16.861620    ( 0.0000,  0.0000,  0.0000)
  33 Pd     2.726441    6.539663   17.023647    ( 0.0000,  0.0000,  0.0000)
  34 Pt     5.618127    6.396110   16.886375    ( 0.0000,  0.0000,  0.0000)
  35 Pd     8.392857    6.478783   17.077365    ( 0.0000,  0.0000,  0.0000)
  36 Pt     0.044640   -0.101537   19.239116    ( 0.0000,  0.0000,  0.0000)
  37 Pt     2.748038    0.013063   19.271308    ( 0.0000,  0.0000,  0.0000)
  38 Ag     5.724323    0.027216   19.493568    ( 0.0000,  0.0000,  0.0000)
  39 Pt     1.477596    2.416037   19.386940    ( 0.0000,  0.0000,  0.0000)
  40 Ru     4.118374    2.611348   19.418687    ( 0.0000,  0.0000,  0.0000)
  41 Pt     7.237276    2.535433   19.188915    ( 0.0000,  0.0000,  0.0000)
  42 Ir     3.022550    4.801870   19.167365    ( 0.0000,  0.0000,  0.0000)
  43 Pt     5.715469    4.821181   19.156175    ( 0.0000,  0.0000,  0.0000)
  44 Ag     8.590725    4.946556   19.586581    ( 0.0000,  0.0000,  0.0000)
  45 O      4.515093    2.144577   21.245583    ( 0.0000,  0.0000,  0.0000)
  46 H      5.171016    2.809104   21.589405    ( 0.0000,  0.0000,  0.0000)

Unit cell:
           periodic     x           y           z      points  spacing
  1. axis:    yes    8.509606    0.000000    0.000000    40     0.1842
  2. axis:    yes    4.254803    7.369535    0.000000    40     0.1842
  3. axis:    no     0.000000    0.000000   29.270571   140     0.2091

  Lengths:   8.509606   8.509606  29.270571
  Angles:   90.000000  90.000000  60.000000

Effective grid spacing dv^(1/3) = 0.2016

     iter     time        total  log10-change:
                         energy  eigst   dens
iter:   1 06:56:25  -195.446027  -3.78
iter:   2 06:57:24  -195.798268  -4.60  -2.92
iter:   3 06:58:24  -195.407340  -5.02  -2.43
iter:   4 06:59:23  -195.407368  -6.01  -3.26
iter:   5 07:00:23  -195.401850c -5.92  -3.36
iter:   6 07:01:23  -195.406965c -5.80  -3.21
iter:   7 07:02:22  -195.397383c -6.13  -3.43
iter:   8 07:03:22  -195.399226c -6.34  -3.62
iter:   9 07:04:22  -195.409653c -6.40  -3.60
iter:  10 07:05:21  -195.398994c -6.75  -3.27
iter:  11 07:06:21  -195.397884c -7.27  -3.77
iter:  12 07:07:21  -195.399809c -7.42c -3.84
iter:  13 07:08:20  -195.397303c -7.38  -3.77
iter:  14 07:09:20  -195.398846c -7.46c -3.91
iter:  15 07:10:19  -195.398976c -7.46c -4.03c

Converged after 15 iterations.

Dipole moment: (-3.597267, 11.126035, -0.190392) |e|*Ang

Energy contributions relative to reference atoms: (reference = -12373371.003080)

Kinetic:       -227.254217
Potential:     +100.872549
External:        +0.000000
XC:             -61.080175
Entropy (-ST):   -1.836744
Local:           -7.018761
--------------------------
Free energy:   -196.317348
Extrapolated:  -195.398976

Showing only first 2 kpts
 Kpt  Band  Eigenvalues  Occupancy
  0   367      0.84539    0.91496
  0   368      0.88926    0.70450
  0   369      0.90726    0.62469
  0   370      0.95364    0.44437

  1   367      0.69262    1.59061
  1   368      0.72877    1.46042
  1   369      0.75963    1.33062
  1   370      0.79208    1.17935


Fermi level: 0.82834

No gap

Forces in eV/Ang:
  0 Pd    0.70295    0.04840    0.09310
  1 Pt   -0.60327   -0.15622    0.55202
  2 Ag   -0.09650   -0.08028   -0.56071
  3 Pd   -0.04710   -0.33569    0.20520
  4 Ag   -0.00588    0.03486   -0.57495
  5 Ag    0.14426    0.16950   -0.49308
  6 Ag    0.04439   -0.00250   -0.48339
  7 Pd    0.22529    0.35747    0.06826
  8 Pd   -0.13057    0.12967    0.18809
  9 Pd   -0.03440    0.10927   -0.01752
 10 Pd    0.05070   -0.03187   -0.05956
 11 Pt   -0.12274   -0.15584    0.20289
 12 Ir    0.68998    0.15036   -0.00795
 13 Pt   -0.66997   -0.23648    0.34648
 14 Ag    0.06347   -0.01146    0.11010
 15 Pt   -0.32056    0.00047    0.16904
 16 Pd   -0.08690    0.24201    0.17921
 17 Pd    0.12260    0.01432    0.16463
 18 Ag   -0.01891    0.00626    0.01337
 19 Ag    0.00358   -0.01232   -0.00842
 20 Pt    0.01860   -0.00019    0.00901
 21 Ru   -0.01565    0.02165   -0.00103
 22 Pd   -0.03110   -0.00411    0.02694
 23 Pt    0.00673   -0.03546    0.01761
 24 Pt    0.00450   -0.00943   -0.00562
 25 Pt    0.00819   -0.01850   -0.01276
 26 Ag   -0.02266   -0.01817   -0.00620
 27 Ag   -0.01527    0.01375    0.06182
 28 Ag    0.00866   -0.01613    0.02289
 29 Pt    0.02386   -0.02888   -0.02919
 30 Ag    0.00325    0.04806    0.00372
 31 Pd    0.02184   -0.02583   -0.05514
 32 Ru   -0.00204   -0.01144    0.02806
 33 Pd    0.00935   -0.03404    0.06488
 34 Pt    0.00915    0.02203    0.04297
 35 Pd    0.00992   -0.01027    0.02415
 36 Pt   -0.02312    0.02119   -0.00886
 37 Pt   -0.00506    0.00725   -0.03340
 38 Ag    0.02546   -0.12070   -0.01920
 39 Pt   -0.06261   -0.02386    0.03603
 40 Ru    0.12666   -0.00234    0.04250
 41 Pt    0.01345   -0.03930   -0.03537
 42 Ir   -0.06717    0.08910    0.02676
 43 Pt    0.02823    0.03157    0.02541
 44 Ag    0.02400   -0.04156   -0.05532
 45 O    -0.18238    0.25725    0.08517
 46 H     0.00768   -0.17224   -0.06372

System changes: positions 

Initializing position-dependent things.

Density initialized from wave functions
                                             
                                             
                                             
                                             
                                             
                                             
                      H                      
                    O           Ag           
                  Ir     Pt                  
             Pt   PRu      Pt   Pd           
                         Pt                  
       Pt    APt    PAg    Ru                
                      Pt                     
        Ag     Ag    Pt     Pt     Ag        
                       Pd     Pt             
                Ru                           
           Ag     Ag    PPt    Pd            
                                             
            Ir     Pt     Ag     Pd          
       Pd     Pd    APt    Ag                
                                             
        Pd     Pt     Ag                     
                                             
                                             
                                             
                                             
                                             

Positions:
   0 Pd     0.000000    1.637674   10.000000    ( 0.0000,  0.0000,  0.0000)
   1 Pt     2.836535    1.637674   10.000000    ( 0.0000,  0.0000,  0.0000)
   2 Ag     5.673071    1.637674   10.000000    ( 0.0000,  0.0000,  0.0000)
   3 Pd     1.418268    4.094186   10.000000    ( 0.0000,  0.0000,  0.0000)
   4 Ag     4.254803    4.094186   10.000000    ( 0.0000,  0.0000,  0.0000)
   5 Ag     7.091338    4.094186   10.000000    ( 0.0000,  0.0000,  0.0000)
   6 Ag     2.836535    6.550698   10.000000    ( 0.0000,  0.0000,  0.0000)
   7 Pd     5.673071    6.550698   10.000000    ( 0.0000,  0.0000,  0.0000)
   8 Pd     8.509606    6.550698   10.000000    ( 0.0000,  0.0000,  0.0000)
   9 Pd     0.000000    0.000000   12.317643    ( 0.0000,  0.0000,  0.0000)
  10 Pd     2.836535    0.000000   12.317643    ( 0.0000,  0.0000,  0.0000)
  11 Pt     5.673071    0.000000   12.317643    ( 0.0000,  0.0000,  0.0000)
  12 Ir     1.418268    2.456512   12.317643    ( 0.0000,  0.0000,  0.0000)
  13 Pt     4.254803    2.456512   12.317643    ( 0.0000,  0.0000,  0.0000)
  14 Ag     7.091338    2.456512   12.317643    ( 0.0000,  0.0000,  0.0000)
  15 Pt     2.836535    4.913023   12.317643    ( 0.0000,  0.0000,  0.0000)
  16 Pd     5.673071    4.913023   12.317643    ( 0.0000,  0.0000,  0.0000)
  17 Pd     8.509606    4.913023   12.317643    ( 0.0000,  0.0000,  0.0000)
  18 Ag     1.378566    0.763469   14.606505    ( 0.0000,  0.0000,  0.0000)
  19 Ag     4.199090    0.785409   14.694634    ( 0.0000,  0.0000,  0.0000)
  20 Pt     7.021720    0.791349   14.657140    ( 0.0000,  0.0000,  0.0000)
  21 Ru     2.750746    3.303596   14.393925    ( 0.0000,  0.0000,  0.0000)
  22 Pd     5.575717    3.207149   14.664458    ( 0.0000,  0.0000,  0.0000)
  23 Pt     8.506183    3.249489   14.652961    ( 0.0000,  0.0000,  0.0000)
  24 Pt     4.151377    5.664617   14.609041    ( 0.0000,  0.0000,  0.0000)
  25 Pt     7.026775    5.596986   14.668218    ( 0.0000,  0.0000,  0.0000)
  26 Ag     9.851472    5.732563   14.701904    ( 0.0000,  0.0000,  0.0000)
  27 Ag    -0.041311    1.551643   16.932994    ( 0.0000,  0.0000,  0.0000)
  28 Ag     2.769009    1.606695   16.942134    ( 0.0000,  0.0000,  0.0000)
  29 Pt     5.585759    1.673493   17.149964    ( 0.0000,  0.0000,  0.0000)
  30 Ag     1.286817    4.054396   17.033183    ( 0.0000,  0.0000,  0.0000)
  31 Pd     4.108208    4.029292   16.824804    ( 0.0000,  0.0000,  0.0000)
  32 Ru     6.916910    4.029592   16.861713    ( 0.0000,  0.0000,  0.0000)
  33 Pd     2.729073    6.540651   17.023928    ( 0.0000,  0.0000,  0.0000)
  34 Pt     5.619139    6.397465   16.887389    ( 0.0000,  0.0000,  0.0000)
  35 Pd     8.394639    6.479294   17.077191    ( 0.0000,  0.0000,  0.0000)
  36 Pt     0.045105   -0.100195   19.240355    ( 0.0000,  0.0000,  0.0000)
  37 Pt     2.749517    0.016037   19.269545    ( 0.0000,  0.0000,  0.0000)
  38 Ag     5.724419    0.025271   19.492973    ( 0.0000,  0.0000,  0.0000)
  39 Pt     1.478489    2.416925   19.386655    ( 0.0000,  0.0000,  0.0000)
  40 Ru     4.124738    2.614199   19.416652    ( 0.0000,  0.0000,  0.0000)
  41 Pt     7.234967    2.533604   19.188719    ( 0.0000,  0.0000,  0.0000)
  42 Ir     3.022016    4.802744   19.166021    ( 0.0000,  0.0000,  0.0000)
  43 Pt     5.716361    4.823661   19.155562    ( 0.0000,  0.0000,  0.0000)
  44 Ag     8.590383    4.944896   19.583685    ( 0.0000,  0.0000,  0.0000)
  45 O      4.507584    2.160191   21.249930    ( 0.0000,  0.0000,  0.0000)
  46 H      5.157525    2.825971   21.597597    ( 0.0000,  0.0000,  0.0000)

Unit cell:
           periodic     x           y           z      points  spacing
  1. axis:    yes    8.509606    0.000000    0.000000    40     0.1842
  2. axis:    yes    4.254803    7.369535    0.000000    40     0.1842
  3. axis:    no     0.000000    0.000000   29.270571   140     0.2091

  Lengths:   8.509606   8.509606  29.270571
  Angles:   90.000000  90.000000  60.000000

Effective grid spacing dv^(1/3) = 0.2016

     iter     time        total  log10-change:
                         energy  eigst   dens
iter:   1 07:11:39  -199.247524  -3.89
iter:   2 07:12:38  -260.627992  -2.45  -1.94
iter:   3 07:13:38  -197.808574  -2.89  -1.35
iter:   4 07:14:37  -195.704182  -4.05  -2.14
iter:   5 07:15:37  -195.449041  -4.78  -2.59
iter:   6 07:16:36  -195.419516c -5.23  -3.03
iter:   7 07:17:36  -195.416555c -5.44  -3.24
iter:   8 07:18:35  -195.403069c -5.73  -3.31
iter:   9 07:19:34  -195.400132c -6.10  -3.57
iter:  10 07:20:34  -195.401437c -6.55  -3.53
iter:  11 07:21:33  -195.398874c -6.46  -3.77
iter:  12 07:22:32  -195.398815c -6.82  -3.77
iter:  13 07:23:32  -195.400126c -7.15  -3.96
iter:  14 07:24:31  -195.398117c -7.34  -3.96
iter:  15 07:25:30  -195.398944c -7.37  -4.12c
iter:  16 07:26:30  -195.399676c -7.66c -4.20c

Converged after 16 iterations.

Dipole moment: (-3.538518, 11.069930, -0.194335) |e|*Ang

Energy contributions relative to reference atoms: (reference = -12373371.003080)

Kinetic:       -225.183725
Potential:      +98.950463
External:        +0.000000
XC:             -61.220549
Entropy (-ST):   -1.837928
Local:           -7.026902
--------------------------
Free energy:   -196.318640
Extrapolated:  -195.399676

Showing only first 2 kpts
 Kpt  Band  Eigenvalues  Occupancy
  0   367      0.84686    0.91535
  0   368      0.89111    0.70310
  0   369      0.90874    0.62499
  0   370      0.95516    0.44447

  1   367      0.69462    1.58915
  1   368      0.73046    1.45989
  1   369      0.76086    1.33208
  1   370      0.79337    1.18060


Fermi level: 0.82989

No gap

Forces in eV/Ang:
  0 Pd    0.69708    0.04987    0.11249
  1 Pt   -0.59380   -0.14404    0.56952
  2 Ag   -0.09753   -0.07969   -0.54160
  3 Pd   -0.04305   -0.33719    0.22561
  4 Ag   -0.00678    0.03209   -0.55817
  5 Ag    0.14239    0.16648   -0.47547
  6 Ag    0.04461   -0.00210   -0.46508
  7 Pd    0.21978    0.35088    0.08417
  8 Pd   -0.12525    0.13212    0.20699
  9 Pd   -0.03621    0.10613   -0.01348
 10 Pd    0.04677   -0.02830   -0.05348
 11 Pt   -0.11436   -0.15461    0.20456
 12 Ir    0.69199    0.15651    0.01021
 13 Pt   -0.67002   -0.22826    0.35476
 14 Ag    0.06208   -0.00898    0.11558
 15 Pt   -0.31918   -0.00358    0.18228
 16 Pd   -0.09080    0.23791    0.18803
 17 Pd    0.12681    0.00700    0.17438
 18 Ag   -0.00911    0.00551    0.01442
 19 Ag   -0.00328   -0.00617    0.00362
 20 Pt    0.01031   -0.00518    0.01588
 21 Ru   -0.01295    0.01591   -0.00233
 22 Pd   -0.02632    0.00006    0.02631
 23 Pt   -0.00450   -0.02593    0.01610
 24 Pt    0.00529   -0.01077    0.00432
 25 Pt   -0.00379   -0.02821    0.00118
 26 Ag   -0.01565   -0.01662   -0.00321
 27 Ag   -0.00858    0.01205    0.05287
 28 Ag    0.01320    0.00159    0.04282
 29 Pt    0.01172   -0.02123   -0.00257
 30 Ag    0.00491    0.01738    0.01033
 31 Pd    0.02339   -0.02293   -0.00897
 32 Ru   -0.01498   -0.01725    0.01395
 33 Pd    0.02078   -0.02811    0.02870
 34 Pt   -0.00083    0.00279    0.01765
 35 Pd   -0.00283    0.00010    0.00622
 36 Pt   -0.00940    0.02155    0.00302
 37 Pt    0.02325    0.02124    0.00608
 38 Ag   -0.00242   -0.06541    0.02152
 39 Pt   -0.00998    0.00387    0.01973
 40 Ru    0.09380   -0.03124   -0.00657
 41 Pt   -0.02419   -0.03672    0.02599
 42 Ir   -0.02003   -0.00465    0.00984
 43 Pt   -0.00251    0.01947    0.00450
 44 Ag    0.01788   -0.04449   -0.03596
 45 O     0.00902    0.00725   -0.01041
 46 H    -0.00283   -0.05840   -0.02182

Timing:                                      incl.     excl.
-------------------------------------------------------------------
Density initialized from wave functions:   101.730   101.729   0.3% |
 Symmetrize density:                         0.001     0.001   0.0% |
Forces:                                    461.859   461.859   1.3% ||
Hamiltonian:                                53.099     0.262   0.0% |
 Atomic:                                     5.211     2.899   0.0% |
  XC Correction:                             2.312     2.312   0.0% |
 Calculate atomic Hamiltonians:             38.126    38.126   0.1% |
 Communicate:                                3.058     3.058   0.0% |
 Initialize Hamiltonian:                     0.001     0.001   0.0% |
 Poisson:                                    0.147     0.147   0.0% |
 XC 3D grid:                                 6.294     6.294   0.0% |
LCAO initialization:                       140.704     2.841   0.0% |
 LCAO eigensolver:                          15.968     0.001   0.0% |
  Blacs Orbital Layouts:                     0.327     0.000   0.0% |
   General diagonalize:                      0.320     0.320   0.0% |
   Redistribute coefs:                       0.005     0.005   0.0% |
   Send coefs to domains:                    0.002     0.002   0.0% |
  Calculate projections:                     0.004     0.004   0.0% |
  Distribute overlap matrix:                14.852     0.000   0.0% |
   Scalapack redistribute:                   0.016     0.016   0.0% |
   blocked summation:                       14.835    14.835   0.0% |
  Potential matrix:                          0.741     0.741   0.0% |
  SparseAtomicCorrection:                    0.004     0.004   0.0% |
  Sum over cells:                            0.039     0.039   0.0% |
 LCAO to grid:                             118.476   118.476   0.3% |
 Set positions (LCAO WFS):                   3.418     0.006   0.0% |
  Basic WFS set positions:                   0.003     0.003   0.0% |
  Basis functions set positions:             0.000     0.000   0.0% |
  P tci:                                     0.000     0.000   0.0% |
  ST tci:                                    0.286     0.286   0.0% |
  Scalapack redistribute:                    0.007     0.007   0.0% |
  blocked summation:                         3.003     3.003   0.0% |
  mktci:                                     0.112     0.112   0.0% |
PWDescriptor:                                0.653     0.653   0.0% |
Redistribute:                                0.029     0.029   0.0% |
SCF-cycle:                               33411.142  2118.099   6.2% |-|
 Davidson:                               28808.182  6801.817  19.8% |-------|
  Apply H:                                2797.548  2736.889   8.0% |--|
   HMM T:                                   60.659    60.659   0.2% |
  Subspace diag:                          3352.308     0.084   0.0% |
   calc_h_matrix:                         2193.087   655.629   1.9% ||
    Apply H:                              1537.459  1501.385   4.4% |-|
     HMM T:                                 36.074    36.074   0.1% |
   diagonalize:                            107.961   107.961   0.3% |
   rotate_psi:                            1051.175  1051.175   3.1% ||
  calc. matrices:                        10936.340  6794.251  19.8% |-------|
   Apply H:                               4142.090  4049.764  11.8% |----|
    HMM T:                                  92.326    92.326   0.3% |
  diagonalize:                            1634.104  1634.104   4.8% |-|
  rotate_psi:                             3286.064  3286.064   9.6% |---|
 Density:                                 1550.782     0.019   0.0% |
  Atomic density matrices:                   9.433     9.433   0.0% |
  Mix:                                     616.624   616.624   1.8% ||
  Multipole moments:                         0.770     0.770   0.0% |
  Pseudo density:                          923.936   923.914   2.7% ||
   Symmetrize density:                       0.021     0.021   0.0% |
 Hamiltonian:                              808.462     4.013   0.0% |
  Atomic:                                   56.981    23.740   0.1% |
   XC Correction:                           33.241    33.241   0.1% |
  Calculate atomic Hamiltonians:           542.189   542.189   1.6% ||
  Communicate:                              91.504    91.504   0.3% |
  Poisson:                                   2.224     2.224   0.0% |
  XC 3D grid:                              111.551   111.551   0.3% |
 Orthonormalize:                           125.617     0.008   0.0% |
  calc_s_matrix:                            20.379    20.379   0.1% |
  inverse-cholesky:                          5.968     5.968   0.0% |
  projections:                              65.376    65.376   0.2% |
  rotate_psi_s:                             33.885    33.885   0.1% |
Set symmetry:                                0.002     0.002   0.0% |
Other:                                     144.642   144.642   0.4% |
-------------------------------------------------------------------
Total:                                             34313.859 100.0%

Memory usage: 869.30 MiB
Date: Fri Jun 14 07:26:44 2024
