
  ___ ___ ___ _ _ _  
 |   |   |_  | | | | 
 | | | | | . | | | | 
 |__ |  _|___|_____|  22.1.0
 |___|_|             

User:   clausen@node423.cluster
Date:   Fri Jun 14 12:15:30 2024
Arch:   x86_64
Pid:    159176
Python: 3.10.4
gpaw:   /groups/kemi/clausen/miniconda3/envs/gpaw22/lib/python3.10/site-packages/gpaw
_gpaw:  /groups/kemi/clausen/miniconda3/envs/gpaw22/lib/python3.10/site-packages/
        _gpaw.cpython-310-x86_64-linux-gnu.so
ase:    /groups/kemi/clausen/miniconda3/envs/gpaw22/lib/python3.10/site-packages/ase (version 3.22.1)
numpy:  /groups/kemi/clausen/miniconda3/envs/gpaw22/lib/python3.10/site-packages/numpy (version 1.23.1)
scipy:  /groups/kemi/clausen/miniconda3/envs/gpaw22/lib/python3.10/site-packages/scipy (version 1.8.1)
libxc:  5.2.3
units:  Angstrom and eV
cores: 24
OpenMP: True
OMP_NUM_THREADS: 1

Input parameters:
  eigensolver: {name: dav,
                niter: 3}
  kpts: [4 4 1]
  mode: {ecut: 400.0,
         name: pw}
  xc: RPBE

System changes: positions, numbers, cell, pbc, initial_charges, initial_magmoms 

Initialize ...

Pd-setup:
  name: Palladium
  id: 6da19bfba079f22767af9506641940b9
  Z: 46.0
  valence: 16
  core: 30
  charge: 0.0
  file: /groups/kemi/clausen/miniconda3/envs/gpaw22/share/gpaw/Pd.RPBE.gz
  compensation charges: gauss, rc=0.38, lmax=2
  cutoffs: 2.38(filt), 2.28(core),
  valence states:
                energy  radius
    5s(0.00)    -3.225   1.228
    4p(6.00)   -51.131   1.360
    5p(0.00)    -0.373   1.360
    4d(10.00)    -3.964   1.228
    *s          23.987   1.228
    *d          23.247   1.228

  Using partial waves for Pd as LCAO basis

Pt-setup:
  name: Platinum
  id: f04f522592575c47ad794f6b4a415b4b
  Z: 78.0
  valence: 16
  core: 62
  charge: 0.0
  file: /groups/kemi/clausen/miniconda3/envs/gpaw22/share/gpaw/Pt.RPBE.gz
  compensation charges: gauss, rc=0.41, lmax=2
  cutoffs: 2.26(filt), 2.26(core),
  valence states:
                energy  radius
    6s(1.00)    -5.516   1.307
    5p(6.00)   -55.971   1.371
    6p(0.00)    -0.856   1.371
    5d(9.00)    -6.087   1.307
    *s          21.695   1.307
    *d          21.125   1.307

  Using partial waves for Pt as LCAO basis

Ru-setup:
  name: Ruthenium
  id: 76477906e28f51dc1b29884d53556fe9
  Z: 44.0
  valence: 16
  core: 28
  charge: 0.0
  file: /groups/kemi/clausen/miniconda3/envs/gpaw22/share/gpaw/Ru.RPBE.gz
  compensation charges: gauss, rc=0.39, lmax=2
  cutoffs: 2.16(filt), 1.30(core),
  valence states:
                energy  radius
    4s(2.00)   -76.255   1.281
    5s(1.00)    -4.126   1.281
    4p(6.00)   -46.371   1.286
    5p(0.00)    -0.913   1.286
    4d(7.00)    -5.146   1.254
    *d          22.066   1.254

  Using partial waves for Ru as LCAO basis

Ag-setup:
  name: Silver
  id: c05e55bab2c3858b3f9398f6d75cb77c
  Z: 47.0
  valence: 17
  core: 30
  charge: 0.0
  file: /groups/kemi/clausen/miniconda3/envs/gpaw22/share/gpaw/Ag.RPBE.gz
  compensation charges: gauss, rc=0.40, lmax=2
  cutoffs: 2.35(filt), 2.19(core),
  valence states:
                energy  radius
    5s(1.00)    -4.277   1.286
    4p(6.00)   -58.523   1.328
    5p(0.00)    -0.755   1.328
    4d(10.00)    -7.386   1.180
    *s          22.934   1.286
    *d          19.826   1.180

  Using partial waves for Ag as LCAO basis

Ir-setup:
  name: Iridium
  id: 73b603359d1d5397a85ae3c2440f9033
  Z: 77.0
  valence: 15
  core: 62
  charge: 0.0
  file: /groups/kemi/clausen/miniconda3/envs/gpaw22/share/gpaw/Ir.RPBE.gz
  compensation charges: gauss, rc=0.40, lmax=2
  cutoffs: 2.40(filt), 2.36(core),
  valence states:
                energy  radius
    6s(2.00)    -6.219   1.296
    5p(6.00)   -54.684   1.328
    6p(0.00)    -1.215   1.328
    5d(7.00)    -7.118   1.286
    *s          20.992   1.296
    *d          20.093   1.286

  Using partial waves for Ir as LCAO basis

H-setup:
  name: Hydrogen
  id: ea3f9156a1dc40d47a60fdce8f8bd75d
  Z: 1.0
  valence: 1
  core: 0
  charge: 0.0
  file: /groups/kemi/clausen/miniconda3/envs/gpaw22/share/gpaw/H.RPBE.gz
  compensation charges: gauss, rc=0.15, lmax=2
  cutoffs: 0.85(filt), 0.53(core),
  valence states:
                energy  radius
    1s(1.00)    -6.572   0.476
    *s          20.639   0.476
    *p           0.000   0.476

  Using partial waves for H as LCAO basis

Reference energy: -14172748.147892

Spin-paired calculation

Convergence criteria:
 Maximum [total energy] change in last 3 cyles: 0.0005 eV / electron
 Maximum integral of absolute [dens]ity change: 0.0001 electrons / valence electron
 Maximum integral of absolute [eigenst]ate change: 4e-08 eV^2 / valence electron
 Maximum number of scf [iter]ations: 333
 (Square brackets indicate name in SCF output, whereas a 'c' in
 the SCF output indicates the quantity has converged.)

Symmetries present (total): 1

  ( 1  0  0)
  ( 0  1  0)
  ( 0  0  1)

16 k-points: 4 x 4 x 1 Monkhorst-Pack grid
8 k-points in the irreducible part of the Brillouin zone
       k-points in crystal coordinates                weights
   0:     0.12500000   -0.37500000    0.00000000          2/16
   1:     0.12500000   -0.12500000    0.00000000          2/16
   2:     0.12500000    0.12500000    0.00000000          2/16
   3:     0.12500000    0.37500000    0.00000000          2/16
   4:     0.37500000   -0.37500000    0.00000000          2/16
   5:     0.37500000   -0.12500000    0.00000000          2/16
   6:     0.37500000    0.12500000    0.00000000          2/16
   7:     0.37500000    0.37500000    0.00000000          2/16

Wave functions: Plane wave expansion
  Cutoff energy: 400.000 eV
  Number of coefficients (min, max): 33332, 33436
  Pulay-stress correction: 0.000000 eV/Ang^3 (de/decut=0.000000)
  Using FFTW library
  ScaLapack parameters: grid=3x1, blocksize=64
  Wavefunction extrapolation:
    Improved wavefunction reuse through dual PAW basis 

Occupation numbers: Fermi-Dirac: width=0.1000 eV
 

Eigensolver
   Davidson(niter=3) 

Densities:
  Coarse grid: 40*40*140 grid
  Fine grid: 80*80*280 grid
  Total Charge: 0.000000 

Density mixing:
  Method: separate
  Backend: pulay
  Linear mixing parameter: 0.05
  Mixing with 5 old densities
  Damping of long wave oscillations: 50 

Hamiltonian:
  XC and Coulomb potentials evaluated on a 80*80*280 grid
  Using the RPBE Exchange-Correlation functional
  External potential:
    NoExternalPotential
 

XC parameters: RPBE with 2 nearest neighbor stencil

Memory estimate:
  Process memory now: 196.14 MiB
  Calculator: 554.47 MiB
    Density: 47.45 MiB
      Arrays: 14.92 MiB
      Localized functions: 26.79 MiB
      Mixer: 5.74 MiB
    Hamiltonian: 10.59 MiB
      Arrays: 9.75 MiB
      XC: 0.00 MiB
      Poisson: 0.00 MiB
      vbar: 0.84 MiB
    Wavefunctions: 496.43 MiB
      Arrays psit_nG: 225.00 MiB
      Eigensolver: 257.23 MiB
      Projections: 1.83 MiB
      Projectors: 3.57 MiB
      PW-descriptor: 8.80 MiB

Total number of cores used: 24
Parallelization over k-points: 8
Domain decomposition: 1 x 1 x 3
                      2 x 2 x 6 (xc only)

Number of atoms: 46
Number of atomic orbitals: 543
Number of bands in calculation: 441
Number of valence electrons: 727
Bands to converge: occupied

... initialized

Initializing position-dependent things.

Density initialized from atomic densities
Creating initial wave functions:
  441 bands from LCAO basis set

                                             
                                             
                                             
                                             
                                             
                                             
                H       Ag                   
                 Pt            Pt            
            Pt    PPd    APd    Pt           
                                             
       Pt    IPt    PPt    Pd                
                                             
        Pt     Pd    APd    Pt     Ag        
                Pt     Pd     Pt             
                                             
           Pt    APt    ARu    Pt            
                                             
            Pd    PPt    PAg    Ru           
       Pd     Pt     Pd                      
             Pd     Pd     Pt                
        Pd     Pt     Pt                     
                                             
                                             
                                             
                                             
                                             

Positions:
   0 Pd     0.000000    1.639149   10.000000    ( 0.0000,  0.0000,  0.0000)
   1 Pt     2.839089    1.639149   10.000000    ( 0.0000,  0.0000,  0.0000)
   2 Pt     5.678177    1.639149   10.000000    ( 0.0000,  0.0000,  0.0000)
   3 Pd     1.419544    4.097872   10.000000    ( 0.0000,  0.0000,  0.0000)
   4 Pd     4.258633    4.097872   10.000000    ( 0.0000,  0.0000,  0.0000)
   5 Pt     7.097722    4.097872   10.000000    ( 0.0000,  0.0000,  0.0000)
   6 Pd     2.839089    6.556595   10.000000    ( 0.0000,  0.0000,  0.0000)
   7 Pt     5.678177    6.556595   10.000000    ( 0.0000,  0.0000,  0.0000)
   8 Ru     8.517266    6.556595   10.000000    ( 0.0000,  0.0000,  0.0000)
   9 Pd     0.000000    0.000000   12.317643    ( 0.0000,  0.0000,  0.0000)
  10 Pt     2.839089    0.000000   12.317643    ( 0.0000,  0.0000,  0.0000)
  11 Pd     5.678177    0.000000   12.317643    ( 0.0000,  0.0000,  0.0000)
  12 Pd     1.419544    2.458723   12.317643    ( 0.0000,  0.0000,  0.0000)
  13 Pt     4.258633    2.458723   12.317643    ( 0.0000,  0.0000,  0.0000)
  14 Ag     7.097722    2.458723   12.317643    ( 0.0000,  0.0000,  0.0000)
  15 Ag     2.839089    4.917446   12.317643    ( 0.0000,  0.0000,  0.0000)
  16 Ag     5.678177    4.917446   12.317643    ( 0.0000,  0.0000,  0.0000)
  17 Pt     8.517266    4.917446   12.317643    ( 0.0000,  0.0000,  0.0000)
  18 Pt     1.382601    0.802015   14.574458    ( 0.0000,  0.0000,  0.0000)
  19 Pt     4.320375    0.816336   14.613039    ( 0.0000,  0.0000,  0.0000)
  20 Ru     7.144265    0.918131   14.702206    ( 0.0000,  0.0000,  0.0000)
  21 Pt     2.831254    3.224549   14.674209    ( 0.0000,  0.0000,  0.0000)
  22 Pd     5.669505    3.253449   14.666412    ( 0.0000,  0.0000,  0.0000)
  23 Pt     8.531860    3.282380   14.648110    ( 0.0000,  0.0000,  0.0000)
  24 Ag     4.274318    5.722991   14.646070    ( 0.0000,  0.0000,  0.0000)
  25 Pt     7.164045    5.771726   14.621475    ( 0.0000,  0.0000,  0.0000)
  26 Ag     9.986908    5.738787   14.643456    ( 0.0000,  0.0000,  0.0000)
  27 Pt    -0.010030    1.649760   16.860047    ( 0.0000,  0.0000,  0.0000)
  28 Pd     2.846447    1.596866   16.907942    ( 0.0000,  0.0000,  0.0000)
  29 Pd     5.675289    1.629573   16.927321    ( 0.0000,  0.0000,  0.0000)
  30 Ir     1.434330    4.054121   16.976739    ( 0.0000,  0.0000,  0.0000)
  31 Pt     4.206017    4.046333   16.977057    ( 0.0000,  0.0000,  0.0000)
  32 Pd     7.080668    4.096815   16.929692    ( 0.0000,  0.0000,  0.0000)
  33 Pd     2.838049    6.583929   16.905471    ( 0.0000,  0.0000,  0.0000)
  34 Ag     5.672922    6.523405   16.970942    ( 0.0000,  0.0000,  0.0000)
  35 Pt     8.525101    6.536969   16.950374    ( 0.0000,  0.0000,  0.0000)
  36 Pt    -0.017716    0.053004   19.239954    ( 0.0000,  0.0000,  0.0000)
  37 Pt     2.857597    0.044181   19.266473    ( 0.0000,  0.0000,  0.0000)
  38 Pt     5.659519   -0.012970   19.233800    ( 0.0000,  0.0000,  0.0000)
  39 Pt     1.394642    2.415452   19.172426    ( 0.0000,  0.0000,  0.0000)
  40 Pd     4.249890    2.430035   19.273035    ( 0.0000,  0.0000,  0.0000)
  41 Pd     7.120027    2.427105   19.248801    ( 0.0000,  0.0000,  0.0000)
  42 Pt     2.796750    4.960022   19.159701    ( 0.0000,  0.0000,  0.0000)
  43 Ag     5.679377    4.925181   19.423236    ( 0.0000,  0.0000,  0.0000)
  44 Pt     8.558870    4.929592   19.192007    ( 0.0000,  0.0000,  0.0000)
  45 H      2.813761    3.268503   20.723236    ( 0.0000,  0.0000,  0.0000)

Unit cell:
           periodic     x           y           z      points  spacing
  1. axis:    yes    8.517266    0.000000    0.000000    40     0.1844
  2. axis:    yes    4.258633    7.376169    0.000000    40     0.1844
  3. axis:    no     0.000000    0.000000   29.270571   140     0.2091

  Lengths:   8.517266   8.517266  29.270571
  Angles:   90.000000  90.000000  60.000000

Effective grid spacing dv^(1/3) = 0.2017

     iter     time        total  log10-change:
                         energy  eigst   dens
iter:   1 12:18:44  -253.522467
iter:   2 12:19:41  -218.810421  -1.66  -1.21
iter:   3 12:20:39  -216.811033  -2.30  -1.38
iter:   4 12:21:36  -257.641968  -2.32  -1.40
iter:   5 12:22:34  -213.120674  -2.46  -1.27
iter:   6 12:23:32  -204.519989  -2.60  -1.49
iter:   7 12:24:31  -201.338349  -2.68  -1.63
iter:   8 12:25:29  -200.581714  -2.82  -1.81
iter:   9 12:26:28  -200.250080  -3.53  -1.98
iter:  10 12:27:27  -200.230520c -3.66  -2.07
iter:  11 12:28:26  -201.022559  -3.95  -2.13
iter:  12 12:29:25  -200.213403  -3.88  -2.02
iter:  13 12:30:23  -200.676304  -3.91  -2.17
iter:  14 12:31:22  -199.744959  -3.99  -2.13
iter:  15 12:32:21  -199.817665  -4.14  -2.42
iter:  16 12:33:20  -199.623823c -4.20  -2.40
iter:  17 12:34:18  -199.589589c -4.13  -2.64
iter:  18 12:35:17  -199.572847c -4.61  -2.80
iter:  19 12:36:16  -199.550489c -4.84  -2.84
iter:  20 12:37:15  -199.551098c -5.45  -3.04
iter:  21 12:38:14  -199.556770c -5.48  -3.13
iter:  22 12:39:13  -199.554440c -5.65  -3.08
iter:  23 12:40:12  -199.549870c -5.73  -3.09
iter:  24 12:41:11  -199.549614c -5.86  -3.28
iter:  25 12:42:12  -199.548873c -5.82  -3.42
iter:  26 12:43:12  -199.550490c -6.42  -3.45
iter:  27 12:44:12  -199.550657c -6.42  -3.51
iter:  28 12:45:13  -199.549071c -6.88  -3.48
iter:  29 12:46:13  -199.549025c -6.80  -3.57
iter:  30 12:47:13  -199.549383c -6.76  -3.64
iter:  31 12:48:14  -199.548853c -7.02  -3.61
iter:  32 12:49:14  -199.548718c -6.89  -3.74
iter:  33 12:50:15  -199.549181c -7.10  -3.87
iter:  34 12:51:15  -199.548717c -7.47c -3.95
iter:  35 12:52:16  -199.548895c -7.65c -4.04c

Converged after 35 iterations.

Dipole moment: (27.938235, 10.941874, -0.034622) |e|*Ang

Energy contributions relative to reference atoms: (reference = -14172748.147892)

Kinetic:       -325.942885
Potential:     +178.497190
External:        +0.000000
XC:             -39.885261
Entropy (-ST):   -2.353687
Local:          -11.041095
--------------------------
Free energy:   -200.725739
Extrapolated:  -199.548895

Showing only first 2 kpts
 Kpt  Band  Eigenvalues  Occupancy
  0   361      0.65029    0.98445
  0   362      0.66670    0.90270
  0   363      0.70882    0.70120
  0   364      0.71567    0.67031

  1   361      0.52098    1.55875
  1   362      0.54946    1.45311
  1   363      0.58191    1.31522
  1   364      0.60885    1.18931


Fermi level: 0.64718

No gap

Forces in eV/Ang:
  0 Pd    0.00739   -0.00866   -0.26878
  1 Pt    0.30893   -0.52388    0.37546
  2 Pt   -0.33848   -0.14321    0.00872
  3 Pd   -0.41651    0.17977   -0.08262
  4 Pd    0.22324   -0.22701   -0.24473
  5 Pt    0.22577    0.32189   -0.19775
  6 Pd   -0.21947    0.23212   -0.10078
  7 Pt    0.55615    0.16319    0.08015
  8 Ru   -0.48792    0.06804    1.35961
  9 Pd   -0.22913    0.17062    0.20070
 10 Pt    0.28943    0.00514   -0.22733
 11 Pd    0.04152    0.04114   -0.07080
 12 Pd    0.08978    0.11034    0.01237
 13 Pt   -0.20537   -0.16312    0.17331
 14 Ag    0.05466   -0.12079    0.08305
 15 Ag   -0.00911   -0.07841   -0.10168
 16 Ag   -0.06195   -0.05877    0.08508
 17 Pt    0.03560    0.23237   -0.56034
 18 Pt   -0.02116    0.02280    0.02791
 19 Pt    0.06062    0.01505   -0.00899
 20 Ru   -0.02729   -0.07506   -0.29205
 21 Pt    0.04291   -0.01902   -0.00678
 22 Pd    0.05931   -0.02828   -0.00183
 23 Pt   -0.03664   -0.05131    0.04299
 24 Ag    0.03430   -0.00692   -0.01018
 25 Pt   -0.00024   -0.02170    0.00066
 26 Ag    0.00929    0.02626   -0.04939
 27 Pt    0.14138    0.17035    0.08670
 28 Pd    0.02070   -0.01296   -0.11221
 29 Pd   -0.01946    0.03835    0.02762
 30 Ir   -0.02710   -0.01042   -0.14745
 31 Pt   -0.01179   -0.04663   -0.12959
 32 Pd    0.00188   -0.04671   -0.01660
 33 Pd   -0.02408   -0.09437    0.19115
 34 Ag    0.00087   -0.04352    0.01488
 35 Pt    0.03382   -0.06129   -0.01864
 36 Pt   -0.04003   -0.05032   -0.03887
 37 Pt    0.02679   -0.19253   -0.02342
 38 Pt   -0.02541   -0.04513   -0.06664
 39 Pt    0.30569    0.14913    0.71909
 40 Pd   -0.27736    0.18916    0.66549
 41 Pd   -0.02088    0.03330   -0.05858
 42 Pt    0.06899   -0.18024    0.68937
 43 Ag    0.03004    0.03954    0.08427
 44 Pt   -0.11040    0.09011   -0.06054
 45 H    -0.05808    0.00987   -1.87781

System changes: positions 

Initializing position-dependent things.

Density initialized from wave functions
                                             
                                             
                                             
                                             
                                             
                                             
                H       Ag                   
                 Pt            Pt            
            Pt    PPd    APd    Pt           
                                             
       Pt    IPt    PPt    Pd                
                                             
        Pt     Pd    APd    Pt     Ag        
                Pt     Pd     Pt             
                                             
           Pt    APt    ARu    Pt            
                                             
            Pd    PPt    PAg    Ru           
       Pd     Pt     Pd                      
             Pd     Pd     Pt                
        Pd     Pt     Pt                     
                                             
                                             
                                             
                                             
                                             

Positions:
   0 Pd     0.000000    1.639149   10.000000    ( 0.0000,  0.0000,  0.0000)
   1 Pt     2.839089    1.639149   10.000000    ( 0.0000,  0.0000,  0.0000)
   2 Pt     5.678177    1.639149   10.000000    ( 0.0000,  0.0000,  0.0000)
   3 Pd     1.419544    4.097872   10.000000    ( 0.0000,  0.0000,  0.0000)
   4 Pd     4.258633    4.097872   10.000000    ( 0.0000,  0.0000,  0.0000)
   5 Pt     7.097722    4.097872   10.000000    ( 0.0000,  0.0000,  0.0000)
   6 Pd     2.839089    6.556595   10.000000    ( 0.0000,  0.0000,  0.0000)
   7 Pt     5.678177    6.556595   10.000000    ( 0.0000,  0.0000,  0.0000)
   8 Ru     8.517266    6.556595   10.000000    ( 0.0000,  0.0000,  0.0000)
   9 Pd     0.000000    0.000000   12.317643    ( 0.0000,  0.0000,  0.0000)
  10 Pt     2.839089    0.000000   12.317643    ( 0.0000,  0.0000,  0.0000)
  11 Pd     5.678177    0.000000   12.317643    ( 0.0000,  0.0000,  0.0000)
  12 Pd     1.419544    2.458723   12.317643    ( 0.0000,  0.0000,  0.0000)
  13 Pt     4.258633    2.458723   12.317643    ( 0.0000,  0.0000,  0.0000)
  14 Ag     7.097722    2.458723   12.317643    ( 0.0000,  0.0000,  0.0000)
  15 Ag     2.839089    4.917446   12.317643    ( 0.0000,  0.0000,  0.0000)
  16 Ag     5.678177    4.917446   12.317643    ( 0.0000,  0.0000,  0.0000)
  17 Pt     8.517266    4.917446   12.317643    ( 0.0000,  0.0000,  0.0000)
  18 Pt     1.382298    0.802341   14.574856    ( 0.0000,  0.0000,  0.0000)
  19 Pt     4.321241    0.816551   14.612910    ( 0.0000,  0.0000,  0.0000)
  20 Ru     7.143875    0.917059   14.698034    ( 0.0000,  0.0000,  0.0000)
  21 Pt     2.831867    3.224277   14.674113    ( 0.0000,  0.0000,  0.0000)
  22 Pd     5.670352    3.253045   14.666386    ( 0.0000,  0.0000,  0.0000)
  23 Pt     8.531337    3.281647   14.648725    ( 0.0000,  0.0000,  0.0000)
  24 Ag     4.274808    5.722892   14.645925    ( 0.0000,  0.0000,  0.0000)
  25 Pt     7.164041    5.771416   14.621484    ( 0.0000,  0.0000,  0.0000)
  26 Ag     9.987041    5.739162   14.642750    ( 0.0000,  0.0000,  0.0000)
  27 Pt    -0.008010    1.652194   16.861285    ( 0.0000,  0.0000,  0.0000)
  28 Pd     2.846743    1.596680   16.906339    ( 0.0000,  0.0000,  0.0000)
  29 Pd     5.675011    1.630121   16.927715    ( 0.0000,  0.0000,  0.0000)
  30 Ir     1.433943    4.053972   16.974633    ( 0.0000,  0.0000,  0.0000)
  31 Pt     4.205849    4.045667   16.975206    ( 0.0000,  0.0000,  0.0000)
  32 Pd     7.080695    4.096147   16.929455    ( 0.0000,  0.0000,  0.0000)
  33 Pd     2.837705    6.582581   16.908202    ( 0.0000,  0.0000,  0.0000)
  34 Ag     5.672934    6.522784   16.971155    ( 0.0000,  0.0000,  0.0000)
  35 Pt     8.525584    6.536093   16.950108    ( 0.0000,  0.0000,  0.0000)
  36 Pt    -0.018288    0.052285   19.239399    ( 0.0000,  0.0000,  0.0000)
  37 Pt     2.857979    0.041431   19.266138    ( 0.0000,  0.0000,  0.0000)
  38 Pt     5.659156   -0.013615   19.232848    ( 0.0000,  0.0000,  0.0000)
  39 Pt     1.399009    2.417583   19.182699    ( 0.0000,  0.0000,  0.0000)
  40 Pd     4.245927    2.432737   19.282542    ( 0.0000,  0.0000,  0.0000)
  41 Pd     7.119729    2.427581   19.247965    ( 0.0000,  0.0000,  0.0000)
  42 Pt     2.797735    4.957447   19.169549    ( 0.0000,  0.0000,  0.0000)
  43 Ag     5.679806    4.925746   19.424439    ( 0.0000,  0.0000,  0.0000)
  44 Pt     8.557293    4.930880   19.191142    ( 0.0000,  0.0000,  0.0000)
  45 H      2.812931    3.268644   20.696410    ( 0.0000,  0.0000,  0.0000)

Unit cell:
           periodic     x           y           z      points  spacing
  1. axis:    yes    8.517266    0.000000    0.000000    40     0.1844
  2. axis:    yes    4.258633    7.376169    0.000000    40     0.1844
  3. axis:    no     0.000000    0.000000   29.270571   140     0.2091

  Lengths:   8.517266   8.517266  29.270571
  Angles:   90.000000  90.000000  60.000000

Effective grid spacing dv^(1/3) = 0.2017

     iter     time        total  log10-change:
                         energy  eigst   dens
iter:   1 12:53:35  -200.261731  -4.21
iter:   2 12:54:35  -221.636606  -3.11  -2.29
iter:   3 12:55:34  -200.449497  -3.39  -1.62
iter:   4 12:56:34  -199.730879  -4.52  -2.31
iter:   5 12:57:33  -199.639513  -5.29  -2.72
iter:   6 12:58:32  -199.635991c -5.72  -3.34
iter:   7 12:59:31  -199.638137c -6.04  -3.22
iter:   8 13:00:30  -199.628113c -6.10  -3.26
iter:   9 13:01:29  -199.627062c -6.52  -3.83
iter:  10 13:02:28  -199.627857c -6.94  -3.79
iter:  11 13:03:28  -199.627219c -7.23  -3.90
iter:  12 13:04:27  -199.627284c -7.50c -4.03c

Converged after 12 iterations.

Dipole moment: (27.801169, 11.078005, -0.025898) |e|*Ang

Energy contributions relative to reference atoms: (reference = -14172748.147892)

Kinetic:       -329.568018
Potential:     +182.035299
External:        +0.000000
XC:             -39.888471
Entropy (-ST):   -2.353162
Local:          -11.029513
--------------------------
Free energy:   -200.803865
Extrapolated:  -199.627284

Showing only first 2 kpts
 Kpt  Band  Eigenvalues  Occupancy
  0   361      0.65385    0.98392
  0   362      0.67017    0.90263
  0   363      0.71266    0.69944
  0   364      0.71970    0.66777

  1   361      0.52378    1.56098
  1   362      0.55169    1.45794
  1   363      0.58514    1.31623
  1   364      0.61296    1.18618


Fermi level: 0.65063

No gap

Forces in eV/Ang:
  0 Pd    0.01012   -0.01021   -0.26408
  1 Pt    0.30208   -0.51982    0.38193
  2 Pt   -0.33461   -0.14798    0.01223
  3 Pd   -0.41319    0.17781   -0.08463
  4 Pd    0.21781   -0.22371   -0.24428
  5 Pt    0.22718    0.31787   -0.19517
  6 Pd   -0.21993    0.23056   -0.10107
  7 Pt    0.54781    0.16610    0.08286
  8 Ru   -0.47703    0.06753    1.34260
  9 Pd   -0.23073    0.17148    0.17952
 10 Pt    0.28872    0.00911   -0.25491
 11 Pd    0.04416    0.04202   -0.09007
 12 Pd    0.08757    0.10505   -0.01153
 13 Pt   -0.20479   -0.16996    0.14702
 14 Ag    0.05600   -0.12044    0.06546
 15 Ag   -0.00946   -0.07286   -0.11022
 16 Ag   -0.06109   -0.05745    0.07386
 17 Pt    0.03550    0.23185   -0.58451
 18 Pt   -0.01252    0.01212    0.01997
 19 Pt    0.05508    0.00979   -0.01441
 20 Ru   -0.02774   -0.07939   -0.25993
 21 Pt    0.04064   -0.01284   -0.02261
 22 Pd    0.05054   -0.02148   -0.00680
 23 Pt   -0.03202   -0.04016    0.02427
 24 Ag    0.03001   -0.00488   -0.00929
 25 Pt   -0.00610   -0.01815   -0.00992
 26 Ag    0.01633    0.02606   -0.04797
 27 Pt    0.10993    0.12481    0.09979
 28 Pd    0.01821   -0.01627   -0.05401
 29 Pd   -0.01399    0.02735    0.04318
 30 Ir   -0.01600   -0.00819   -0.10098
 31 Pt   -0.01085   -0.04117   -0.07654
 32 Pd   -0.00736   -0.04096   -0.00559
 33 Pd   -0.01383   -0.07242    0.16621
 34 Ag   -0.00565   -0.03563    0.01544
 35 Pt    0.03117   -0.04248   -0.02058
 36 Pt   -0.03650   -0.02511   -0.09642
 37 Pt    0.02414   -0.16494   -0.09463
 38 Pt   -0.01520   -0.02369   -0.11251
 39 Pt    0.26518    0.12680    0.56887
 40 Pd   -0.21156    0.13434    0.49108
 41 Pd   -0.01658    0.01756   -0.10071
 42 Pt    0.05002   -0.16552    0.53910
 43 Ag    0.03489    0.03542    0.03407
 44 Pt   -0.10131    0.07530   -0.11008
 45 H    -0.07112    0.01621   -1.86368

System changes: positions 

Initializing position-dependent things.

Density initialized from wave functions
                                             
                                             
                                             
                                             
                                             
                                             
                HPt     Ag                   
                               Pt            
            Pt    PPd    APd    Pt           
                                             
       Pt    IPt    PPt    Pd                
                      Pd                     
        Pt     Pd    Ag     Pt     Ag        
                Pt     Pd     Pt             
                                             
           Pt    APt    ARu    Pt            
                                             
            Pd    PPt    PAg    Ru           
       Pd    PPt    PPd    Pt                
                                             
        Pd     Pt     Pt                     
                                             
                                             
                                             
                                             
                                             

Positions:
   0 Pd     0.000000    1.639149   10.000000    ( 0.0000,  0.0000,  0.0000)
   1 Pt     2.839089    1.639149   10.000000    ( 0.0000,  0.0000,  0.0000)
   2 Pt     5.678177    1.639149   10.000000    ( 0.0000,  0.0000,  0.0000)
   3 Pd     1.419544    4.097872   10.000000    ( 0.0000,  0.0000,  0.0000)
   4 Pd     4.258633    4.097872   10.000000    ( 0.0000,  0.0000,  0.0000)
   5 Pt     7.097722    4.097872   10.000000    ( 0.0000,  0.0000,  0.0000)
   6 Pd     2.839089    6.556595   10.000000    ( 0.0000,  0.0000,  0.0000)
   7 Pt     5.678177    6.556595   10.000000    ( 0.0000,  0.0000,  0.0000)
   8 Ru     8.517266    6.556595   10.000000    ( 0.0000,  0.0000,  0.0000)
   9 Pd     0.000000    0.000000   12.317643    ( 0.0000,  0.0000,  0.0000)
  10 Pt     2.839089    0.000000   12.317643    ( 0.0000,  0.0000,  0.0000)
  11 Pd     5.678177    0.000000   12.317643    ( 0.0000,  0.0000,  0.0000)
  12 Pd     1.419544    2.458723   12.317643    ( 0.0000,  0.0000,  0.0000)
  13 Pt     4.258633    2.458723   12.317643    ( 0.0000,  0.0000,  0.0000)
  14 Ag     7.097722    2.458723   12.317643    ( 0.0000,  0.0000,  0.0000)
  15 Ag     2.839089    4.917446   12.317643    ( 0.0000,  0.0000,  0.0000)
  16 Ag     5.678177    4.917446   12.317643    ( 0.0000,  0.0000,  0.0000)
  17 Pt     8.517266    4.917446   12.317643    ( 0.0000,  0.0000,  0.0000)
  18 Pt     1.380813    0.803818   14.577129    ( 0.0000,  0.0000,  0.0000)
  19 Pt     4.327233    0.817688   14.611458    ( 0.0000,  0.0000,  0.0000)
  20 Ru     7.140912    0.908628   14.669654    ( 0.0000,  0.0000,  0.0000)
  21 Pt     2.836257    3.222799   14.671956    ( 0.0000,  0.0000,  0.0000)
  22 Pd     5.675912    3.250630   14.665741    ( 0.0000,  0.0000,  0.0000)
  23 Pt     8.527830    3.277158   14.651638    ( 0.0000,  0.0000,  0.0000)
  24 Ag     4.278095    5.722335   14.644914    ( 0.0000,  0.0000,  0.0000)
  25 Pt     7.163486    5.769412   14.620599    ( 0.0000,  0.0000,  0.0000)
  26 Ag     9.988672    5.741957   14.637588    ( 0.0000,  0.0000,  0.0000)
  27 Pt     0.004291    1.666325   16.871754    ( 0.0000,  0.0000,  0.0000)
  28 Pd     2.848735    1.594993   16.899579    ( 0.0000,  0.0000,  0.0000)
  29 Pd     5.673421    1.633235   16.932079    ( 0.0000,  0.0000,  0.0000)
  30 Ir     1.432043    4.053057   16.963037    ( 0.0000,  0.0000,  0.0000)
  31 Pt     4.204671    4.041166   16.966118    ( 0.0000,  0.0000,  0.0000)
  32 Pd     7.080062    4.091664   16.928672    ( 0.0000,  0.0000,  0.0000)
  33 Pd     2.836052    6.574456   16.926423    ( 0.0000,  0.0000,  0.0000)
  34 Ag     5.672438    6.518835   16.972799    ( 0.0000,  0.0000,  0.0000)
  35 Pt     8.528967    6.531228   16.947936    ( 0.0000,  0.0000,  0.0000)
  36 Pt    -0.022256    0.049173   19.230036    ( 0.0000,  0.0000,  0.0000)
  37 Pt     2.860610    0.023302   19.257195    ( 0.0000,  0.0000,  0.0000)
  38 Pt     5.657356   -0.016512   19.221566    ( 0.0000,  0.0000,  0.0000)
  39 Pt     1.428091    2.431539   19.246149    ( 0.0000,  0.0000,  0.0000)
  40 Pd     4.222164    2.448045   19.338066    ( 0.0000,  0.0000,  0.0000)
  41 Pd     7.117881    2.429725   19.237884    ( 0.0000,  0.0000,  0.0000)
  42 Pt     2.803411    4.939471   19.229811    ( 0.0000,  0.0000,  0.0000)
  43 Ag     5.683461    4.929609   19.428930    ( 0.0000,  0.0000,  0.0000)
  44 Pt     8.546289    4.939193   19.180181    ( 0.0000,  0.0000,  0.0000)
  45 H      2.805532    3.270274   20.496553    ( 0.0000,  0.0000,  0.0000)

Unit cell:
           periodic     x           y           z      points  spacing
  1. axis:    yes    8.517266    0.000000    0.000000    40     0.1844
  2. axis:    yes    4.258633    7.376169    0.000000    40     0.1844
  3. axis:    no     0.000000    0.000000   29.270571   140     0.2091

  Lengths:   8.517266   8.517266  29.270571
  Angles:   90.000000  90.000000  60.000000

Effective grid spacing dv^(1/3) = 0.2017

     iter     time        total  log10-change:
                         energy  eigst   dens
iter:   1 13:05:46  -208.875874  -2.77
iter:   2 13:06:46  -347.360532  -1.86  -1.75
iter:   3 13:07:47  -214.653944  -2.44  -1.19
iter:   4 13:08:48  -202.559355  -3.13  -1.75
iter:   5 13:09:49  -200.927158  -4.06  -2.17
iter:   6 13:10:50  -200.357281  -4.21  -2.42
iter:   7 13:11:50  -200.597275  -4.36  -2.57
iter:   8 13:12:50  -200.140886  -4.40  -2.40
iter:   9 13:13:50  -200.124785  -4.72  -2.92
iter:  10 13:14:51  -200.092048c -4.53  -2.91
iter:  11 13:15:51  -200.076497c -5.34  -2.94
iter:  12 13:16:52  -200.087826c -5.78  -3.16
iter:  13 13:17:52  -200.069274c -5.81  -2.99
iter:  14 13:18:53  -200.068067c -5.92  -3.37
iter:  15 13:19:53  -200.068625c -6.18  -3.59
iter:  16 13:20:55  -200.064947c -6.40  -3.40
iter:  17 13:21:57  -200.066086c -6.80  -3.56
iter:  18 13:22:59  -200.065365c -6.90  -3.73
iter:  19 13:24:01  -200.064853c -6.99  -3.81
iter:  20 13:25:02  -200.064835c -6.93  -3.85
iter:  21 13:26:04  -200.064642c -7.30  -3.86
iter:  22 13:27:06  -200.064408c -7.23  -4.13c
iter:  23 13:28:07  -200.065619c -7.49c -4.15c

Converged after 23 iterations.

Dipole moment: (26.911622, 11.860522, -0.016240) |e|*Ang

Energy contributions relative to reference atoms: (reference = -14172748.147892)

Kinetic:       -333.517595
Potential:     +185.661363
External:        +0.000000
XC:             -40.010191
Entropy (-ST):   -2.354360
Local:          -11.022016
--------------------------
Free energy:   -201.242799
Extrapolated:  -200.065619

Showing only first 2 kpts
 Kpt  Band  Eigenvalues  Occupancy
  0   361      0.66467    0.97229
  0   362      0.67897    0.90110
  0   363      0.72053    0.70229
  0   364      0.72734    0.67156

  1   361      0.53705    1.54440
  1   362      0.55203    1.48958
  1   363      0.59358    1.31647
  1   364      0.62197    1.18367


Fermi level: 0.65913

No gap

Forces in eV/Ang:
  0 Pd    0.00797   -0.01141   -0.25188
  1 Pt    0.30601   -0.52434    0.39358
  2 Pt   -0.33881   -0.14903    0.02427
  3 Pd   -0.41646    0.18105   -0.07179
  4 Pd    0.22001   -0.22551   -0.23301
  5 Pt    0.22861    0.31296   -0.17179
  6 Pd   -0.22122    0.23201   -0.09426
  7 Pt    0.54397    0.17307    0.10364
  8 Ru   -0.47221    0.07650    1.38109
  9 Pd   -0.21834    0.16974    0.19048
 10 Pt    0.28393    0.00797   -0.22428
 11 Pd    0.05614    0.04992   -0.07268
 12 Pd    0.08464    0.10674    0.01213
 13 Pt   -0.19827   -0.16570    0.15442
 14 Ag    0.06102   -0.09415    0.03099
 15 Ag   -0.00394   -0.07785   -0.10789
 16 Ag   -0.06245   -0.06117    0.07522
 17 Pt    0.02893    0.21988   -0.56983
 18 Pt   -0.01628   -0.00043    0.02763
 19 Pt    0.02942   -0.01248    0.00711
 20 Ru    0.03053   -0.04251   -0.02636
 21 Pt    0.01268   -0.00466   -0.02696
 22 Pd    0.03844   -0.02609   -0.00663
 23 Pt    0.00854   -0.02503    0.02087
 24 Ag    0.00212    0.01082    0.02715
 25 Pt    0.01661    0.00233    0.00814
 26 Ag    0.02931   -0.00525    0.00426
 27 Pt    0.00939   -0.01530    0.02453
 28 Pd   -0.00261    0.02715    0.10979
 29 Pd    0.02653   -0.01581   -0.00667
 30 Ir    0.07190   -0.02507    0.09676
 31 Pt   -0.09686   -0.02762    0.10930
 32 Pd   -0.03005   -0.01047   -0.02540
 33 Pd    0.00988   -0.05334    0.05073
 34 Ag   -0.01700   -0.02394   -0.03858
 35 Pt    0.01376   -0.01018   -0.11336
 36 Pt    0.01597    0.06977   -0.00374
 37 Pt    0.02354    0.01339   -0.01678
 38 Pt    0.00266   -0.00714   -0.00549
 39 Pt    0.01323   -0.00587    0.24274
 40 Pd    0.05271   -0.01736    0.23787
 41 Pd    0.03623    0.01027   -0.02593
 42 Pt   -0.01548   -0.02927    0.18906
 43 Ag   -0.03903   -0.02731    0.04737
 44 Pt    0.04554   -0.03352   -0.01954
 45 H    -0.15321    0.05231   -1.37725

System changes: positions 

Initializing position-dependent things.

Density initialized from wave functions
                                             
                                             
                                             
                                             
                                             
                                             
                HPt     Ag     Pt            
                                             
            Pt    PPd    APd    Pt           
              Pt                             
       Pt    Ir     PPt    Pd                
        Pt     Pd     Pd                     
                     Ag     Pt     Ag        
                Pt     Pd     Pt             
                                             
           Pt    APt    ARu    Pt            
                                             
            Pd    PPt    PAg    Ru           
       Pd    PPt    PPd    Pt                
                                             
        Pd     Pt     Pt                     
                                             
                                             
                                             
                                             
                                             

Positions:
   0 Pd     0.000000    1.639149   10.000000    ( 0.0000,  0.0000,  0.0000)
   1 Pt     2.839089    1.639149   10.000000    ( 0.0000,  0.0000,  0.0000)
   2 Pt     5.678177    1.639149   10.000000    ( 0.0000,  0.0000,  0.0000)
   3 Pd     1.419544    4.097872   10.000000    ( 0.0000,  0.0000,  0.0000)
   4 Pd     4.258633    4.097872   10.000000    ( 0.0000,  0.0000,  0.0000)
   5 Pt     7.097722    4.097872   10.000000    ( 0.0000,  0.0000,  0.0000)
   6 Pd     2.839089    6.556595   10.000000    ( 0.0000,  0.0000,  0.0000)
   7 Pt     5.678177    6.556595   10.000000    ( 0.0000,  0.0000,  0.0000)
   8 Ru     8.517266    6.556595   10.000000    ( 0.0000,  0.0000,  0.0000)
   9 Pd     0.000000    0.000000   12.317643    ( 0.0000,  0.0000,  0.0000)
  10 Pt     2.839089    0.000000   12.317643    ( 0.0000,  0.0000,  0.0000)
  11 Pd     5.678177    0.000000   12.317643    ( 0.0000,  0.0000,  0.0000)
  12 Pd     1.419544    2.458723   12.317643    ( 0.0000,  0.0000,  0.0000)
  13 Pt     4.258633    2.458723   12.317643    ( 0.0000,  0.0000,  0.0000)
  14 Ag     7.097722    2.458723   12.317643    ( 0.0000,  0.0000,  0.0000)
  15 Ag     2.839089    4.917446   12.317643    ( 0.0000,  0.0000,  0.0000)
  16 Ag     5.678177    4.917446   12.317643    ( 0.0000,  0.0000,  0.0000)
  17 Pt     8.517266    4.917446   12.317643    ( 0.0000,  0.0000,  0.0000)
  18 Pt     1.379144    0.805124   14.579709    ( 0.0000,  0.0000,  0.0000)
  19 Pt     4.332991    0.818408   14.610416    ( 0.0000,  0.0000,  0.0000)
  20 Ru     7.139076    0.900574   14.644836    ( 0.0000,  0.0000,  0.0000)
  21 Pt     2.840271    3.221406   14.669629    ( 0.0000,  0.0000,  0.0000)
  22 Pd     5.681522    3.247968   14.665078    ( 0.0000,  0.0000,  0.0000)
  23 Pt     8.525019    3.272738   14.654678    ( 0.0000,  0.0000,  0.0000)
  24 Ag     4.280952    5.722089   14.644651    ( 0.0000,  0.0000,  0.0000)
  25 Pt     7.163416    5.767745   14.620090    ( 0.0000,  0.0000,  0.0000)
  26 Ag     9.990658    5.744210   14.633300    ( 0.0000,  0.0000,  0.0000)
  27 Pt     0.015108    1.678233   16.881087    ( 0.0000,  0.0000,  0.0000)
  28 Pd     2.850381    1.594181   16.895923    ( 0.0000,  0.0000,  0.0000)
  29 Pd     5.672625    1.635590   16.935538    ( 0.0000,  0.0000,  0.0000)
  30 Ir     1.431951    4.051717   16.955067    ( 0.0000,  0.0000,  0.0000)
  31 Pt     4.201535    4.036712   16.960510    ( 0.0000,  0.0000,  0.0000)
  32 Pd     7.078919    4.087601   16.927383    ( 0.0000,  0.0000,  0.0000)
  33 Pd     2.834808    6.566267   16.943127    ( 0.0000,  0.0000,  0.0000)
  34 Ag     5.671682    6.514916   16.973339    ( 0.0000,  0.0000,  0.0000)
  35 Pt     8.532152    6.526770   16.943611    ( 0.0000,  0.0000,  0.0000)
  36 Pt    -0.025289    0.047923   19.222362    ( 0.0000,  0.0000,  0.0000)
  37 Pt     2.863373    0.008072   19.249671    ( 0.0000,  0.0000,  0.0000)
  38 Pt     5.655830   -0.019251   19.212158    ( 0.0000,  0.0000,  0.0000)
  39 Pt     1.453265    2.443367   19.306149    ( 0.0000,  0.0000,  0.0000)
  40 Pd     4.202799    2.460959   19.391385    ( 0.0000,  0.0000,  0.0000)
  41 Pd     7.117087    2.431862   19.229021    ( 0.0000,  0.0000,  0.0000)
  42 Pt     2.807992    4.923507   19.285928    ( 0.0000,  0.0000,  0.0000)
  43 Ag     5.685671    4.932306   19.434076    ( 0.0000,  0.0000,  0.0000)
  44 Pt     8.537914    4.945587   19.170758    ( 0.0000,  0.0000,  0.0000)
  45 H      2.795966    3.272769   20.296798    ( 0.0000,  0.0000,  0.0000)

Unit cell:
           periodic     x           y           z      points  spacing
  1. axis:    yes    8.517266    0.000000    0.000000    40     0.1844
  2. axis:    yes    4.258633    7.376169    0.000000    40     0.1844
  3. axis:    no     0.000000    0.000000   29.270571   140     0.2091

  Lengths:   8.517266   8.517266  29.270571
  Angles:   90.000000  90.000000  60.000000

Effective grid spacing dv^(1/3) = 0.2017

     iter     time        total  log10-change:
                         energy  eigst   dens
iter:   1 13:29:29  -203.521669  -2.80
iter:   2 13:30:30  -208.512847  -2.72  -1.98
iter:   3 13:31:31  -202.324326  -3.27  -1.84
iter:   4 13:32:32  -201.372258  -3.96  -2.07
iter:   5 13:33:33  -200.445477  -4.72  -2.19
iter:   6 13:34:34  -200.301420  -4.94  -2.59
iter:   7 13:35:35  -200.262890c -4.53  -2.91
iter:   8 13:36:35  -200.234374c -4.98  -2.90
iter:   9 13:37:36  -200.234530c -5.47  -3.20
iter:  10 13:38:37  -200.242006c -5.79  -3.22
iter:  11 13:39:38  -200.249884c -5.87  -3.13
iter:  12 13:40:39  -200.231968c -5.98  -3.00
iter:  13 13:41:39  -200.231514c -6.26  -3.36
iter:  14 13:42:39  -200.231362c -6.47  -3.54
iter:  15 13:43:39  -200.229602c -6.50  -3.48
iter:  16 13:44:40  -200.231255c -6.81  -3.66
iter:  17 13:45:40  -200.229891c -6.27  -3.60
iter:  18 13:46:40  -200.229371c -6.53  -3.63
iter:  19 13:47:41  -200.229385c -6.45  -3.62
iter:  20 13:48:41  -200.228748c -7.05  -3.73
iter:  21 13:49:41  -200.228574c -7.33  -4.10c
iter:  22 13:50:41  -200.229158c -7.53c -4.09c

Converged after 22 iterations.

Dipole moment: (26.164244, 12.429264, -0.016096) |e|*Ang

Energy contributions relative to reference atoms: (reference = -14172748.147892)

Kinetic:       -331.278515
Potential:     +183.898425
External:        +0.000000
XC:             -40.642337
Entropy (-ST):   -2.353235
Local:          -11.030113
--------------------------
Free energy:   -201.405776
Extrapolated:  -200.229158

Showing only first 2 kpts
 Kpt  Band  Eigenvalues  Occupancy
  0   361      0.66310    0.97107
  0   362      0.67616    0.90604
  0   363      0.71498    0.71940
  0   364      0.72199    0.68746

  1   361      0.53419    1.54808
  1   362      0.55254    1.48070
  1   363      0.59418    1.30561
  1   364      0.62386    1.16572


Fermi level: 0.65732

No gap

Forces in eV/Ang:
  0 Pd    0.00702   -0.01161   -0.26114
  1 Pt    0.30576   -0.52198    0.38239
  2 Pt   -0.33996   -0.14931    0.01316
  3 Pd   -0.41408    0.18088   -0.07904
  4 Pd    0.21683   -0.22380   -0.23961
  5 Pt    0.22860    0.30576   -0.17444
  6 Pd   -0.22100    0.22889   -0.10401
  7 Pt    0.53637    0.17597    0.09719
  8 Ru   -0.46235    0.07930    1.36954
  9 Pd   -0.20772    0.16622    0.17698
 10 Pt    0.28147    0.00738   -0.22568
 11 Pd    0.06256    0.05361   -0.08867
 12 Pd    0.08161    0.10626    0.01079
 13 Pt   -0.19235   -0.16531    0.13652
 14 Ag    0.06533   -0.07039   -0.01407
 15 Ag    0.00089   -0.07994   -0.11768
 16 Ag   -0.06258   -0.06382    0.06794
 17 Pt    0.02337    0.21244   -0.58364
 18 Pt   -0.00611   -0.01129    0.02276
 19 Pt   -0.00306   -0.02834    0.01391
 20 Ru    0.07149   -0.00188    0.16107
 21 Pt   -0.01079    0.00048   -0.02831
 22 Pd    0.01093   -0.01577   -0.01113
 23 Pt    0.04776   -0.00387    0.00523
 24 Ag   -0.01945    0.00871    0.05021
 25 Pt    0.03086    0.01747    0.00909
 26 Ag    0.04035   -0.04097    0.04455
 27 Pt   -0.07993   -0.14066   -0.03358
 28 Pd   -0.01836    0.05175    0.24406
 29 Pd    0.05338   -0.05610   -0.03777
 30 Ir    0.11799   -0.02969    0.21913
 31 Pt   -0.13812   -0.01501    0.25908
 32 Pd   -0.04302    0.02455   -0.02482
 33 Pd    0.02829   -0.02983   -0.07503
 34 Ag   -0.02271   -0.01330   -0.06415
 35 Pt   -0.00085    0.01870   -0.15673
 36 Pt    0.05503    0.13198    0.09510
 37 Pt    0.02105    0.16342    0.05196
 38 Pt    0.01643    0.00873    0.10506
 39 Pt   -0.50069   -0.28378   -0.27400
 40 Pd    0.56296   -0.30479   -0.18311
 41 Pd    0.07090   -0.00032    0.05976
 42 Pt   -0.06695    0.33462   -0.25608
 43 Ag   -0.09032   -0.06971    0.06539
 44 Pt    0.15625   -0.11820    0.06546
 45 H    -0.18030    0.15628   -0.40786

System changes: positions 

Initializing position-dependent things.

Density initialized from wave functions
                                             
                                             
                                             
                                             
                                             
                                             
                HPt     Ag     Pt            
                                             
            Pt    PPd    APd    Pt           
       Pt     Pt                             
             Ir     PPt    Pd                
        Pt     Pd     Pd                     
                     Ag     Pt     Ag        
                Pt     Pd     Pt             
                                             
           Pt    APt    ARu    Pt            
                                             
            Pd    PPt    PAg    Ru           
       Pd    PPt    PPd    Pt                
                                             
        Pd     Pt     Pt                     
                                             
                                             
                                             
                                             
                                             

Positions:
   0 Pd     0.000000    1.639149   10.000000    ( 0.0000,  0.0000,  0.0000)
   1 Pt     2.839089    1.639149   10.000000    ( 0.0000,  0.0000,  0.0000)
   2 Pt     5.678177    1.639149   10.000000    ( 0.0000,  0.0000,  0.0000)
   3 Pd     1.419544    4.097872   10.000000    ( 0.0000,  0.0000,  0.0000)
   4 Pd     4.258633    4.097872   10.000000    ( 0.0000,  0.0000,  0.0000)
   5 Pt     7.097722    4.097872   10.000000    ( 0.0000,  0.0000,  0.0000)
   6 Pd     2.839089    6.556595   10.000000    ( 0.0000,  0.0000,  0.0000)
   7 Pt     5.678177    6.556595   10.000000    ( 0.0000,  0.0000,  0.0000)
   8 Ru     8.517266    6.556595   10.000000    ( 0.0000,  0.0000,  0.0000)
   9 Pd     0.000000    0.000000   12.317643    ( 0.0000,  0.0000,  0.0000)
  10 Pt     2.839089    0.000000   12.317643    ( 0.0000,  0.0000,  0.0000)
  11 Pd     5.678177    0.000000   12.317643    ( 0.0000,  0.0000,  0.0000)
  12 Pd     1.419544    2.458723   12.317643    ( 0.0000,  0.0000,  0.0000)
  13 Pt     4.258633    2.458723   12.317643    ( 0.0000,  0.0000,  0.0000)
  14 Ag     7.097722    2.458723   12.317643    ( 0.0000,  0.0000,  0.0000)
  15 Ag     2.839089    4.917446   12.317643    ( 0.0000,  0.0000,  0.0000)
  16 Ag     5.678177    4.917446   12.317643    ( 0.0000,  0.0000,  0.0000)
  17 Pt     8.517266    4.917446   12.317643    ( 0.0000,  0.0000,  0.0000)
  18 Pt     1.379014    0.805024   14.580064    ( 0.0000,  0.0000,  0.0000)
  19 Pt     4.332980    0.818045   14.610635    ( 0.0000,  0.0000,  0.0000)
  20 Ru     7.140061    0.900567   14.646878    ( 0.0000,  0.0000,  0.0000)
  21 Pt     2.840136    3.221381   14.669319    ( 0.0000,  0.0000,  0.0000)
  22 Pd     5.681720    3.247715   14.664950    ( 0.0000,  0.0000,  0.0000)
  23 Pt     8.525651    3.272626   14.654847    ( 0.0000,  0.0000,  0.0000)
  24 Ag     4.280707    5.722199   14.645337    ( 0.0000,  0.0000,  0.0000)
  25 Pt     7.163871    5.767966   14.620270    ( 0.0000,  0.0000,  0.0000)
  26 Ag     9.991178    5.743649   14.633904    ( 0.0000,  0.0000,  0.0000)
  27 Pt     0.014173    1.676535   16.880563    ( 0.0000,  0.0000,  0.0000)
  28 Pd     2.850142    1.594910   16.898982    ( 0.0000,  0.0000,  0.0000)
  29 Pd     5.673331    1.634875   16.934940    ( 0.0000,  0.0000,  0.0000)
  30 Ir     1.433519    4.051296   16.957844    ( 0.0000,  0.0000,  0.0000)
  31 Pt     4.199628    4.036476   16.963802    ( 0.0000,  0.0000,  0.0000)
  32 Pd     7.078373    4.087907   16.926985    ( 0.0000,  0.0000,  0.0000)
  33 Pd     2.835144    6.565741   16.942230    ( 0.0000,  0.0000,  0.0000)
  34 Ag     5.671403    6.514691   16.972454    ( 0.0000,  0.0000,  0.0000)
  35 Pt     8.532155    6.526929   16.941462    ( 0.0000,  0.0000,  0.0000)
  36 Pt    -0.024551    0.049610   19.223958    ( 0.0000,  0.0000,  0.0000)
  37 Pt     2.863677    0.010173   19.250745    ( 0.0000,  0.0000,  0.0000)
  38 Pt     5.656003   -0.019241   19.213832    ( 0.0000,  0.0000,  0.0000)
  39 Pt     1.446608    2.439590   19.303180    ( 0.0000,  0.0000,  0.0000)
  40 Pd     4.210187    2.457058   19.389785    ( 0.0000,  0.0000,  0.0000)
  41 Pd     7.118041    2.431939   19.230053    ( 0.0000,  0.0000,  0.0000)
  42 Pt     2.807169    4.928017   19.283200    ( 0.0000,  0.0000,  0.0000)
  43 Ag     5.684404    4.931369   19.435233    ( 0.0000,  0.0000,  0.0000)
  44 Pt     8.540014    4.944039   19.171906    ( 0.0000,  0.0000,  0.0000)
  45 H      2.793547    3.274884   20.291009    ( 0.0000,  0.0000,  0.0000)

Unit cell:
           periodic     x           y           z      points  spacing
  1. axis:    yes    8.517266    0.000000    0.000000    40     0.1844
  2. axis:    yes    4.258633    7.376169    0.000000    40     0.1844
  3. axis:    no     0.000000    0.000000   29.270571   140     0.2091

  Lengths:   8.517266   8.517266  29.270571
  Angles:   90.000000  90.000000  60.000000

Effective grid spacing dv^(1/3) = 0.2017

     iter     time        total  log10-change:
                         energy  eigst   dens
iter:   1 13:52:01  -200.266542  -4.52
iter:   2 13:53:01  -200.346611  -4.84  -3.06
iter:   3 13:54:01  -200.256682c -5.25  -2.81
iter:   4 13:55:01  -200.267709c -6.09  -3.33
iter:   5 13:56:01  -200.252351c -6.16  -3.04
iter:   6 13:57:01  -200.250481c -6.95  -3.50
iter:   7 13:58:01  -200.249965c -6.96  -3.92
iter:   8 13:59:01  -200.249918c -7.22  -4.12c
iter:   9 14:00:01  -200.249971c -7.79c -4.26c

Converged after 9 iterations.

Dipole moment: (26.442983, 12.247174, -0.013856) |e|*Ang

Energy contributions relative to reference atoms: (reference = -14172748.147892)

Kinetic:       -331.630327
Potential:     +184.175878
External:        +0.000000
XC:             -40.594686
Entropy (-ST):   -2.352832
Local:          -11.024420
--------------------------
Free energy:   -201.426387
Extrapolated:  -200.249971

Showing only first 2 kpts
 Kpt  Band  Eigenvalues  Occupancy
  0   361      0.66403    0.97093
  0   362      0.67713    0.90573
  0   363      0.71598    0.71898
  0   364      0.72364    0.68408

  1   361      0.53465    1.54964
  1   362      0.55316    1.48179
  1   363      0.59459    1.30781
  1   364      0.62477    1.16568


Fermi level: 0.65822

No gap

Forces in eV/Ang:
  0 Pd    0.00769   -0.01130   -0.26157
  1 Pt    0.30437   -0.51996    0.38011
  2 Pt   -0.33936   -0.14797    0.01150
  3 Pd   -0.41290    0.17887   -0.08121
  4 Pd    0.21654   -0.22451   -0.24138
  5 Pt    0.22787    0.30423   -0.17617
  6 Pd   -0.21980    0.22873   -0.10703
  7 Pt    0.53456    0.17622    0.09448
  8 Ru   -0.46280    0.07978    1.36990
  9 Pd   -0.20675    0.16552    0.18144
 10 Pt    0.28029    0.00728   -0.22327
 11 Pd    0.06110    0.05290   -0.08233
 12 Pd    0.08287    0.10671    0.01227
 13 Pt   -0.19347   -0.16371    0.14102
 14 Ag    0.06613   -0.07111   -0.00589
 15 Ag    0.00143   -0.08117   -0.11442
 16 Ag   -0.06203   -0.06387    0.07224
 17 Pt    0.02284    0.21187   -0.57862
 18 Pt    0.00422   -0.00847    0.02080
 19 Pt   -0.00518   -0.01950    0.01601
 20 Ru    0.05908    0.00273    0.13037
 21 Pt   -0.00463   -0.00657   -0.01160
 22 Pd    0.00264   -0.00856   -0.00589
 23 Pt    0.04131   -0.00104    0.00689
 24 Ag   -0.01419    0.00008    0.04546
 25 Pt    0.02259    0.01132    0.00331
 26 Ag    0.03747   -0.03797    0.04224
 27 Pt   -0.06254   -0.11591   -0.02116
 28 Pd   -0.01411    0.02949    0.17938
 29 Pd    0.03303   -0.04019   -0.01817
 30 Ir    0.08952   -0.02486    0.17405
 31 Pt   -0.09172   -0.00887    0.20794
 32 Pd   -0.03528    0.01903   -0.00939
 33 Pd    0.02237   -0.02452   -0.05778
 34 Ag   -0.01816   -0.01180   -0.04091
 35 Pt   -0.00135    0.01754   -0.11378
 36 Pt    0.05097    0.09798    0.07982
 37 Pt    0.01372    0.09874    0.02965
 38 Pt    0.01627    0.00744    0.08280
 39 Pt   -0.36535   -0.20947   -0.25075
 40 Pd    0.41061   -0.22116   -0.17494
 41 Pd    0.05183    0.00694    0.04359
 42 Pt   -0.05065    0.23803   -0.23450
 43 Ag   -0.05878   -0.04498    0.04968
 44 Pt    0.09555   -0.08092    0.03818
 45 H    -0.18023    0.15233   -0.45103

System changes: positions 

Initializing position-dependent things.

Density initialized from wave functions
                                            
                                            
                                            
                                            
                                            
                H       Ag                  
                 Pt            Pt           
            Pt    PPd   AgPd   Pt           
       Pt     Pt     Pt                     
             Ir    Pt      Pd               
        Pt     Pd     Pd                    
                     Ag     Pt     Ag       
                Pt     Pd     Pt            
                  Pt     Ru                 
           Pt    Ag     Ag    Pt            
            Pd     Pt     Ag                
                  Pd     Pt    Ru           
       Pd    PPt    PPd    Pt               
                                            
        Pd     Pt     Pt                    
                                            
                                            
                                            
                                            

Positions:
   0 Pd     0.000000    1.639149   10.000000    ( 0.0000,  0.0000,  0.0000)
   1 Pt     2.839089    1.639149   10.000000    ( 0.0000,  0.0000,  0.0000)
   2 Pt     5.678177    1.639149   10.000000    ( 0.0000,  0.0000,  0.0000)
   3 Pd     1.419544    4.097872   10.000000    ( 0.0000,  0.0000,  0.0000)
   4 Pd     4.258633    4.097872   10.000000    ( 0.0000,  0.0000,  0.0000)
   5 Pt     7.097722    4.097872   10.000000    ( 0.0000,  0.0000,  0.0000)
   6 Pd     2.839089    6.556595   10.000000    ( 0.0000,  0.0000,  0.0000)
   7 Pt     5.678177    6.556595   10.000000    ( 0.0000,  0.0000,  0.0000)
   8 Ru     8.517266    6.556595   10.000000    ( 0.0000,  0.0000,  0.0000)
   9 Pd     0.000000    0.000000   12.317643    ( 0.0000,  0.0000,  0.0000)
  10 Pt     2.839089    0.000000   12.317643    ( 0.0000,  0.0000,  0.0000)
  11 Pd     5.678177    0.000000   12.317643    ( 0.0000,  0.0000,  0.0000)
  12 Pd     1.419544    2.458723   12.317643    ( 0.0000,  0.0000,  0.0000)
  13 Pt     4.258633    2.458723   12.317643    ( 0.0000,  0.0000,  0.0000)
  14 Ag     7.097722    2.458723   12.317643    ( 0.0000,  0.0000,  0.0000)
  15 Ag     2.839089    4.917446   12.317643    ( 0.0000,  0.0000,  0.0000)
  16 Ag     5.678177    4.917446   12.317643    ( 0.0000,  0.0000,  0.0000)
  17 Pt     8.517266    4.917446   12.317643    ( 0.0000,  0.0000,  0.0000)
  18 Pt     1.378289    0.804908   14.583326    ( 0.0000,  0.0000,  0.0000)
  19 Pt     4.334646    0.816268   14.611981    ( 0.0000,  0.0000,  0.0000)
  20 Ru     7.145707    0.898145   14.651264    ( 0.0000,  0.0000,  0.0000)
  21 Pt     2.840928    3.220245   14.667430    ( 0.0000,  0.0000,  0.0000)
  22 Pd     5.684401    3.245537   14.664143    ( 0.0000,  0.0000,  0.0000)
  23 Pt     8.528867    3.270569   14.657140    ( 0.0000,  0.0000,  0.0000)
  24 Ag     4.280255    5.722277   14.649880    ( 0.0000,  0.0000,  0.0000)
  25 Pt     7.166544    5.768587   14.620940    ( 0.0000,  0.0000,  0.0000)
  26 Ag     9.995432    5.740518   14.636680    ( 0.0000,  0.0000,  0.0000)
  27 Pt     0.012160    1.669829   16.880794    ( 0.0000,  0.0000,  0.0000)
  28 Pd     2.849254    1.598335   16.915551    ( 0.0000,  0.0000,  0.0000)
  29 Pd     5.676762    1.631559   16.933191    ( 0.0000,  0.0000,  0.0000)
  30 Ir     1.442828    4.048159   16.972151    ( 0.0000,  0.0000,  0.0000)
  31 Pt     4.188054    4.033709   16.982328    ( 0.0000,  0.0000,  0.0000)
  32 Pd     7.074568    4.088416   16.924802    ( 0.0000,  0.0000,  0.0000)
  33 Pd     2.836772    6.559610   16.942411    ( 0.0000,  0.0000,  0.0000)
  34 Ag     5.669434    6.511867   16.967880    ( 0.0000,  0.0000,  0.0000)
  35 Pt     8.533207    6.526552   16.927496    ( 0.0000,  0.0000,  0.0000)
  36 Pt    -0.020502    0.059069   19.231841    ( 0.0000,  0.0000,  0.0000)
  37 Pt     2.866291    0.015846   19.254318    ( 0.0000,  0.0000,  0.0000)
  38 Pt     5.656756   -0.020132   19.221225    ( 0.0000,  0.0000,  0.0000)
  39 Pt     1.415348    2.420866   19.302482    ( 0.0000,  0.0000,  0.0000)
  40 Pd     4.247530    2.438404   19.395766    ( 0.0000,  0.0000,  0.0000)
  41 Pd     7.123346    2.433677   19.233408    ( 0.0000,  0.0000,  0.0000)
  42 Pt     2.803846    4.949309   19.283065    ( 0.0000,  0.0000,  0.0000)
  43 Ag     5.678194    4.927217   19.444175    ( 0.0000,  0.0000,  0.0000)
  44 Pt     8.548189    4.937541   19.175092    ( 0.0000,  0.0000,  0.0000)
  45 H      2.772859    3.290999   20.180353    ( 0.0000,  0.0000,  0.0000)

Unit cell:
           periodic     x           y           z      points  spacing
  1. axis:    yes    8.517266    0.000000    0.000000    40     0.1844
  2. axis:    yes    4.258633    7.376169    0.000000    40     0.1844
  3. axis:    no     0.000000    0.000000   29.270571   140     0.2091

  Lengths:   8.517266   8.517266  29.270571
  Angles:   90.000000  90.000000  60.000000

Effective grid spacing dv^(1/3) = 0.2017

     iter     time        total  log10-change:
                         energy  eigst   dens
iter:   1 14:01:21  -200.784720  -3.18
iter:   2 14:02:22  -203.209755  -3.50  -2.43
iter:   3 14:03:22  -201.855899  -3.83  -2.04
iter:   4 14:04:22  -200.403019  -4.41  -2.13
iter:   5 14:05:23  -200.345399  -5.27  -2.89
iter:   6 14:06:23  -200.347240c -5.95  -3.22
iter:   7 14:07:23  -200.344852c -5.97  -3.14
iter:   8 14:08:24  -200.339784c -5.84  -3.21
iter:   9 14:09:24  -200.341132c -5.91  -3.44
iter:  10 14:10:24  -200.339108c -6.46  -3.60
iter:  11 14:11:24  -200.338607c -6.62  -3.59
iter:  12 14:12:24  -200.339242c -6.83  -3.83
iter:  13 14:13:25  -200.338673c -6.53  -3.83
iter:  14 14:14:25  -200.338945c -7.12  -3.94
iter:  15 14:15:25  -200.338583c -7.33  -3.93
iter:  16 14:16:25  -200.338501c -7.51c -4.27c

Converged after 16 iterations.

Dipole moment: (27.900971, 11.445997, -0.012765) |e|*Ang

Energy contributions relative to reference atoms: (reference = -14172748.147892)

Kinetic:       -330.617665
Potential:     +183.229965
External:        +0.000000
XC:             -40.759029
Entropy (-ST):   -2.349014
Local:          -11.017264
--------------------------
Free energy:   -201.513008
Extrapolated:  -200.338501

Showing only first 2 kpts
 Kpt  Band  Eigenvalues  Occupancy
  0   361      0.66539    0.97096
  0   362      0.67828    0.90680
  0   363      0.71600    0.72519
  0   364      0.72764    0.67226

  1   361      0.53442    1.55515
  1   362      0.55602    1.47600
  1   363      0.59451    1.31434
  1   364      0.62690    1.16200


Fermi level: 0.65958

No gap

Forces in eV/Ang:
  0 Pd    0.00939   -0.01113   -0.25948
  1 Pt    0.30501   -0.51946    0.38520
  2 Pt   -0.34298   -0.14904    0.01163
  3 Pd   -0.41329    0.18035   -0.07803
  4 Pd    0.21562   -0.22558   -0.24045
  5 Pt    0.22941    0.30662   -0.17820
  6 Pd   -0.22166    0.22807   -0.10277
  7 Pt    0.53741    0.17651    0.09318
  8 Ru   -0.46459    0.07849    1.36896
  9 Pd   -0.20051    0.16051    0.19147
 10 Pt    0.28192    0.01019   -0.21210
 11 Pd    0.05917    0.04278   -0.07114
 12 Pd    0.08342    0.10151    0.01616
 13 Pt   -0.19657   -0.17168    0.14438
 14 Ag    0.07270   -0.07857    0.00645
 15 Ag    0.00153   -0.07649   -0.11325
 16 Ag   -0.06405   -0.05700    0.08319
 17 Pt    0.03194    0.21456   -0.56611
 18 Pt    0.04524   -0.00241    0.00450
 19 Pt   -0.02208    0.00265    0.00755
 20 Ru    0.02615    0.01651    0.12951
 21 Pt    0.01802   -0.03398    0.06794
 22 Pd   -0.03524    0.00611    0.02526
 23 Pt    0.04872    0.02192    0.02299
 24 Ag    0.00399   -0.04785    0.02324
 25 Pt    0.01221   -0.00678   -0.03738
 26 Ag    0.02193   -0.05200    0.01419
 27 Pt   -0.08494   -0.08342   -0.06640
 28 Pd    0.00053    0.01795    0.13333
 29 Pd    0.03141   -0.04801   -0.01176
 30 Ir    0.01256   -0.02657    0.10556
 31 Pt   -0.00723   -0.03393    0.13692
 32 Pd   -0.00075    0.00337    0.02193
 33 Pd    0.00130    0.04709   -0.04537
 34 Ag    0.00821    0.00132    0.04426
 35 Pt    0.00299    0.01275    0.05616
 36 Pt    0.01795    0.00009    0.02902
 37 Pt    0.02027    0.01354   -0.01988
 38 Pt   -0.00468   -0.00324    0.00214
 39 Pt   -0.15686   -0.11995   -0.32765
 40 Pd    0.21231   -0.16876   -0.26022
 41 Pd    0.00993    0.01077    0.02262
 42 Pt   -0.02633    0.12019   -0.26978
 43 Ag   -0.00664    0.00843    0.00266
 44 Pt    0.01788   -0.01094   -0.03046
 45 H    -0.10780    0.15696   -0.18350

System changes: positions 

Initializing position-dependent things.

Density initialized from wave functions
                                            
                                            
                                            
                                            
                                            
                HPt     Ag                  
                               Pt           
            Pt    PPd   AgPd   Pt           
       Pt     Pt     Pt                     
             Ir    Pt      Pd               
        Pt     Pd     Pd                    
                     Ag     Pt     Ag       
                Pt     Pd     Pt            
           Pt     Pt     Ru                 
                 Ag     Ag    Pt            
            Pd     Pt     Ag                
                  Pd     Pt    Ru           
       Pd    PPt    PPd    Pt               
                                            
        Pd     Pt     Pt                    
                                            
                                            
                                            
                                            

Positions:
   0 Pd     0.000000    1.639149   10.000000    ( 0.0000,  0.0000,  0.0000)
   1 Pt     2.839089    1.639149   10.000000    ( 0.0000,  0.0000,  0.0000)
   2 Pt     5.678177    1.639149   10.000000    ( 0.0000,  0.0000,  0.0000)
   3 Pd     1.419544    4.097872   10.000000    ( 0.0000,  0.0000,  0.0000)
   4 Pd     4.258633    4.097872   10.000000    ( 0.0000,  0.0000,  0.0000)
   5 Pt     7.097722    4.097872   10.000000    ( 0.0000,  0.0000,  0.0000)
   6 Pd     2.839089    6.556595   10.000000    ( 0.0000,  0.0000,  0.0000)
   7 Pt     5.678177    6.556595   10.000000    ( 0.0000,  0.0000,  0.0000)
   8 Ru     8.517266    6.556595   10.000000    ( 0.0000,  0.0000,  0.0000)
   9 Pd     0.000000    0.000000   12.317643    ( 0.0000,  0.0000,  0.0000)
  10 Pt     2.839089    0.000000   12.317643    ( 0.0000,  0.0000,  0.0000)
  11 Pd     5.678177    0.000000   12.317643    ( 0.0000,  0.0000,  0.0000)
  12 Pd     1.419544    2.458723   12.317643    ( 0.0000,  0.0000,  0.0000)
  13 Pt     4.258633    2.458723   12.317643    ( 0.0000,  0.0000,  0.0000)
  14 Ag     7.097722    2.458723   12.317643    ( 0.0000,  0.0000,  0.0000)
  15 Ag     2.839089    4.917446   12.317643    ( 0.0000,  0.0000,  0.0000)
  16 Ag     5.678177    4.917446   12.317643    ( 0.0000,  0.0000,  0.0000)
  17 Pt     8.517266    4.917446   12.317643    ( 0.0000,  0.0000,  0.0000)
  18 Pt     1.379025    0.804680   14.586015    ( 0.0000,  0.0000,  0.0000)
  19 Pt     4.334853    0.814797   14.613539    ( 0.0000,  0.0000,  0.0000)
  20 Ru     7.151445    0.897509   14.661046    ( 0.0000,  0.0000,  0.0000)
  21 Pt     2.841645    3.218462   14.668051    ( 0.0000,  0.0000,  0.0000)
  22 Pd     5.685156    3.244113   14.664251    ( 0.0000,  0.0000,  0.0000)
  23 Pt     8.533184    3.269822   14.659511    ( 0.0000,  0.0000,  0.0000)
  24 Ag     4.279676    5.721083   14.654432    ( 0.0000,  0.0000,  0.0000)
  25 Pt     7.169183    5.769092   14.620671    ( 0.0000,  0.0000,  0.0000)
  26 Ag     9.999382    5.736207   14.639964    ( 0.0000,  0.0000,  0.0000)
  27 Pt     0.007234    1.660880   16.878117    ( 0.0000,  0.0000,  0.0000)
  28 Pd     2.848338    1.601763   16.933000    ( 0.0000,  0.0000,  0.0000)
  29 Pd     5.680485    1.627336   16.930949    ( 0.0000,  0.0000,  0.0000)
  30 Ir     1.451015    4.044917   16.987702    ( 0.0000,  0.0000,  0.0000)
  31 Pt     4.178464    4.030976   17.001941    ( 0.0000,  0.0000,  0.0000)
  32 Pd     7.071493    4.089357   16.923637    ( 0.0000,  0.0000,  0.0000)
  33 Pd     2.838262    6.556373   16.939665    ( 0.0000,  0.0000,  0.0000)
  34 Ag     5.668100    6.509880   16.965112    ( 0.0000,  0.0000,  0.0000)
  35 Pt     8.533822    6.526957   16.917602    ( 0.0000,  0.0000,  0.0000)
  36 Pt    -0.016193    0.067056   19.240679    ( 0.0000,  0.0000,  0.0000)
  37 Pt     2.868718    0.022372   19.258198    ( 0.0000,  0.0000,  0.0000)
  38 Pt     5.657404   -0.020817   19.229027    ( 0.0000,  0.0000,  0.0000)
  39 Pt     1.382510    2.400854   19.287505    ( 0.0000,  0.0000,  0.0000)
  40 Pd     4.286090    2.417349   19.389198    ( 0.0000,  0.0000,  0.0000)
  41 Pd     7.128164    2.435370   19.238173    ( 0.0000,  0.0000,  0.0000)
  42 Pt     2.799956    4.971895   19.270450    ( 0.0000,  0.0000,  0.0000)
  43 Ag     5.672516    4.923679   19.451634    ( 0.0000,  0.0000,  0.0000)
  44 Pt     8.556331    4.931172   19.178401    ( 0.0000,  0.0000,  0.0000)
  45 H      2.753322    3.308610   20.103061    ( 0.0000,  0.0000,  0.0000)

Unit cell:
           periodic     x           y           z      points  spacing
  1. axis:    yes    8.517266    0.000000    0.000000    40     0.1844
  2. axis:    yes    4.258633    7.376169    0.000000    40     0.1844
  3. axis:    no     0.000000    0.000000   29.270571   140     0.2091

  Lengths:   8.517266   8.517266  29.270571
  Angles:   90.000000  90.000000  60.000000

Effective grid spacing dv^(1/3) = 0.2017

     iter     time        total  log10-change:
                         energy  eigst   dens
iter:   1 14:17:45  -200.622742  -3.16
iter:   2 14:18:46  -201.801204  -3.81  -2.53
iter:   3 14:19:46  -201.110941  -4.12  -2.16
iter:   4 14:20:47  -200.447416  -4.55  -2.29
iter:   5 14:21:48  -200.397103  -5.57  -2.71
iter:   6 14:22:50  -200.379478c -5.95  -2.99
iter:   7 14:23:51  -200.375991c -5.82  -3.27
iter:   8 14:24:52  -200.377192c -6.10  -3.34
iter:   9 14:25:53  -200.375493c -6.16  -3.34
iter:  10 14:26:54  -200.374017c -6.59  -3.52
iter:  11 14:27:55  -200.376762c -6.64  -3.57
iter:  12 14:28:57  -200.374336c -6.85  -3.56
iter:  13 14:29:58  -200.374436c -6.98  -3.75
iter:  14 14:30:59  -200.374652c -6.92  -3.72
iter:  15 14:32:01  -200.374813c -7.07  -3.80
iter:  16 14:33:02  -200.373870c -7.27  -3.99
iter:  17 14:34:03  -200.374972c -7.18  -3.94
iter:  18 14:35:05  -200.374214c -7.42c -3.95
iter:  19 14:36:06  -200.374447c -7.47c -4.12c

Converged after 19 iterations.

Dipole moment: (29.422066, 10.735225, -0.005880) |e|*Ang

Energy contributions relative to reference atoms: (reference = -14172748.147892)

Kinetic:       -329.210038
Potential:     +181.973162
External:        +0.000000
XC:             -40.938596
Entropy (-ST):   -2.343940
Local:          -11.027006
--------------------------
Free energy:   -201.546417
Extrapolated:  -200.374447

Showing only first 2 kpts
 Kpt  Band  Eigenvalues  Occupancy
  0   361      0.66674    0.97174
  0   362      0.67935    0.90896
  0   363      0.71666    0.72908
  0   364      0.73130    0.66270

  1   361      0.53648    1.55325
  1   362      0.55941    1.46869
  1   363      0.59485    1.31961
  1   364      0.62773    1.16528


Fermi level: 0.66109

No gap

Forces in eV/Ang:
  0 Pd    0.00940   -0.01078   -0.26234
  1 Pt    0.30367   -0.51743    0.38150
  2 Pt   -0.34249   -0.14802    0.00856
  3 Pd   -0.41319    0.17994   -0.08274
  4 Pd    0.21567   -0.22430   -0.24438
  5 Pt    0.22851    0.30686   -0.18267
  6 Pd   -0.22129    0.22781   -0.10438
  7 Pt    0.53739    0.17471    0.08747
  8 Ru   -0.46636    0.07472    1.35343
  9 Pd   -0.19911    0.15778    0.20287
 10 Pt    0.28225    0.01243   -0.21580
 11 Pd    0.06034    0.04197   -0.06564
 12 Pd    0.08264    0.09581    0.01551
 13 Pt   -0.19218   -0.17692    0.15109
 14 Ag    0.07516   -0.09119    0.02971
 15 Ag    0.00607   -0.07399   -0.11140
 16 Ag   -0.06499   -0.05431    0.09251
 17 Pt    0.03522    0.21318   -0.56624
 18 Pt    0.06932   -0.00461   -0.01582
 19 Pt   -0.02269    0.02482   -0.01173
 20 Ru   -0.01152    0.02560    0.06150
 21 Pt    0.04310   -0.05425    0.11305
 22 Pd   -0.05185    0.01620    0.03316
 23 Pt    0.03542    0.02995    0.02095
 24 Ag    0.03285   -0.08236   -0.00559
 25 Pt   -0.01287   -0.02974   -0.05717
 26 Ag    0.00515   -0.04938   -0.02185
 27 Pt   -0.07137   -0.03522   -0.10293
 28 Pd    0.01599   -0.02701    0.03209
 29 Pd    0.01613   -0.03439   -0.00731
 30 Ir   -0.08375   -0.01821   -0.03344
 31 Pt    0.11761   -0.03150    0.02420
 32 Pd    0.01096    0.00011    0.04267
 33 Pd   -0.00190    0.09435   -0.03221
 34 Ag    0.03568   -0.00400    0.11109
 35 Pt   -0.01370    0.00194    0.17279
 36 Pt   -0.01820   -0.14799   -0.02511
 37 Pt    0.01265   -0.10980   -0.06444
 38 Pt   -0.02282   -0.01707   -0.06280
 39 Pt    0.14507    0.04515   -0.25024
 40 Pd   -0.02738   -0.04086   -0.24222
 41 Pd   -0.05468    0.03184   -0.00236
 42 Pt    0.03698   -0.04977   -0.16902
 43 Ag    0.04747    0.06020   -0.03202
 44 Pt   -0.10883    0.06991   -0.08137
 45 H    -0.04535    0.11896   -0.08582

System changes: positions 

Initializing position-dependent things.

Density initialized from wave functions
                                            
                                            
                                            
                                            
                                            
                HPt     Ag                  
                               Pt           
            Pt    PPd   AgPd   Pt           
       Pt     Pt     Pt                     
             Ir    Pt      Pd               
        Pt     Pd     Pd                    
                     Ag     Pt     Ag       
                Pt     Pd     Pt            
           Pt     Pt     Ru                 
                 Ag     Ag    Pt            
            Pd     Pt     Ag                
                  Pd     Pt    Ru           
       Pd    PPt    PPd    Pt               
                                            
        Pd     Pt     Pt                    
                                            
                                            
                                            
                                            

Positions:
   0 Pd     0.000000    1.639149   10.000000    ( 0.0000,  0.0000,  0.0000)
   1 Pt     2.839089    1.639149   10.000000    ( 0.0000,  0.0000,  0.0000)
   2 Pt     5.678177    1.639149   10.000000    ( 0.0000,  0.0000,  0.0000)
   3 Pd     1.419544    4.097872   10.000000    ( 0.0000,  0.0000,  0.0000)
   4 Pd     4.258633    4.097872   10.000000    ( 0.0000,  0.0000,  0.0000)
   5 Pt     7.097722    4.097872   10.000000    ( 0.0000,  0.0000,  0.0000)
   6 Pd     2.839089    6.556595   10.000000    ( 0.0000,  0.0000,  0.0000)
   7 Pt     5.678177    6.556595   10.000000    ( 0.0000,  0.0000,  0.0000)
   8 Ru     8.517266    6.556595   10.000000    ( 0.0000,  0.0000,  0.0000)
   9 Pd     0.000000    0.000000   12.317643    ( 0.0000,  0.0000,  0.0000)
  10 Pt     2.839089    0.000000   12.317643    ( 0.0000,  0.0000,  0.0000)
  11 Pd     5.678177    0.000000   12.317643    ( 0.0000,  0.0000,  0.0000)
  12 Pd     1.419544    2.458723   12.317643    ( 0.0000,  0.0000,  0.0000)
  13 Pt     4.258633    2.458723   12.317643    ( 0.0000,  0.0000,  0.0000)
  14 Ag     7.097722    2.458723   12.317643    ( 0.0000,  0.0000,  0.0000)
  15 Ag     2.839089    4.917446   12.317643    ( 0.0000,  0.0000,  0.0000)
  16 Ag     5.678177    4.917446   12.317643    ( 0.0000,  0.0000,  0.0000)
  17 Pt     8.517266    4.917446   12.317643    ( 0.0000,  0.0000,  0.0000)
  18 Pt     1.380141    0.804562   14.585917    ( 0.0000,  0.0000,  0.0000)
  19 Pt     4.334316    0.815022   14.613554    ( 0.0000,  0.0000,  0.0000)
  20 Ru     7.151827    0.898181   14.663699    ( 0.0000,  0.0000,  0.0000)
  21 Pt     2.842172    3.217567   14.669882    ( 0.0000,  0.0000,  0.0000)
  22 Pd     5.684254    3.244326   14.664779    ( 0.0000,  0.0000,  0.0000)
  23 Pt     8.534155    3.270351   14.659926    ( 0.0000,  0.0000,  0.0000)
  24 Ag     4.280003    5.719794   14.654734    ( 0.0000,  0.0000,  0.0000)
  25 Pt     7.169223    5.768759   14.619872    ( 0.0000,  0.0000,  0.0000)
  26 Ag     9.999681    5.735045   14.640093    ( 0.0000,  0.0000,  0.0000)
  27 Pt     0.005421    1.659245   16.875970    ( 0.0000,  0.0000,  0.0000)
  28 Pd     2.848433    1.601677   16.934883    ( 0.0000,  0.0000,  0.0000)
  29 Pd     5.681039    1.626426   16.930476    ( 0.0000,  0.0000,  0.0000)
  30 Ir     1.450437    4.044437   16.988698    ( 0.0000,  0.0000,  0.0000)
  31 Pt     4.179543    4.030480   17.003996    ( 0.0000,  0.0000,  0.0000)
  32 Pd     7.071461    4.089596   16.924188    ( 0.0000,  0.0000,  0.0000)
  33 Pd     2.838392    6.557769   16.938331    ( 0.0000,  0.0000,  0.0000)
  34 Ag     5.668560    6.509798   16.966477    ( 0.0000,  0.0000,  0.0000)
  35 Pt     8.533535    6.527160   16.919480    ( 0.0000,  0.0000,  0.0000)
  36 Pt    -0.015983    0.065521   19.241494    ( 0.0000,  0.0000,  0.0000)
  37 Pt     2.868985    0.021851   19.258061    ( 0.0000,  0.0000,  0.0000)
  38 Pt     5.657166   -0.021060   19.229257    ( 0.0000,  0.0000,  0.0000)
  39 Pt     1.381127    2.399521   19.280565    ( 0.0000,  0.0000,  0.0000)
  40 Pd     4.289377    2.414707   19.383376    ( 0.0000,  0.0000,  0.0000)
  41 Pd     7.127775    2.435933   19.238995    ( 0.0000,  0.0000,  0.0000)
  42 Pt     2.800045    4.973540   19.265019    ( 0.0000,  0.0000,  0.0000)
  43 Ag     5.672644    4.924166   19.451681    ( 0.0000,  0.0000,  0.0000)
  44 Pt     8.555711    4.931445   19.178000    ( 0.0000,  0.0000,  0.0000)
  45 H      2.751464    3.311640   20.103619    ( 0.0000,  0.0000,  0.0000)

Unit cell:
           periodic     x           y           z      points  spacing
  1. axis:    yes    8.517266    0.000000    0.000000    40     0.1844
  2. axis:    yes    4.258633    7.376169    0.000000    40     0.1844
  3. axis:    no     0.000000    0.000000   29.270571   140     0.2091

  Lengths:   8.517266   8.517266  29.270571
  Angles:   90.000000  90.000000  60.000000

Effective grid spacing dv^(1/3) = 0.2017

     iter     time        total  log10-change:
                         energy  eigst   dens
iter:   1 14:37:28  -202.861513  -4.17
iter:   2 14:38:29  -270.090356  -2.53  -2.02
iter:   3 14:39:31  -204.785155  -2.91  -1.35
iter:   4 14:40:31  -200.956828  -3.88  -1.97
iter:   5 14:41:32  -200.487826  -4.78  -2.38
iter:   6 14:42:33  -200.390279  -5.07  -2.75
iter:   7 14:43:36  -200.388408c -5.62  -3.34
iter:   8 14:44:37  -200.381937c -5.81  -3.50
iter:   9 14:45:39  -200.383170c -6.25  -3.54
iter:  10 14:46:40  -200.382975c -6.58  -3.60
iter:  11 14:47:41  -200.381735c -6.48  -3.58
iter:  12 14:48:42  -200.380784c -6.82  -3.81
iter:  13 14:49:44  -200.380889c -7.28  -4.18c
iter:  14 14:50:46  -200.380580c -7.57c -4.26c

Converged after 14 iterations.

Dipole moment: (29.524517, 10.854560, -0.006286) |e|*Ang

Energy contributions relative to reference atoms: (reference = -14172748.147892)

Kinetic:       -328.365763
Potential:     +181.140045
External:        +0.000000
XC:             -40.957162
Entropy (-ST):   -2.343721
Local:          -11.025839
--------------------------
Free energy:   -201.552440
Extrapolated:  -200.380580

Showing only first 2 kpts
 Kpt  Band  Eigenvalues  Occupancy
  0   361      0.66562    0.97256
  0   362      0.67841    0.90884
  0   363      0.71605    0.72744
  0   364      0.72996    0.66436

  1   361      0.53577    1.55236
  1   362      0.55857    1.46820
  1   363      0.59396    1.31927
  1   364      0.62618    1.16811


Fermi level: 0.66013

No gap

Forces in eV/Ang:
  0 Pd    0.00807   -0.00891   -0.26863
  1 Pt    0.30113   -0.51767    0.36974
  2 Pt   -0.33825   -0.14745    0.00411
  3 Pd   -0.41123    0.17898   -0.09049
  4 Pd    0.21398   -0.22153   -0.24949
  5 Pt    0.22713    0.30577   -0.18876
  6 Pd   -0.21956    0.22609   -0.10769
  7 Pt    0.53635    0.17194    0.07990
  8 Ru   -0.46679    0.07381    1.33830
  9 Pd   -0.20343    0.15836    0.20184
 10 Pt    0.28230    0.01262   -0.22408
 11 Pd    0.06300    0.04282   -0.07115
 12 Pd    0.08045    0.09805    0.01452
 13 Pt   -0.18783   -0.17279    0.14937
 14 Ag    0.07413   -0.09413    0.03015
 15 Ag    0.00767   -0.07454   -0.10899
 16 Ag   -0.06641   -0.05814    0.08974
 17 Pt    0.03699    0.21022   -0.56944
 18 Pt    0.05045   -0.00812   -0.00949
 19 Pt   -0.01361    0.00781   -0.00365
 20 Ru   -0.01144    0.01813    0.04241
 21 Pt    0.03327   -0.03907    0.09914
 22 Pd   -0.03288    0.01443    0.02082
 23 Pt    0.02009    0.02378    0.01164
 24 Ag    0.02802   -0.06659   -0.00781
 25 Pt   -0.00567   -0.02782   -0.03106
 26 Ag   -0.00039   -0.03407   -0.01723
 27 Pt   -0.04371   -0.01668   -0.06456
 28 Pd    0.01546   -0.03618   -0.01456
 29 Pd    0.00303   -0.01892    0.00461
 30 Ir   -0.07173   -0.00326   -0.03755
 31 Pt    0.10511   -0.02200   -0.01095
 32 Pd    0.01873   -0.00952    0.03341
 33 Pd   -0.00727    0.07114   -0.02872
 34 Ag    0.03087    0.00242    0.09117
 35 Pt   -0.00934   -0.00264    0.13845
 36 Pt   -0.02180   -0.11362   -0.00376
 37 Pt    0.00524   -0.08823   -0.01445
 38 Pt   -0.01567   -0.01755   -0.02914
 39 Pt    0.18767    0.07649   -0.17864
 40 Pd   -0.10443    0.00216   -0.18482
 41 Pd   -0.03519    0.00642    0.01068
 42 Pt    0.02003   -0.09948   -0.11373
 43 Ag    0.04263    0.04896   -0.00639
 44 Pt   -0.08895    0.06030   -0.04050
 45 H    -0.05119    0.11614   -0.13733

System changes: positions 

Initializing position-dependent things.

Density initialized from wave functions
                                             
                                             
                                             
                                             
                                             
                                             
                HPt     Ag     Pt            
            Pt     Pd     Pd                 
                  Pd     Ag     Pt           
       Pt    IPt    PPt    Pd                
                                             
        Pt     Pd    APd    Pt     Ag        
                Pt     Pd     Pt             
                                             
           Pt    APt    ARu    Pt            
                                             
            Pd    PPt    PAg    Ru           
       Pd     Pt     Pd                      
             Pd     Pd     Pt                
        Pd     Pt     Pt                     
                                             
                                             
                                             
                                             
                                             

Positions:
   0 Pd     0.000000    1.639149   10.000000    ( 0.0000,  0.0000,  0.0000)
   1 Pt     2.839089    1.639149   10.000000    ( 0.0000,  0.0000,  0.0000)
   2 Pt     5.678177    1.639149   10.000000    ( 0.0000,  0.0000,  0.0000)
   3 Pd     1.419544    4.097872   10.000000    ( 0.0000,  0.0000,  0.0000)
   4 Pd     4.258633    4.097872   10.000000    ( 0.0000,  0.0000,  0.0000)
   5 Pt     7.097722    4.097872   10.000000    ( 0.0000,  0.0000,  0.0000)
   6 Pd     2.839089    6.556595   10.000000    ( 0.0000,  0.0000,  0.0000)
   7 Pt     5.678177    6.556595   10.000000    ( 0.0000,  0.0000,  0.0000)
   8 Ru     8.517266    6.556595   10.000000    ( 0.0000,  0.0000,  0.0000)
   9 Pd     0.000000    0.000000   12.317643    ( 0.0000,  0.0000,  0.0000)
  10 Pt     2.839089    0.000000   12.317643    ( 0.0000,  0.0000,  0.0000)
  11 Pd     5.678177    0.000000   12.317643    ( 0.0000,  0.0000,  0.0000)
  12 Pd     1.419544    2.458723   12.317643    ( 0.0000,  0.0000,  0.0000)
  13 Pt     4.258633    2.458723   12.317643    ( 0.0000,  0.0000,  0.0000)
  14 Ag     7.097722    2.458723   12.317643    ( 0.0000,  0.0000,  0.0000)
[...]
  14 Ag     7.097722    2.458723   12.317643    ( 0.0000,  0.0000,  0.0000)
  15 Ag     2.839089    4.917446   12.317643    ( 0.0000,  0.0000,  0.0000)
  16 Ag     5.678177    4.917446   12.317643    ( 0.0000,  0.0000,  0.0000)
  17 Pt     8.517266    4.917446   12.317643    ( 0.0000,  0.0000,  0.0000)
  18 Pt     1.390236    0.801819   14.584850    ( 0.0000,  0.0000,  0.0000)
  19 Pt     4.331744    0.814680   14.613521    ( 0.0000,  0.0000,  0.0000)
  20 Ru     7.152514    0.901272   14.675327    ( 0.0000,  0.0000,  0.0000)
  21 Pt     2.848714    3.208746   14.688483    ( 0.0000,  0.0000,  0.0000)
  22 Pd     5.679135    3.245181   14.669149    ( 0.0000,  0.0000,  0.0000)
  23 Pt     8.540555    3.274021   14.662171    ( 0.0000,  0.0000,  0.0000)
  24 Ag     4.285663    5.707176   14.656716    ( 0.0000,  0.0000,  0.0000)
  25 Pt     7.170068    5.764684   14.614969    ( 0.0000,  0.0000,  0.0000)
  26 Ag    10.001203    5.726862   14.639022    ( 0.0000,  0.0000,  0.0000)
  27 Pt    -0.005632    1.650188   16.860807    ( 0.0000,  0.0000,  0.0000)
  28 Pd     2.850595    1.596287   16.941193    ( 0.0000,  0.0000,  0.0000)
  29 Pd     5.684723    1.619772   16.927550    ( 0.0000,  0.0000,  0.0000)
  30 Ir     1.440883    4.041430   16.986909    ( 0.0000,  0.0000,  0.0000)
  31 Pt     4.194931    4.025539   17.012243    ( 0.0000,  0.0000,  0.0000)
  32 Pd     7.072622    4.088296   16.928967    ( 0.0000,  0.0000,  0.0000)
  33 Pd     2.839060    6.569748   16.929195    ( 0.0000,  0.0000,  0.0000)
  34 Ag     5.673375    6.508545   16.981060    ( 0.0000,  0.0000,  0.0000)
  35 Pt     8.532144    6.526618   16.936667    ( 0.0000,  0.0000,  0.0000)
  36 Pt    -0.017916    0.048232   19.245055    ( 0.0000,  0.0000,  0.0000)
  37 Pt     2.870040    0.008885   19.258893    ( 0.0000,  0.0000,  0.0000)
  38 Pt     5.656166   -0.024931   19.228217    ( 0.0000,  0.0000,  0.0000)
  39 Pt     1.391382    2.397611   19.235719    ( 0.0000,  0.0000,  0.0000)
  40 Pd     4.297134    2.401319   19.343435    ( 0.0000,  0.0000,  0.0000)
  41 Pd     7.124463    2.438465   19.243760    ( 0.0000,  0.0000,  0.0000)
  42 Pt     2.803256    4.973483   19.235077    ( 0.0000,  0.0000,  0.0000)
  43 Ag     5.676828    4.930440   19.455414    ( 0.0000,  0.0000,  0.0000)
  44 Pt     8.543038    4.937250   19.173653    ( 0.0000,  0.0000,  0.0000)
  45 H      2.732523    3.344675   20.045189    ( 0.0000,  0.0000,  0.0000)

Unit cell:
           periodic     x           y           z      points  spacing
  1. axis:    yes    8.517266    0.000000    0.000000    40     0.1844
  2. axis:    yes    4.258633    7.376169    0.000000    40     0.1844
  3. axis:    no     0.000000    0.000000   29.270571   140     0.2091

  Lengths:   8.517266   8.517266  29.270571
  Angles:   90.000000  90.000000  60.000000

Effective grid spacing dv^(1/3) = 0.2017

     iter     time        total  log10-change:
                         energy  eigst   dens
iter:   1 15:24:41  -205.072303  -3.83
iter:   2 15:25:44  -305.866509  -2.27  -1.90
iter:   3 15:26:46  -208.192232  -2.71  -1.26
iter:   4 15:27:48  -201.641233  -3.64  -1.86
iter:   5 15:28:50  -200.530834  -4.44  -2.22
iter:   6 15:29:51  -200.431612  -4.90  -2.77
iter:   7 15:30:53  -200.430116c -5.38  -3.23
iter:   8 15:31:54  -200.416236c -5.52  -3.26
iter:   9 15:32:55  -200.420911c -5.98  -3.43
iter:  10 15:33:57  -200.417754c -6.36  -3.30
iter:  11 15:34:58  -200.414916c -6.23  -3.49
iter:  12 15:36:00  -200.414288c -6.34  -3.71
iter:  13 15:37:02  -200.414637c -6.93  -3.95
iter:  14 15:38:03  -200.413832c -7.35  -3.89
iter:  15 15:39:05  -200.414339c -7.55c -4.10c

Converged after 15 iterations.

Dipole moment: (29.617517, 12.372993, -0.001884) |e|*Ang

Energy contributions relative to reference atoms: (reference = -14172748.147892)

Kinetic:       -323.343992
Potential:     +176.736383
External:        +0.000000
XC:             -41.617320
Entropy (-ST):   -2.340128
Local:          -11.019345
--------------------------
Free energy:   -201.584403
Extrapolated:  -200.414339

Showing only first 2 kpts
 Kpt  Band  Eigenvalues  Occupancy
  0   361      0.66976    0.96920
  0   362      0.68228    0.90690
  0   363      0.72113    0.72006
  0   364      0.73161    0.67249

  1   361      0.53867    1.55438
  1   362      0.56256    1.46622
  1   363      0.59818    1.31592
  1   364      0.62744    1.17888


Fermi level: 0.66360

No gap

Forces in eV/Ang:
  0 Pd    0.00752   -0.00852   -0.26399
  1 Pt    0.29996   -0.51882    0.37675
  2 Pt   -0.33817   -0.14777    0.00969
  3 Pd   -0.41181    0.17935   -0.08483
  4 Pd    0.21421   -0.22009   -0.24388
  5 Pt    0.22604    0.30907   -0.18709
  6 Pd   -0.21931    0.22700   -0.10146
  7 Pt    0.54007    0.16873    0.08154
  8 Ru   -0.47378    0.07158    1.33680
  9 Pd   -0.20375    0.15637    0.23042
 10 Pt    0.29138    0.01577   -0.23766
 11 Pd    0.06147    0.03916   -0.06851
 12 Pd    0.09257    0.10235    0.04049
 13 Pt   -0.19505   -0.16968    0.16299
 14 Ag    0.07545   -0.10179    0.06844
 15 Ag    0.01267   -0.09285   -0.08886
 16 Ag   -0.06916   -0.06569    0.07552
 17 Pt    0.04868    0.20168   -0.58210
 18 Pt   -0.02731   -0.03642   -0.00213
 19 Pt    0.01759   -0.04970    0.01330
 20 Ru   -0.01537   -0.02665   -0.08042
 21 Pt   -0.01417    0.03007   -0.03214
 22 Pd    0.04527   -0.02218   -0.01083
 23 Pt   -0.02794   -0.01914   -0.04631
 24 Ag    0.00240    0.03586    0.01383
 25 Pt    0.01413    0.00850    0.05355
 26 Ag   -0.00552    0.04137    0.01530
 27 Pt    0.04525    0.01115    0.05130
 28 Pd    0.00664   -0.04359   -0.09738
 29 Pd   -0.01124    0.01018   -0.00904
 30 Ir   -0.00543    0.02624   -0.08876
 31 Pt    0.01020    0.02088   -0.09469
 32 Pd    0.01734   -0.03440   -0.01974
 33 Pd    0.00568   -0.02667   -0.04062
 34 Ag   -0.01774    0.00304   -0.04733
 35 Pt    0.03159   -0.01502   -0.08594
 36 Pt   -0.03062    0.06870   -0.02495
 37 Pt   -0.02115    0.01671    0.05087
 38 Pt    0.04900   -0.00300    0.00278
 39 Pt   -0.02678   -0.03502   -0.03787
 40 Pd   -0.07533    0.01852   -0.04483
 41 Pd    0.05412   -0.07030   -0.02463
 42 Pt   -0.03036    0.01768   -0.05520
 43 Ag    0.00490   -0.02892    0.02592
 44 Pt    0.01496   -0.03461    0.03459
 45 H     0.00175    0.05526   -0.05891

System changes: positions 

Initializing position-dependent things.

Density initialized from wave functions
                                             
                                             
                                             
                                             
                                             
                                             
                HPt     Ag     Pt            
            Pt     Pd    APd                 
                  Pd            Pt           
       Pt    IPt    PPt    Pd                
                                             
        Pt     Pd    APd    Pt     Ag        
                Pt     Pd     Pt             
                                             
           Pt    APt    ARu    Pt            
                                             
            Pd    PPt    PAg    Ru           
       Pd     Pt     Pd                      
             Pd     Pd     Pt                
        Pd     Pt     Pt                     
                                             
                                             
                                             
                                             
                                             

Positions:
   0 Pd     0.000000    1.639149   10.000000    ( 0.0000,  0.0000,  0.0000)
   1 Pt     2.839089    1.639149   10.000000    ( 0.0000,  0.0000,  0.0000)
   2 Pt     5.678177    1.639149   10.000000    ( 0.0000,  0.0000,  0.0000)
   3 Pd     1.419544    4.097872   10.000000    ( 0.0000,  0.0000,  0.0000)
   4 Pd     4.258633    4.097872   10.000000    ( 0.0000,  0.0000,  0.0000)
   5 Pt     7.097722    4.097872   10.000000    ( 0.0000,  0.0000,  0.0000)
   6 Pd     2.839089    6.556595   10.000000    ( 0.0000,  0.0000,  0.0000)
   7 Pt     5.678177    6.556595   10.000000    ( 0.0000,  0.0000,  0.0000)
   8 Ru     8.517266    6.556595   10.000000    ( 0.0000,  0.0000,  0.0000)
   9 Pd     0.000000    0.000000   12.317643    ( 0.0000,  0.0000,  0.0000)
  10 Pt     2.839089    0.000000   12.317643    ( 0.0000,  0.0000,  0.0000)
  11 Pd     5.678177    0.000000   12.317643    ( 0.0000,  0.0000,  0.0000)
  12 Pd     1.419544    2.458723   12.317643    ( 0.0000,  0.0000,  0.0000)
  13 Pt     4.258633    2.458723   12.317643    ( 0.0000,  0.0000,  0.0000)
  14 Ag     7.097722    2.458723   12.317643    ( 0.0000,  0.0000,  0.0000)
  15 Ag     2.839089    4.917446   12.317643    ( 0.0000,  0.0000,  0.0000)
  16 Ag     5.678177    4.917446   12.317643    ( 0.0000,  0.0000,  0.0000)
  17 Pt     8.517266    4.917446   12.317643    ( 0.0000,  0.0000,  0.0000)
  18 Pt     1.390794    0.800668   14.584660    ( 0.0000,  0.0000,  0.0000)
  19 Pt     4.331954    0.813498   14.613758    ( 0.0000,  0.0000,  0.0000)
  20 Ru     7.152182    0.900873   14.674138    ( 0.0000,  0.0000,  0.0000)
  21 Pt     2.849222    3.208294   14.689763    ( 0.0000,  0.0000,  0.0000)
  22 Pd     5.679719    3.244652   14.669421    ( 0.0000,  0.0000,  0.0000)
  23 Pt     8.540622    3.273899   14.661364    ( 0.0000,  0.0000,  0.0000)
  24 Ag     4.286493    5.706587   14.657322    ( 0.0000,  0.0000,  0.0000)
  25 Pt     7.170504    5.764455   14.615680    ( 0.0000,  0.0000,  0.0000)
  26 Ag    10.001235    5.726947   14.639182    ( 0.0000,  0.0000,  0.0000)
  27 Pt    -0.005642    1.649582   16.860368    ( 0.0000,  0.0000,  0.0000)
  28 Pd     2.851005    1.594641   16.939658    ( 0.0000,  0.0000,  0.0000)
  29 Pd     5.684926    1.619268   16.926931    ( 0.0000,  0.0000,  0.0000)
  30 Ir     1.439700    4.041561   16.984406    ( 0.0000,  0.0000,  0.0000)
  31 Pt     4.196943    4.025406   17.011057    ( 0.0000,  0.0000,  0.0000)
  32 Pd     7.072988    4.087337   16.929007    ( 0.0000,  0.0000,  0.0000)
  33 Pd     2.839346    6.570367   16.927471    ( 0.0000,  0.0000,  0.0000)
  34 Ag     5.673496    6.508310   16.981593    ( 0.0000,  0.0000,  0.0000)
  35 Pt     8.532690    6.526137   16.936272    ( 0.0000,  0.0000,  0.0000)
  36 Pt    -0.018816    0.047676   19.244557    ( 0.0000,  0.0000,  0.0000)
  37 Pt     2.869612    0.007439   19.259900    ( 0.0000,  0.0000,  0.0000)
  38 Pt     5.657211   -0.025500   19.227871    ( 0.0000,  0.0000,  0.0000)
  39 Pt     1.391977    2.396476   19.230972    ( 0.0000,  0.0000,  0.0000)
  40 Pd     4.296467    2.400395   19.338925    ( 0.0000,  0.0000,  0.0000)
  41 Pd     7.125257    2.437385   19.243442    ( 0.0000,  0.0000,  0.0000)
  42 Pt     2.803274    4.973989   19.231662    ( 0.0000,  0.0000,  0.0000)
  43 Ag     5.677354    4.930466   19.456512    ( 0.0000,  0.0000,  0.0000)
  44 Pt     8.541647    4.937115   19.173726    ( 0.0000,  0.0000,  0.0000)
  45 H      2.730243    3.349733   20.033141    ( 0.0000,  0.0000,  0.0000)

Unit cell:
           periodic     x           y           z      points  spacing
  1. axis:    yes    8.517266    0.000000    0.000000    40     0.1844
  2. axis:    yes    4.258633    7.376169    0.000000    40     0.1844
  3. axis:    no     0.000000    0.000000   29.270571   140     0.2091

  Lengths:   8.517266   8.517266  29.270571
  Angles:   90.000000  90.000000  60.000000

Effective grid spacing dv^(1/3) = 0.2017

     iter     time        total  log10-change:
                         energy  eigst   dens
iter:   1 15:40:27  -200.675639  -4.71
iter:   2 15:41:28  -210.091884  -3.50  -2.46
iter:   3 15:42:29  -200.921747  -3.85  -1.76
iter:   4 15:43:30  -200.447652  -4.72  -2.45
iter:   5 15:44:32  -200.431390  -5.91  -3.06
iter:   6 15:45:34  -200.417731c -6.14  -3.22
iter:   7 15:46:35  -200.417687c -6.67  -3.96
iter:   8 15:47:37  -200.416636c -6.87  -4.02c
iter:   9 15:48:38  -200.416722c -7.10  -4.23c
iter:  10 15:49:39  -200.416504c -7.48c -4.33c

Converged after 10 iterations.

Dipole moment: (29.659620, 12.434252, -0.005937) |e|*Ang

Energy contributions relative to reference atoms: (reference = -14172748.147892)

Kinetic:       -325.587950
Potential:     +178.983307
External:        +0.000000
XC:             -41.617921
Entropy (-ST):   -2.341095
Local:          -11.023393
--------------------------
Free energy:   -201.587052
Extrapolated:  -200.416504

Showing only first 2 kpts
 Kpt  Band  Eigenvalues  Occupancy
  0   361      0.66960    0.97089
  0   362      0.68278    0.90525
  0   363      0.72114    0.72076
  0   364      0.73118    0.67514

  1   361      0.53975    1.55120
  1   362      0.56330    1.46398
  1   363      0.59850    1.31524
  1   364      0.62680    1.18278


Fermi level: 0.66377

No gap

Forces in eV/Ang:
  0 Pd    0.00668   -0.01143   -0.25567
  1 Pt    0.30308   -0.51909    0.38893
  2 Pt   -0.34208   -0.14890    0.01848
  3 Pd   -0.41460    0.18240   -0.07505
  4 Pd    0.21752   -0.22262   -0.23439
  5 Pt    0.22705    0.31118   -0.17741
  6 Pd   -0.22162    0.23014   -0.09689
  7 Pt    0.54179    0.17083    0.09114
  8 Ru   -0.47438    0.07206    1.35971
  9 Pd   -0.20037    0.14929    0.23398
 10 Pt    0.28949    0.01280   -0.22213
 11 Pd    0.06285    0.03827   -0.05868
 12 Pd    0.09786    0.10302    0.04890
 13 Pt   -0.19479   -0.16510    0.17550
 14 Ag    0.07216   -0.09718    0.06855
 15 Ag    0.01665   -0.09516   -0.08242
 16 Ag   -0.07162   -0.06627    0.08419
 17 Pt    0.04759    0.20039   -0.57063
 18 Pt   -0.01884   -0.03245    0.00226
 19 Pt    0.01173   -0.02956    0.01812
 20 Ru   -0.01204   -0.02034   -0.06047
 21 Pt   -0.00783    0.02572   -0.03415
 22 Pd    0.03033   -0.01352   -0.00189
 23 Pt   -0.02671   -0.01259   -0.03081
 24 Ag    0.00594    0.02790    0.01015
 25 Pt    0.00234    0.00084    0.04839
 26 Ag   -0.00305    0.03100    0.01225
 27 Pt    0.03868    0.00998    0.03261
 28 Pd    0.01341   -0.03459   -0.07795
 29 Pd   -0.01188    0.01161   -0.00431
 30 Ir   -0.00034    0.01607   -0.07366
 31 Pt    0.01986    0.01331   -0.07345
 32 Pd    0.00328   -0.01903   -0.00378
 33 Pd    0.00831   -0.01417   -0.02859
 34 Ag   -0.00900   -0.00930   -0.03529
 35 Pt    0.01848   -0.01362   -0.04959
 36 Pt   -0.02231    0.03200   -0.00759
 37 Pt   -0.01030   -0.00658    0.05436
 38 Pt    0.02696    0.00577    0.01132
 39 Pt   -0.01110   -0.01942   -0.03076
 40 Pd   -0.05811    0.03466   -0.04123
 41 Pd    0.01298   -0.03935   -0.01081
 42 Pt   -0.01208    0.00921   -0.04665
 43 Ag    0.00666   -0.03526    0.02894
 44 Pt   -0.00507   -0.02273    0.04406
 45 H     0.00919    0.04118   -0.03538

Timing:                                      incl.     excl.
-------------------------------------------------------------------
Density initialized from wave functions:    29.244    29.244   0.2% |
 Symmetrize density:                         0.000     0.000   0.0% |
Forces:                                    150.790   150.790   1.2% |
Hamiltonian:                                16.513     0.097   0.0% |
 Atomic:                                     1.128     0.310   0.0% |
  XC Correction:                             0.817     0.817   0.0% |
 Calculate atomic Hamiltonians:             10.153    10.153   0.1% |
 Communicate:                                2.087     2.087   0.0% |
 Initialize Hamiltonian:                     0.000     0.000   0.0% |
 Poisson:                                    0.069     0.069   0.0% |
 XC 3D grid:                                 2.979     2.979   0.0% |
LCAO initialization:                       125.854     2.404   0.0% |
 LCAO eigensolver:                          15.038     0.001   0.0% |
  Blacs Orbital Layouts:                     0.276     0.000   0.0% |
   General diagonalize:                      0.271     0.271   0.0% |
   Redistribute coefs:                       0.002     0.002   0.0% |
   Send coefs to domains:                    0.002     0.002   0.0% |
  Calculate projections:                     0.003     0.003   0.0% |
  Distribute overlap matrix:                13.950     0.000   0.0% |
   Scalapack redistribute:                   0.007     0.007   0.0% |
   blocked summation:                       13.943    13.943   0.1% |
  Potential matrix:                          0.768     0.768   0.0% |
  SparseAtomicCorrection:                    0.005     0.005   0.0% |
  Sum over cells:                            0.035     0.035   0.0% |
 LCAO to grid:                             104.681   104.681   0.8% |
 Set positions (LCAO WFS):                   3.732     0.006   0.0% |
  Basic WFS set positions:                   0.003     0.003   0.0% |
  Basis functions set positions:             0.000     0.000   0.0% |
  P tci:                                     0.000     0.000   0.0% |
  ST tci:                                    0.281     0.281   0.0% |
  Scalapack redistribute:                    0.007     0.007   0.0% |
  blocked summation:                         3.319     3.319   0.0% |
  mktci:                                     0.117     0.117   0.0% |
PWDescriptor:                                0.549     0.549   0.0% |
Redistribute:                                0.010     0.010   0.0% |
SCF-cycle:                               12486.601   451.256   3.5% ||
 Davidson:                               11187.575  2595.612  20.2% |-------|
  Apply H:                                1154.841  1135.083   8.8% |---|
   HMM T:                                   19.757    19.757   0.2% |
  Subspace diag:                          1299.088     0.042   0.0% |
   calc_h_matrix:                          841.888   245.700   1.9% ||
    Apply H:                               596.188   585.198   4.5% |-|
     HMM T:                                 10.990    10.990   0.1% |
   diagonalize:                             48.469    48.469   0.4% |
   rotate_psi:                             408.689   408.689   3.2% ||
  calc. matrices:                         4272.042  2587.945  20.1% |-------|
   Apply H:                               1684.097  1654.383  12.9% |----|
    HMM T:                                  29.714    29.714   0.2% |
  diagonalize:                             619.652   619.652   4.8% |-|
  rotate_psi:                             1246.340  1246.340   9.7% |---|
 Density:                                  517.592     0.009   0.0% |
  Atomic density matrices:                   3.862     3.862   0.0% |
  Mix:                                     187.239   187.239   1.5% ||
  Multipole moments:                         0.325     0.325   0.0% |
  Pseudo density:                          326.156   326.148   2.5% ||
   Symmetrize density:                       0.008     0.008   0.0% |
 Hamiltonian:                              285.978     1.603   0.0% |
  Atomic:                                   15.351     2.228   0.0% |
   XC Correction:                           13.123    13.123   0.1% |
  Calculate atomic Hamiltonians:           167.595   167.595   1.3% ||
  Communicate:                              44.779    44.779   0.3% |
  Poisson:                                   0.998     0.998   0.0% |
  XC 3D grid:                               55.652    55.652   0.4% |
 Orthonormalize:                            44.200     0.004   0.0% |
  calc_s_matrix:                             7.152     7.152   0.1% |
  inverse-cholesky:                          2.219     2.219   0.0% |
  projections:                              22.870    22.870   0.2% |
  rotate_psi_s:                             11.956    11.956   0.1% |
Set symmetry:                                0.002     0.002   0.0% |
Other:                                      53.348    53.348   0.4% |
-------------------------------------------------------------------
Total:                                             12862.911 100.0%

Memory usage: 859.43 MiB
Date: Fri Jun 14 15:49:52 2024
