
  ___ ___ ___ _ _ _  
 |   |   |_  | | | | 
 | | | | | . | | | | 
 |__ |  _|___|_____|  22.1.0
 |___|_|             

User:   clausen@node430.cluster
Date:   Fri Jun 14 14:00:02 2024
Arch:   x86_64
Pid:    4524
Python: 3.10.4
gpaw:   /groups/kemi/clausen/miniconda3/envs/gpaw22/lib/python3.10/site-packages/gpaw
_gpaw:  /groups/kemi/clausen/miniconda3/envs/gpaw22/lib/python3.10/site-packages/
        _gpaw.cpython-310-x86_64-linux-gnu.so
ase:    /groups/kemi/clausen/miniconda3/envs/gpaw22/lib/python3.10/site-packages/ase (version 3.22.1)
numpy:  /groups/kemi/clausen/miniconda3/envs/gpaw22/lib/python3.10/site-packages/numpy (version 1.23.1)
scipy:  /groups/kemi/clausen/miniconda3/envs/gpaw22/lib/python3.10/site-packages/scipy (version 1.8.1)
libxc:  5.2.3
units:  Angstrom and eV
cores: 24
OpenMP: True
OMP_NUM_THREADS: 1

Input parameters:
  eigensolver: {name: dav,
                niter: 3}
  kpts: [4 4 1]
  mode: {ecut: 400.0,
         name: pw}
  xc: RPBE

System changes: positions, numbers, cell, pbc, initial_charges, initial_magmoms 

Initialize ...

Pd-setup:
  name: Palladium
  id: 6da19bfba079f22767af9506641940b9
  Z: 46.0
  valence: 16
  core: 30
  charge: 0.0
  file: /groups/kemi/clausen/miniconda3/envs/gpaw22/share/gpaw/Pd.RPBE.gz
  compensation charges: gauss, rc=0.38, lmax=2
  cutoffs: 2.38(filt), 2.28(core),
  valence states:
                energy  radius
    5s(0.00)    -3.225   1.228
    4p(6.00)   -51.131   1.360
    5p(0.00)    -0.373   1.360
    4d(10.00)    -3.964   1.228
    *s          23.987   1.228
    *d          23.247   1.228

  Using partial waves for Pd as LCAO basis

Pt-setup:
  name: Platinum
  id: f04f522592575c47ad794f6b4a415b4b
  Z: 78.0
  valence: 16
  core: 62
  charge: 0.0
  file: /groups/kemi/clausen/miniconda3/envs/gpaw22/share/gpaw/Pt.RPBE.gz
  compensation charges: gauss, rc=0.41, lmax=2
  cutoffs: 2.26(filt), 2.26(core),
  valence states:
                energy  radius
    6s(1.00)    -5.516   1.307
    5p(6.00)   -55.971   1.371
    6p(0.00)    -0.856   1.371
    5d(9.00)    -6.087   1.307
    *s          21.695   1.307
    *d          21.125   1.307

  Using partial waves for Pt as LCAO basis

Ag-setup:
  name: Silver
  id: c05e55bab2c3858b3f9398f6d75cb77c
  Z: 47.0
  valence: 17
  core: 30
  charge: 0.0
  file: /groups/kemi/clausen/miniconda3/envs/gpaw22/share/gpaw/Ag.RPBE.gz
  compensation charges: gauss, rc=0.40, lmax=2
  cutoffs: 2.35(filt), 2.19(core),
  valence states:
                energy  radius
    5s(1.00)    -4.277   1.286
    4p(6.00)   -58.523   1.328
    5p(0.00)    -0.755   1.328
    4d(10.00)    -7.386   1.180
    *s          22.934   1.286
    *d          19.826   1.180

  Using partial waves for Ag as LCAO basis

Ir-setup:
  name: Iridium
  id: 73b603359d1d5397a85ae3c2440f9033
  Z: 77.0
  valence: 15
  core: 62
  charge: 0.0
  file: /groups/kemi/clausen/miniconda3/envs/gpaw22/share/gpaw/Ir.RPBE.gz
  compensation charges: gauss, rc=0.40, lmax=2
  cutoffs: 2.40(filt), 2.36(core),
  valence states:
                energy  radius
    6s(2.00)    -6.219   1.296
    5p(6.00)   -54.684   1.328
    6p(0.00)    -1.215   1.328
    5d(7.00)    -7.118   1.286
    *s          20.992   1.296
    *d          20.093   1.286

  Using partial waves for Ir as LCAO basis

Ru-setup:
  name: Ruthenium
  id: 76477906e28f51dc1b29884d53556fe9
  Z: 44.0
  valence: 16
  core: 28
  charge: 0.0
  file: /groups/kemi/clausen/miniconda3/envs/gpaw22/share/gpaw/Ru.RPBE.gz
  compensation charges: gauss, rc=0.39, lmax=2
  cutoffs: 2.16(filt), 1.30(core),
  valence states:
                energy  radius
    4s(2.00)   -76.255   1.281
    5s(1.00)    -4.126   1.281
    4p(6.00)   -46.371   1.286
    5p(0.00)    -0.913   1.286
    4d(7.00)    -5.146   1.254
    *d          22.066   1.254

  Using partial waves for Ru as LCAO basis

H-setup:
  name: Hydrogen
  id: ea3f9156a1dc40d47a60fdce8f8bd75d
  Z: 1.0
  valence: 1
  core: 0
  charge: 0.0
  file: /groups/kemi/clausen/miniconda3/envs/gpaw22/share/gpaw/H.RPBE.gz
  compensation charges: gauss, rc=0.15, lmax=2
  cutoffs: 0.85(filt), 0.53(core),
  valence states:
                energy  radius
    1s(1.00)    -6.572   0.476
    *s          20.639   0.476
    *p           0.000   0.476

  Using partial waves for H as LCAO basis

Reference energy: -12371328.023897

Spin-paired calculation

Convergence criteria:
 Maximum [total energy] change in last 3 cyles: 0.0005 eV / electron
 Maximum integral of absolute [dens]ity change: 0.0001 electrons / valence electron
 Maximum integral of absolute [eigenst]ate change: 4e-08 eV^2 / valence electron
 Maximum number of scf [iter]ations: 333
 (Square brackets indicate name in SCF output, whereas a 'c' in
 the SCF output indicates the quantity has converged.)

Symmetries present (total): 1

  ( 1  0  0)
  ( 0  1  0)
  ( 0  0  1)

16 k-points: 4 x 4 x 1 Monkhorst-Pack grid
8 k-points in the irreducible part of the Brillouin zone
       k-points in crystal coordinates                weights
   0:     0.12500000   -0.37500000    0.00000000          2/16
   1:     0.12500000   -0.12500000    0.00000000          2/16
   2:     0.12500000    0.12500000    0.00000000          2/16
   3:     0.12500000    0.37500000    0.00000000          2/16
   4:     0.37500000   -0.37500000    0.00000000          2/16
   5:     0.37500000   -0.12500000    0.00000000          2/16
   6:     0.37500000    0.12500000    0.00000000          2/16
   7:     0.37500000    0.37500000    0.00000000          2/16

Wave functions: Plane wave expansion
  Cutoff energy: 400.000 eV
  Number of coefficients (min, max): 33288, 33380
  Pulay-stress correction: 0.000000 eV/Ang^3 (de/decut=0.000000)
  Using FFTW library
  ScaLapack parameters: grid=3x1, blocksize=64
  Wavefunction extrapolation:
    Improved wavefunction reuse through dual PAW basis 

Occupation numbers: Fermi-Dirac: width=0.1000 eV
 

Eigensolver
   Davidson(niter=3) 

Densities:
  Coarse grid: 40*40*140 grid
  Fine grid: 80*80*280 grid
  Total Charge: 0.000000 

Density mixing:
  Method: separate
  Backend: pulay
  Linear mixing parameter: 0.05
  Mixing with 5 old densities
  Damping of long wave oscillations: 50 

Hamiltonian:
  XC and Coulomb potentials evaluated on a 80*80*280 grid
  Using the RPBE Exchange-Correlation functional
  External potential:
    NoExternalPotential
 

XC parameters: RPBE with 2 nearest neighbor stencil

Memory estimate:
  Process memory now: 196.22 MiB
  Calculator: 557.13 MiB
    Density: 47.40 MiB
      Arrays: 14.92 MiB
      Localized functions: 26.74 MiB
      Mixer: 5.74 MiB
    Hamiltonian: 10.59 MiB
      Arrays: 9.75 MiB
      XC: 0.00 MiB
      Poisson: 0.00 MiB
      vbar: 0.84 MiB
    Wavefunctions: 499.14 MiB
      Arrays psit_nG: 226.15 MiB
      Eigensolver: 258.79 MiB
      Projections: 1.84 MiB
      Projectors: 3.57 MiB
      PW-descriptor: 8.80 MiB

Total number of cores used: 24
Parallelization over k-points: 8
Domain decomposition: 1 x 1 x 3
                      2 x 2 x 6 (xc only)

Number of atoms: 46
Number of atomic orbitals: 544
Number of bands in calculation: 444
Number of valence electrons: 732
Bands to converge: occupied

... initialized

Initializing position-dependent things.

Density initialized from atomic densities
Creating initial wave functions:
  444 bands from LCAO basis set

                                             
                                             
                                             
                                             
                                             
                                             
                               Ag            
                  Ir    Pt                   
             Pt   PRu    HPt    Pd           
                         Pt                  
       Pt    APt    PAg    Ru                
                                             
        Ag     Ag    PPt    Pt     Ag        
                       Pd     Pt             
                Ru                           
           Ag    PAg    PPt    Pd            
                                             
            Ir     Pt    PAg    Pd           
       Pd     Pd     Pt                      
             Pd     Ag     Ag                
        Pd     Pt     Ag                     
                                             
                                             
                                             
                                             
                                             

Positions:
   0 Pd     0.000000    1.637674   10.000000    ( 0.0000,  0.0000,  0.0000)
   1 Pt     2.836535    1.637674   10.000000    ( 0.0000,  0.0000,  0.0000)
   2 Ag     5.673071    1.637674   10.000000    ( 0.0000,  0.0000,  0.0000)
   3 Pd     1.418268    4.094186   10.000000    ( 0.0000,  0.0000,  0.0000)
   4 Ag     4.254803    4.094186   10.000000    ( 0.0000,  0.0000,  0.0000)
   5 Ag     7.091338    4.094186   10.000000    ( 0.0000,  0.0000,  0.0000)
   6 Ag     2.836535    6.550698   10.000000    ( 0.0000,  0.0000,  0.0000)
   7 Pd     5.673071    6.550698   10.000000    ( 0.0000,  0.0000,  0.0000)
   8 Pd     8.509606    6.550698   10.000000    ( 0.0000,  0.0000,  0.0000)
   9 Pd     0.000000    0.000000   12.317643    ( 0.0000,  0.0000,  0.0000)
  10 Pd     2.836535    0.000000   12.317643    ( 0.0000,  0.0000,  0.0000)
  11 Pt     5.673071    0.000000   12.317643    ( 0.0000,  0.0000,  0.0000)
  12 Ir     1.418268    2.456512   12.317643    ( 0.0000,  0.0000,  0.0000)
  13 Pt     4.254803    2.456512   12.317643    ( 0.0000,  0.0000,  0.0000)
  14 Ag     7.091338    2.456512   12.317643    ( 0.0000,  0.0000,  0.0000)
  15 Pt     2.836535    4.913023   12.317643    ( 0.0000,  0.0000,  0.0000)
  16 Pd     5.673071    4.913023   12.317643    ( 0.0000,  0.0000,  0.0000)
  17 Pd     8.509606    4.913023   12.317643    ( 0.0000,  0.0000,  0.0000)
  18 Ag     1.386531    0.763556   14.612127    ( 0.0000,  0.0000,  0.0000)
  19 Ag     4.217140    0.786897   14.656625    ( 0.0000,  0.0000,  0.0000)
  20 Pt     7.062906    0.797650   14.661830    ( 0.0000,  0.0000,  0.0000)
  21 Ru     2.750963    3.304886   14.388561    ( 0.0000,  0.0000,  0.0000)
  22 Pd     5.602551    3.218685   14.639951    ( 0.0000,  0.0000,  0.0000)
  23 Pt     8.522404    3.252925   14.664528    ( 0.0000,  0.0000,  0.0000)
  24 Pt     4.170018    5.653000   14.615813    ( 0.0000,  0.0000,  0.0000)
  25 Pt     7.045875    5.606680   14.668177    ( 0.0000,  0.0000,  0.0000)
  26 Ag     9.874604    5.745082   14.696712    ( 0.0000,  0.0000,  0.0000)
  27 Ag     0.008271    1.607036   16.990555    ( 0.0000,  0.0000,  0.0000)
  28 Ag     2.792579    1.619369   16.881405    ( 0.0000,  0.0000,  0.0000)
  29 Pt     5.667100    1.638371   17.010896    ( 0.0000,  0.0000,  0.0000)
  30 Ag     1.336657    4.090436   17.016493    ( 0.0000,  0.0000,  0.0000)
  31 Pd     4.156889    4.034058   16.812256    ( 0.0000,  0.0000,  0.0000)
  32 Ru     6.950997    4.060452   16.869499    ( 0.0000,  0.0000,  0.0000)
  33 Pd     2.789491    6.566972   17.027197    ( 0.0000,  0.0000,  0.0000)
  34 Pt     5.653668    6.422911   16.906578    ( 0.0000,  0.0000,  0.0000)
  35 Pd     8.427941    6.500649   17.069490    ( 0.0000,  0.0000,  0.0000)
  36 Pt     0.076782   -0.041353   19.274293    ( 0.0000,  0.0000,  0.0000)
  37 Pt     2.811452    0.089084   19.254665    ( 0.0000,  0.0000,  0.0000)
  38 Ag     5.710723    0.010761   19.489412    ( 0.0000,  0.0000,  0.0000)
  39 Pt     1.555073    2.469759   19.393081    ( 0.0000,  0.0000,  0.0000)
  40 Ru     4.240188    2.601647   19.102653    ( 0.0000,  0.0000,  0.0000)
  41 Pt     7.117679    2.492363   19.219346    ( 0.0000,  0.0000,  0.0000)
  42 Ir     3.044217    4.828007   19.146959    ( 0.0000,  0.0000,  0.0000)
  43 Pt     5.722064    4.861267   19.161462    ( 0.0000,  0.0000,  0.0000)
  44 Ag     8.573183    4.898414   19.530449    ( 0.0000,  0.0000,  0.0000)
  45 H      7.138264    0.820590   20.830449    ( 0.0000,  0.0000,  0.0000)

Unit cell:
           periodic     x           y           z      points  spacing
  1. axis:    yes    8.509606    0.000000    0.000000    40     0.1842
  2. axis:    yes    4.254803    7.369535    0.000000    40     0.1842
  3. axis:    no     0.000000    0.000000   29.270571   140     0.2091

  Lengths:   8.509606   8.509606  29.270571
  Angles:   90.000000  90.000000  60.000000

Effective grid spacing dv^(1/3) = 0.2016

     iter     time        total  log10-change:
                         energy  eigst   dens
iter:   1 14:03:22  -243.805014
iter:   2 14:04:19  -355.404236  -1.40  -1.22
iter:   3 14:05:17  -211.266665  -1.99  -1.08
iter:   4 14:06:15  -201.654723  -2.47  -1.39
iter:   5 14:07:13  -198.591612  -2.64  -1.46
iter:   6 14:08:12  -196.196691  -2.79  -1.53
iter:   7 14:09:10  -192.200150  -3.02  -1.57
iter:   8 14:10:10  -196.260623  -2.58  -1.71
iter:   9 14:11:09  -190.239058  -2.87  -1.71
iter:  10 14:12:08  -189.894715  -3.79  -2.08
iter:  11 14:13:08  -189.887066c -4.04  -2.13
iter:  12 14:14:07  -189.676622c -3.72  -2.16
iter:  13 14:15:07  -189.709120c -4.04  -2.26
iter:  14 14:16:06  -190.072891  -4.14  -2.35
iter:  15 14:17:06  -189.625478  -4.17  -2.22
iter:  16 14:18:07  -189.523731  -4.43  -2.45
iter:  17 14:19:06  -189.476638c -4.63  -2.58
iter:  18 14:20:06  -189.434315c -4.67  -2.67
iter:  19 14:21:07  -189.450651c -5.15  -2.78
iter:  20 14:22:07  -189.460343c -5.01  -2.77
iter:  21 14:23:07  -189.417238c -5.21  -2.69
iter:  22 14:24:07  -189.410969c -5.54  -2.89
iter:  23 14:25:07  -189.408753c -5.69  -2.95
iter:  24 14:26:08  -189.400243c -5.55  -2.99
iter:  25 14:27:09  -189.419735c -5.90  -3.08
iter:  26 14:28:09  -189.416391c -5.48  -3.02
iter:  27 14:29:10  -189.403330c -5.95  -2.94
iter:  28 14:30:10  -189.400868c -6.22  -3.21
iter:  29 14:31:11  -189.400014c -6.59  -3.28
iter:  30 14:32:12  -189.397895c -6.17  -3.33
iter:  31 14:33:12  -189.414279c -6.11  -3.36
iter:  32 14:34:13  -189.399455c -6.13  -3.27
iter:  33 14:35:13  -189.398986c -7.01  -3.53
iter:  34 14:36:14  -189.399322c -6.89  -3.64
iter:  35 14:37:15  -189.399490c -7.29  -3.73
iter:  36 14:38:15  -189.399162c -7.29  -3.76
iter:  37 14:39:16  -189.401555c -7.12  -3.85
iter:  38 14:40:16  -189.399075c -7.68c -3.78
iter:  39 14:41:16  -189.398511c -7.09  -3.96
iter:  40 14:42:17  -189.399608c -7.80c -4.19c

Converged after 40 iterations.

Dipole moment: (-6.245693, 6.794738, -0.278914) |e|*Ang

Energy contributions relative to reference atoms: (reference = -12371328.023897)

Kinetic:       -231.417280
Potential:     +103.844733
External:        +0.000000
XC:             -53.935648
Entropy (-ST):   -1.885974
Local:           -6.948426
--------------------------
Free energy:   -190.342595
Extrapolated:  -189.399608

Showing only first 2 kpts
 Kpt  Band  Eigenvalues  Occupancy
  0   364      0.75702    0.94156
  0   365      0.78371    0.81040
  0   366      0.81240    0.67664
  0   367      0.84797    0.52752

  1   364      0.61949    1.55749
  1   365      0.66244    1.39220
  1   366      0.69286    1.25646
  1   367      0.71302    1.16012


Fermi level: 0.74532

No gap

Forces in eV/Ang:
  0 Pd    0.71567    0.07432    0.08469
  1 Pt   -0.60929   -0.14208    0.53729
  2 Ag   -0.09872   -0.07989   -0.55937
  3 Pd   -0.04854   -0.34657    0.20664
  4 Ag   -0.01190    0.02774   -0.57317
  5 Ag    0.14955    0.16667   -0.50036
  6 Ag    0.04112   -0.00257   -0.47609
  7 Pd    0.23414    0.34659    0.05685
  8 Pd   -0.12943    0.12861    0.18956
  9 Pd   -0.02682    0.09600   -0.00242
 10 Pd    0.01027   -0.02478   -0.11956
 11 Pt   -0.02873   -0.14354    0.15543
 12 Ir    0.70472    0.16550    0.01055
 13 Pt   -0.67786   -0.19886    0.27525
 14 Ag    0.11177   -0.03266    0.10205
 15 Pt   -0.29065    0.01436    0.18695
 16 Pd   -0.08027    0.25629    0.17955
 17 Pd    0.16102    0.00163    0.16462
 18 Ag   -0.02623    0.00090   -0.02291
 19 Ag    0.00122   -0.01636   -0.01023
 20 Pt   -0.02477   -0.04178    0.01321
 21 Ru   -0.00534   -0.01225   -0.04844
 22 Pd   -0.00644    0.01455    0.01971
 23 Pt    0.00541    0.02934   -0.02200
 24 Pt    0.03373   -0.01178    0.00409
 25 Pt   -0.00216    0.01132   -0.06012
 26 Ag   -0.02693   -0.02429   -0.00536
 27 Ag   -0.04011   -0.01045   -0.06781
 28 Ag    0.00639   -0.00550    0.04182
 29 Pt   -0.04032    0.03041   -0.01592
 30 Ag   -0.03349   -0.03399   -0.00252
 31 Pd   -0.02109   -0.02084    0.07620
 32 Ru   -0.07572   -0.04954    0.12492
 33 Pd   -0.03463   -0.07509   -0.09835
 34 Pt   -0.07448    0.00232    0.17913
 35 Pd    0.00767    0.00486    0.05492
 36 Pt   -0.33589    0.13019    0.81245
 37 Pt    0.03103    0.02555   -0.01405
 38 Ag    0.13752    0.11815    0.36005
 39 Pt    0.13335    0.01307    0.01571
 40 Ru   -0.12161    0.08484   -0.07302
 41 Pt   -0.02464   -0.32727    0.55988
 42 Ir    0.12666   -0.15758   -0.00507
 43 Pt   -0.06608   -0.01439   -0.03091
 44 Ag   -0.00546    0.01335    0.00327
 45 H     0.36705    0.01708   -1.58565

System changes: positions 

Initializing position-dependent things.

Density initialized from wave functions
                                             
                                             
                                             
                                             
                                             
                                             
                               Ag            
                  Ir    Pt                   
             Pt   PRu    HPt    Pd           
                         Pt                  
       Pt    APt    PAg    Ru                
                                             
        Ag     Ag    PPt    Pt     Ag        
                       Pd     Pt             
                Ru                           
           Ag    PAg    PPt    Pd            
                                             
            Ir     Pt    PAg    Pd           
       Pd     Pd     Pt                      
             Pd     Ag     Ag                
        Pd     Pt     Ag                     
                                             
                                             
                                             
                                             
                                             

Positions:
   0 Pd     0.000000    1.637674   10.000000    ( 0.0000,  0.0000,  0.0000)
   1 Pt     2.836535    1.637674   10.000000    ( 0.0000,  0.0000,  0.0000)
   2 Ag     5.673071    1.637674   10.000000    ( 0.0000,  0.0000,  0.0000)
   3 Pd     1.418268    4.094186   10.000000    ( 0.0000,  0.0000,  0.0000)
   4 Ag     4.254803    4.094186   10.000000    ( 0.0000,  0.0000,  0.0000)
   5 Ag     7.091338    4.094186   10.000000    ( 0.0000,  0.0000,  0.0000)
   6 Ag     2.836535    6.550698   10.000000    ( 0.0000,  0.0000,  0.0000)
   7 Pd     5.673071    6.550698   10.000000    ( 0.0000,  0.0000,  0.0000)
   8 Pd     8.509606    6.550698   10.000000    ( 0.0000,  0.0000,  0.0000)
   9 Pd     0.000000    0.000000   12.317643    ( 0.0000,  0.0000,  0.0000)
  10 Pd     2.836535    0.000000   12.317643    ( 0.0000,  0.0000,  0.0000)
  11 Pt     5.673071    0.000000   12.317643    ( 0.0000,  0.0000,  0.0000)
  12 Ir     1.418268    2.456512   12.317643    ( 0.0000,  0.0000,  0.0000)
  13 Pt     4.254803    2.456512   12.317643    ( 0.0000,  0.0000,  0.0000)
  14 Ag     7.091338    2.456512   12.317643    ( 0.0000,  0.0000,  0.0000)
  15 Pt     2.836535    4.913023   12.317643    ( 0.0000,  0.0000,  0.0000)
  16 Pd     5.673071    4.913023   12.317643    ( 0.0000,  0.0000,  0.0000)
  17 Pd     8.509606    4.913023   12.317643    ( 0.0000,  0.0000,  0.0000)
  18 Ag     1.386156    0.763569   14.611800    ( 0.0000,  0.0000,  0.0000)
  19 Ag     4.217158    0.786663   14.656479    ( 0.0000,  0.0000,  0.0000)
  20 Pt     7.062553    0.797053   14.662018    ( 0.0000,  0.0000,  0.0000)
  21 Ru     2.750887    3.304711   14.387869    ( 0.0000,  0.0000,  0.0000)
  22 Pd     5.602459    3.218892   14.640233    ( 0.0000,  0.0000,  0.0000)
  23 Pt     8.522481    3.253345   14.664213    ( 0.0000,  0.0000,  0.0000)
  24 Pt     4.170500    5.652832   14.615872    ( 0.0000,  0.0000,  0.0000)
  25 Pt     7.045844    5.606842   14.667318    ( 0.0000,  0.0000,  0.0000)
  26 Ag     9.874219    5.744735   14.696635    ( 0.0000,  0.0000,  0.0000)
  27 Ag     0.007698    1.606887   16.989586    ( 0.0000,  0.0000,  0.0000)
  28 Ag     2.792670    1.619291   16.882002    ( 0.0000,  0.0000,  0.0000)
  29 Pt     5.666524    1.638806   17.010669    ( 0.0000,  0.0000,  0.0000)
  30 Ag     1.336179    4.089950   17.016457    ( 0.0000,  0.0000,  0.0000)
  31 Pd     4.156588    4.033760   16.813344    ( 0.0000,  0.0000,  0.0000)
  32 Ru     6.949915    4.059744   16.871283    ( 0.0000,  0.0000,  0.0000)
  33 Pd     2.788996    6.565899   17.025793    ( 0.0000,  0.0000,  0.0000)
  34 Pt     5.652604    6.422944   16.909137    ( 0.0000,  0.0000,  0.0000)
  35 Pd     8.428051    6.500718   17.070275    ( 0.0000,  0.0000,  0.0000)
  36 Pt     0.071984   -0.039493   19.285899    ( 0.0000,  0.0000,  0.0000)
  37 Pt     2.811895    0.089449   19.254464    ( 0.0000,  0.0000,  0.0000)
  38 Ag     5.712688    0.012449   19.494555    ( 0.0000,  0.0000,  0.0000)
  39 Pt     1.556978    2.469946   19.393306    ( 0.0000,  0.0000,  0.0000)
  40 Ru     4.238451    2.602859   19.101610    ( 0.0000,  0.0000,  0.0000)
  41 Pt     7.117327    2.487688   19.227344    ( 0.0000,  0.0000,  0.0000)
  42 Ir     3.046027    4.825756   19.146886    ( 0.0000,  0.0000,  0.0000)
  43 Pt     5.721120    4.861061   19.161020    ( 0.0000,  0.0000,  0.0000)
  44 Ag     8.573105    4.898605   19.530496    ( 0.0000,  0.0000,  0.0000)
  45 H      7.143507    0.820834   20.807797    ( 0.0000,  0.0000,  0.0000)

Unit cell:
           periodic     x           y           z      points  spacing
  1. axis:    yes    8.509606    0.000000    0.000000    40     0.1842
  2. axis:    yes    4.254803    7.369535    0.000000    40     0.1842
  3. axis:    no     0.000000    0.000000   29.270571   140     0.2091

  Lengths:   8.509606   8.509606  29.270571
  Angles:   90.000000  90.000000  60.000000

Effective grid spacing dv^(1/3) = 0.2016

     iter     time        total  log10-change:
                         energy  eigst   dens
iter:   1 14:43:38  -189.555134  -4.60
iter:   2 14:44:37  -191.757292  -3.98  -2.66
iter:   3 14:45:37  -189.556401  -4.36  -2.08
iter:   4 14:46:37  -189.471068  -5.33  -2.83
iter:   5 14:47:37  -189.458509c -5.97  -3.43
iter:   6 14:48:37  -189.459534c -6.42  -3.37
iter:   7 14:49:37  -189.459802c -6.59  -3.69
iter:   8 14:50:37  -189.458991c -6.95  -3.83
iter:   9 14:51:37  -189.458415c -7.39  -4.03c
iter:  10 14:52:37  -189.460038c -7.66c -3.89
iter:  11 14:53:38  -189.458294c -7.36  -4.02c
iter:  12 14:54:38  -189.459610c -8.01c -4.10c

Converged after 12 iterations.

Dipole moment: (-6.275717, 6.603767, -0.274930) |e|*Ang

Energy contributions relative to reference atoms: (reference = -12371328.023897)

Kinetic:       -232.120905
Potential:     +104.481264
External:        +0.000000
XC:             -53.969029
Entropy (-ST):   -1.884572
Local:           -6.908655
--------------------------
Free energy:   -190.401896
Extrapolated:  -189.459610

Showing only first 2 kpts
 Kpt  Band  Eigenvalues  Occupancy
  0   364      0.75920    0.94237
  0   365      0.78585    0.81132
  0   366      0.81403    0.67979
  0   367      0.84988    0.52921

  1   364      0.62124    1.55949
  1   365      0.66373    1.39662
  1   366      0.69505    1.25714
  1   367      0.71560    1.15891


Fermi level: 0.74766

No gap

Forces in eV/Ang:
  0 Pd    0.71458    0.06632    0.09631
  1 Pt   -0.61220   -0.15623    0.55045
  2 Ag   -0.09494   -0.07972   -0.56294
  3 Pd   -0.04779   -0.33712    0.20804
  4 Ag   -0.00768    0.03385   -0.57458
  5 Ag    0.14426    0.16771   -0.49090
  6 Ag    0.04219   -0.00347   -0.47980
  7 Pd    0.23441    0.34859    0.07148
  8 Pd   -0.13178    0.12759    0.19390
  9 Pd   -0.01026    0.09609   -0.01362
 10 Pd   -0.00114   -0.03681   -0.12428
 11 Pt   -0.03554   -0.14885    0.14649
 12 Ir    0.68794    0.14646   -0.02314
 13 Pt   -0.66064   -0.20148    0.26103
 14 Ag    0.11067   -0.02282    0.09832
 15 Pt   -0.28780    0.03130    0.16262
 16 Pd   -0.06694    0.26019    0.17008
 17 Pd    0.14535    0.00682    0.15464
 18 Ag   -0.01866   -0.00748   -0.01178
 19 Ag   -0.00846   -0.02076   -0.00042
 20 Pt   -0.01724   -0.03146    0.01323
 21 Ru    0.00697   -0.01761   -0.01095
 22 Pd   -0.00581    0.01116    0.00984
 23 Pt   -0.00990    0.02030   -0.01854
 24 Pt    0.03904   -0.00880    0.00773
 25 Pt   -0.00477    0.01887   -0.05778
 26 Ag   -0.03281   -0.01623    0.00450
 27 Ag   -0.03365   -0.01903   -0.02913
 28 Ag   -0.01121   -0.00916    0.01314
 29 Pt   -0.03092    0.01989   -0.00314
 30 Ag   -0.03655   -0.02688    0.00028
 31 Pd   -0.02789   -0.01035    0.03680
 32 Ru   -0.05690   -0.04192    0.12467
 33 Pd   -0.02832   -0.06931   -0.06341
 34 Pt   -0.08243    0.01915    0.16375
 35 Pd    0.02362   -0.00443    0.05464
 36 Pt   -0.30229    0.12908    0.70747
 37 Pt    0.02835    0.00044   -0.02267
 38 Ag    0.07962    0.07564    0.31155
 39 Pt    0.09312    0.01974   -0.01369
 40 Ru   -0.08739    0.03840   -0.07187
 41 Pt   -0.01370   -0.28026    0.48055
 42 Ir    0.07620   -0.10065   -0.02544
 43 Pt   -0.02453   -0.01385   -0.03498
 44 Ag   -0.00671    0.01502   -0.00734
 45 H     0.40520    0.02320   -1.57674

System changes: positions 

Initializing position-dependent things.

Density initialized from wave functions
                                            
                                            
                                            
                                            
                                            
                                            
                 Ir     Pt     Ag           
            Pt           H                  
                  PRu    PPt   Pd           
       Pt    APt     Ag                     
                    Pd    Ru                
        Ag     Ag   PtPt    Pt     Ag       
                                            
                Ru     Pd     Pt            
           Ag     Ag     Pt                 
                 Pt     Pd     Pd           
            Ir     Pt     Ag                
                  Ag     Pd     Pd          
       Pd    PPd    APt    Ag               
        Pd     Pt     Ag                    
                                            
                                            
                                            
                                            
                                            

Positions:
   0 Pd     0.000000    1.637674   10.000000    ( 0.0000,  0.0000,  0.0000)
   1 Pt     2.836535    1.637674   10.000000    ( 0.0000,  0.0000,  0.0000)
   2 Ag     5.673071    1.637674   10.000000    ( 0.0000,  0.0000,  0.0000)
   3 Pd     1.418268    4.094186   10.000000    ( 0.0000,  0.0000,  0.0000)
   4 Ag     4.254803    4.094186   10.000000    ( 0.0000,  0.0000,  0.0000)
   5 Ag     7.091338    4.094186   10.000000    ( 0.0000,  0.0000,  0.0000)
   6 Ag     2.836535    6.550698   10.000000    ( 0.0000,  0.0000,  0.0000)
   7 Pd     5.673071    6.550698   10.000000    ( 0.0000,  0.0000,  0.0000)
   8 Pd     8.509606    6.550698   10.000000    ( 0.0000,  0.0000,  0.0000)
   9 Pd     0.000000    0.000000   12.317643    ( 0.0000,  0.0000,  0.0000)
  10 Pd     2.836535    0.000000   12.317643    ( 0.0000,  0.0000,  0.0000)
  11 Pt     5.673071    0.000000   12.317643    ( 0.0000,  0.0000,  0.0000)
  12 Ir     1.418268    2.456512   12.317643    ( 0.0000,  0.0000,  0.0000)
  13 Pt     4.254803    2.456512   12.317643    ( 0.0000,  0.0000,  0.0000)
  14 Ag     7.091338    2.456512   12.317643    ( 0.0000,  0.0000,  0.0000)
  15 Pt     2.836535    4.913023   12.317643    ( 0.0000,  0.0000,  0.0000)
  16 Pd     5.673071    4.913023   12.317643    ( 0.0000,  0.0000,  0.0000)
  17 Pd     8.509606    4.913023   12.317643    ( 0.0000,  0.0000,  0.0000)
  18 Ag     1.383727    0.762802   14.610150    ( 0.0000,  0.0000,  0.0000)
  19 Ag     4.216294    0.784192   14.656249    ( 0.0000,  0.0000,  0.0000)
  20 Pt     7.060298    0.793001   14.663643    ( 0.0000,  0.0000,  0.0000)
  21 Ru     2.751519    3.302645   14.385845    ( 0.0000,  0.0000,  0.0000)
  22 Pd     5.601733    3.220325   14.641621    ( 0.0000,  0.0000,  0.0000)
  23 Pt     8.521543    3.256002   14.661873    ( 0.0000,  0.0000,  0.0000)
  24 Pt     4.175200    5.651698   14.616756    ( 0.0000,  0.0000,  0.0000)
  25 Pt     7.045306    5.609024   14.660178    ( 0.0000,  0.0000,  0.0000)
  26 Ag     9.870295    5.742595   14.697009    ( 0.0000,  0.0000,  0.0000)
  27 Ag     0.003447    1.604704   16.985306    ( 0.0000,  0.0000,  0.0000)
  28 Ag     2.791612    1.618232   16.884136    ( 0.0000,  0.0000,  0.0000)
  29 Pt     5.662556    1.641439   17.010051    ( 0.0000,  0.0000,  0.0000)
  30 Ag     1.331745    4.086519   17.016440    ( 0.0000,  0.0000,  0.0000)
  31 Pd     4.153286    4.032299   16.818579    ( 0.0000,  0.0000,  0.0000)
  32 Ru     6.942584    4.054456   16.886604    ( 0.0000,  0.0000,  0.0000)
  33 Pd     2.785403    6.557279   17.017369    ( 0.0000,  0.0000,  0.0000)
  34 Pt     5.642621    6.424992   16.929533    ( 0.0000,  0.0000,  0.0000)
  35 Pd     8.430663    6.500342   17.076992    ( 0.0000,  0.0000,  0.0000)
  36 Pt     0.034238   -0.023616   19.374714    ( 0.0000,  0.0000,  0.0000)
  37 Pt     2.815426    0.089958   19.251835    ( 0.0000,  0.0000,  0.0000)
  38 Ag     5.723519    0.022512   19.533708    ( 0.0000,  0.0000,  0.0000)
  39 Pt     1.569147    2.472250   19.392157    ( 0.0000,  0.0000,  0.0000)
  40 Ru     4.227095    2.608418   19.092760    ( 0.0000,  0.0000,  0.0000)
  41 Pt     7.115446    2.452406   19.287817    ( 0.0000,  0.0000,  0.0000)
  42 Ir     3.056302    4.812359   19.144130    ( 0.0000,  0.0000,  0.0000)
  43 Pt     5.717353    4.859350   19.156797    ( 0.0000,  0.0000,  0.0000)
  44 Ag     8.572303    4.900420   19.529787    ( 0.0000,  0.0000,  0.0000)
  45 H      7.192594    0.823574   20.613934    ( 0.0000,  0.0000,  0.0000)

Unit cell:
           periodic     x           y           z      points  spacing
  1. axis:    yes    8.509606    0.000000    0.000000    40     0.1842
  2. axis:    yes    4.254803    7.369535    0.000000    40     0.1842
  3. axis:    no     0.000000    0.000000   29.270571   140     0.2091

  Lengths:   8.509606   8.509606  29.270571
  Angles:   90.000000  90.000000  60.000000

Effective grid spacing dv^(1/3) = 0.2016

     iter     time        total  log10-change:
                         energy  eigst   dens
iter:   1 14:55:58  -194.430525  -2.96
iter:   2 14:56:58  -229.490388  -2.57  -1.91
iter:   3 14:57:58  -195.264486  -2.79  -1.52
iter:   4 14:58:58  -190.488404  -3.61  -1.94
iter:   5 14:59:58  -190.067691  -4.35  -2.39
iter:   6 15:00:58  -190.083335  -4.89  -2.68
iter:   7 15:01:58  -190.014715c -5.02  -2.65
iter:   8 15:02:58  -189.891838c -4.52  -2.69
iter:   9 15:03:58  -189.883425c -5.45  -2.85
iter:  10 15:04:58  -189.865257c -5.77  -3.03
iter:  11 15:05:57  -189.862973c -5.77  -3.19
iter:  12 15:06:56  -189.859069c -5.90  -3.05
iter:  13 15:07:55  -189.859692c -5.90  -3.40
iter:  14 15:08:55  -189.858418c -6.51  -3.55
iter:  15 15:09:55  -189.859331c -6.44  -3.56
iter:  16 15:10:56  -189.860473c -6.65  -3.66
iter:  17 15:11:56  -189.857595c -6.86  -3.68
iter:  18 15:12:56  -189.859708c -6.84  -3.72
iter:  19 15:13:56  -189.857813c -7.31  -3.91
iter:  20 15:14:57  -189.858578c -7.28  -4.06c
iter:  21 15:15:57  -189.858911c -7.77c -4.18c

Converged after 21 iterations.

Dipole moment: (-5.926626, 5.283290, -0.251370) |e|*Ang

Energy contributions relative to reference atoms: (reference = -12371328.023897)

Kinetic:       -232.877588
Potential:     +105.121689
External:        +0.000000
XC:             -54.258180
Entropy (-ST):   -1.879434
Local:           -6.905115
--------------------------
Free energy:   -190.798628
Extrapolated:  -189.858911

Showing only first 2 kpts
 Kpt  Band  Eigenvalues  Occupancy
  0   364      0.76890    0.95969
  0   365      0.79587    0.82657
  0   366      0.82228    0.70209
  0   367      0.85160    0.57494

  1   364      0.63105    1.57095
  1   365      0.66832    1.43217
  1   366      0.70630    1.26611
  1   367      0.73022    1.15189


Fermi level: 0.76083

No gap

Forces in eV/Ang:
  0 Pd    0.71901    0.06533    0.10636
  1 Pt   -0.61487   -0.16064    0.56698
  2 Ag   -0.09786   -0.08152   -0.55283
  3 Pd   -0.05288   -0.33616    0.22271
  4 Ag   -0.00794    0.03290   -0.56341
  5 Ag    0.14718    0.16915   -0.48381
  6 Ag    0.04141   -0.00323   -0.46900
  7 Pd    0.23501    0.35240    0.08073
  8 Pd   -0.13171    0.12861    0.20189
  9 Pd   -0.01763    0.09243   -0.01569
 10 Pd   -0.00102   -0.04013   -0.11961
 11 Pt   -0.03234   -0.15110    0.14927
 12 Ir    0.68229    0.14702   -0.02482
 13 Pt   -0.65079   -0.20034    0.26300
 14 Ag    0.10633   -0.03035    0.10902
 15 Pt   -0.28313    0.03759    0.17411
 16 Pd   -0.07493    0.25398    0.16385
 17 Pd    0.14514    0.00789    0.14365
 18 Ag   -0.00936   -0.01345    0.03071
 19 Ag   -0.01182   -0.00418    0.01616
 20 Pt   -0.00778   -0.00351   -0.01452
 21 Ru    0.00098   -0.00575    0.01154
 22 Pd    0.00350   -0.00572    0.03508
 23 Pt   -0.02271   -0.01097    0.00681
 24 Pt    0.00922   -0.00597    0.02196
 25 Pt   -0.04310   -0.01872    0.11329
 26 Ag   -0.00335   -0.02212   -0.00578
 27 Ag   -0.08971   -0.06348    0.20718
 28 Ag   -0.04780   -0.03915   -0.04540
 29 Pt    0.04404    0.01923    0.08606
 30 Ag   -0.04197   -0.03656   -0.00506
 31 Pd   -0.01570    0.01159   -0.09009
 32 Ru   -0.04031    0.06694   -0.02997
 33 Pd    0.04020    0.00120    0.09697
 34 Pt   -0.01193    0.01206    0.05385
 35 Pd   -0.03178    0.00029    0.01288
 36 Pt   -0.07257    0.06500    0.36878
 37 Pt   -0.09176   -0.00809    0.00570
 38 Ag   -0.33208   -0.16663    0.01013
 39 Pt   -0.03894   -0.01931    0.02053
 40 Ru    0.08881   -0.13634    0.02721
 41 Pt   -0.03302   -0.00483    0.21672
 42 Ir   -0.07785    0.15082    0.03659
 43 Pt    0.06852   -0.07709    0.04788
 44 Ag   -0.01869   -0.04564   -0.01514
 45 H     0.68040    0.07592   -1.13129

System changes: positions 

Initializing position-dependent things.

Density initialized from wave functions
                                            
                                            
                                            
                                            
                                            
                                            
                 Ir     Pt     Ag           
            Pt           HPt                
                  PRuAg  Pt    Pd           
       Pt    APt          Ru                
                    Pd                      
        Ag     Ag    PPt    Pt    Ag        
                                            
                Ru     Pd     Pt            
           Ag     Ag     Pt                 
                 Pt     Pd     Pd           
            Ir     Pt     Ag                
       Pd     Pd  Ag Pt  Pd     Pd          
             Pd     Ag     Ag               
        Pd     Pt     Ag                    
                                            
                                            
                                            
                                            
                                            

Positions:
   0 Pd     0.000000    1.637674   10.000000    ( 0.0000,  0.0000,  0.0000)
   1 Pt     2.836535    1.637674   10.000000    ( 0.0000,  0.0000,  0.0000)
   2 Ag     5.673071    1.637674   10.000000    ( 0.0000,  0.0000,  0.0000)
   3 Pd     1.418268    4.094186   10.000000    ( 0.0000,  0.0000,  0.0000)
   4 Ag     4.254803    4.094186   10.000000    ( 0.0000,  0.0000,  0.0000)
   5 Ag     7.091338    4.094186   10.000000    ( 0.0000,  0.0000,  0.0000)
   6 Ag     2.836535    6.550698   10.000000    ( 0.0000,  0.0000,  0.0000)
   7 Pd     5.673071    6.550698   10.000000    ( 0.0000,  0.0000,  0.0000)
   8 Pd     8.509606    6.550698   10.000000    ( 0.0000,  0.0000,  0.0000)
   9 Pd     0.000000    0.000000   12.317643    ( 0.0000,  0.0000,  0.0000)
  10 Pd     2.836535    0.000000   12.317643    ( 0.0000,  0.0000,  0.0000)
  11 Pt     5.673071    0.000000   12.317643    ( 0.0000,  0.0000,  0.0000)
  12 Ir     1.418268    2.456512   12.317643    ( 0.0000,  0.0000,  0.0000)
  13 Pt     4.254803    2.456512   12.317643    ( 0.0000,  0.0000,  0.0000)
  14 Ag     7.091338    2.456512   12.317643    ( 0.0000,  0.0000,  0.0000)
  15 Pt     2.836535    4.913023   12.317643    ( 0.0000,  0.0000,  0.0000)
  16 Pd     5.673071    4.913023   12.317643    ( 0.0000,  0.0000,  0.0000)
  17 Pd     8.509606    4.913023   12.317643    ( 0.0000,  0.0000,  0.0000)
  18 Ag     1.381335    0.761956   14.609222    ( 0.0000,  0.0000,  0.0000)
  19 Ag     4.215412    0.782011   14.656269    ( 0.0000,  0.0000,  0.0000)
  20 Pt     7.058090    0.789289   14.664754    ( 0.0000,  0.0000,  0.0000)
  21 Ru     2.751945    3.300795   14.383885    ( 0.0000,  0.0000,  0.0000)
  22 Pd     5.601168    3.221490   14.643667    ( 0.0000,  0.0000,  0.0000)
  23 Pt     8.520437    3.258190   14.659941    ( 0.0000,  0.0000,  0.0000)
  24 Pt     4.179410    5.650554   14.617935    ( 0.0000,  0.0000,  0.0000)
  25 Pt     7.043977    5.610442   14.656290    ( 0.0000,  0.0000,  0.0000)
  26 Ag     9.866886    5.740184   14.697099    ( 0.0000,  0.0000,  0.0000)
  27 Ag    -0.002176    1.601597   16.985419    ( 0.0000,  0.0000,  0.0000)
  28 Ag     2.789911    1.616546   16.885387    ( 0.0000,  0.0000,  0.0000)
  29 Pt     5.659910    1.644248   17.011144    ( 0.0000,  0.0000,  0.0000)
  30 Ag     1.327061    4.082699   17.016288    ( 0.0000,  0.0000,  0.0000)
  31 Pd     4.150172    4.031145   16.821725    ( 0.0000,  0.0000,  0.0000)
  32 Ru     6.935162    4.051158   16.899295    ( 0.0000,  0.0000,  0.0000)
  33 Pd     2.783040    6.549750   17.011648    ( 0.0000,  0.0000,  0.0000)
  34 Pt     5.633797    6.426823   16.948542    ( 0.0000,  0.0000,  0.0000)
  35 Pd     8.432088    6.500131   17.083097    ( 0.0000,  0.0000,  0.0000)
  36 Pt    -0.000442   -0.008468   19.460716    ( 0.0000,  0.0000,  0.0000)
  37 Pt     2.816627    0.090528   19.249771    ( 0.0000,  0.0000,  0.0000)
  38 Ag     5.726739    0.028306   19.568495    ( 0.0000,  0.0000,  0.0000)
  39 Pt     1.579384    2.473774   19.391928    ( 0.0000,  0.0000,  0.0000)
  40 Ru     4.218666    2.610972   19.085621    ( 0.0000,  0.0000,  0.0000)
  41 Pt     7.113001    2.421109   19.345756    ( 0.0000,  0.0000,  0.0000)
  42 Ir     3.064210    4.803174   19.142732    ( 0.0000,  0.0000,  0.0000)
  43 Pt     5.715011    4.856264   19.154166    ( 0.0000,  0.0000,  0.0000)
  44 Ag     8.571235    4.901032   19.528982    ( 0.0000,  0.0000,  0.0000)
  45 H      7.248853    0.827451   20.422049    ( 0.0000,  0.0000,  0.0000)

Unit cell:
           periodic     x           y           z      points  spacing
  1. axis:    yes    8.509606    0.000000    0.000000    40     0.1842
  2. axis:    yes    4.254803    7.369535    0.000000    40     0.1842
  3. axis:    no     0.000000    0.000000   29.270571   140     0.2091

  Lengths:   8.509606   8.509606  29.270571
  Angles:   90.000000  90.000000  60.000000

Effective grid spacing dv^(1/3) = 0.2016

     iter     time        total  log10-change:
                         energy  eigst   dens
iter:   1 15:17:17  -194.909367  -3.00
iter:   2 15:18:17  -233.969235  -2.52  -1.90
iter:   3 15:19:17  -195.602038  -2.75  -1.50
iter:   4 15:20:17  -190.658421  -3.55  -1.93
iter:   5 15:21:17  -190.197719  -4.30  -2.38
iter:   6 15:22:17  -190.184193  -4.93  -2.66
iter:   7 15:23:16  -190.124396c -5.10  -2.72
iter:   8 15:24:16  -190.060126c -4.61  -2.78
iter:   9 15:25:15  -190.028589c -5.37  -2.78
iter:  10 15:26:15  -190.015100c -5.61  -3.10
iter:  11 15:27:14  -190.011088c -5.79  -3.23
iter:  12 15:28:14  -190.008828c -5.82  -3.10
iter:  13 15:29:14  -190.009079c -5.95  -3.46
iter:  14 15:30:14  -190.009503c -6.50  -3.58
iter:  15 15:31:14  -190.008959c -6.61  -3.59
iter:  16 15:32:14  -190.012694c -6.71  -3.54
iter:  17 15:33:13  -190.007037c -6.52  -3.57
iter:  18 15:34:12  -190.010549c -6.90  -3.75
iter:  19 15:35:12  -190.008201c -7.20  -3.79
iter:  20 15:36:11  -190.008378c -7.28  -4.09c
iter:  21 15:37:10  -190.008743c -7.75c -4.11c

Converged after 21 iterations.

Dipole moment: (-5.345902, 4.200007, -0.242903) |e|*Ang

Energy contributions relative to reference atoms: (reference = -12371328.023897)

Kinetic:       -229.743362
Potential:     +102.591973
External:        +0.000000
XC:             -55.005465
Entropy (-ST):   -1.872781
Local:           -6.915498
--------------------------
Free energy:   -190.945134
Extrapolated:  -190.008743

Showing only first 2 kpts
 Kpt  Band  Eigenvalues  Occupancy
  0   364      0.76747    0.98935
  0   365      0.79467    0.85441
  0   366      0.82220    0.72312
  0   367      0.84471    0.62273

  1   364      0.63481    1.57345
  1   365      0.66484    1.46410
  1   366      0.70840    1.27725
  1   367      0.73504    1.15036


Fermi level: 0.76534

No gap

Forces in eV/Ang:
  0 Pd    0.72459    0.06406    0.10341
  1 Pt   -0.62064   -0.16775    0.56650
  2 Ag   -0.09973   -0.08323   -0.55286
  3 Pd   -0.05901   -0.33461    0.22235
  4 Ag   -0.00756    0.03399   -0.56213
  5 Ag    0.15074    0.17093   -0.48763
  6 Ag    0.04087   -0.00399   -0.46878
  7 Pd    0.23639    0.35755    0.07821
  8 Pd   -0.13291    0.12784    0.19766
  9 Pd   -0.02116    0.08893   -0.01774
 10 Pd   -0.00210   -0.04162   -0.11273
 11 Pt   -0.03153   -0.15424    0.15076
 12 Ir    0.67838    0.14632   -0.02927
 13 Pt   -0.64326   -0.19941    0.26588
 14 Ag    0.10202   -0.03546    0.11800
 15 Pt   -0.27884    0.04228    0.17829
 16 Pd   -0.08061    0.24928    0.15901
 17 Pd    0.14334    0.00831    0.13571
 18 Ag   -0.00389   -0.01687    0.06773
 19 Ag   -0.01353    0.00790    0.03122
 20 Pt    0.00344    0.01963   -0.02909
 21 Ru   -0.00044    0.00048    0.03125
 22 Pd    0.00682   -0.02823    0.04022
 23 Pt   -0.03385   -0.04798    0.02715
 24 Pt   -0.02280    0.00483    0.03088
 25 Pt   -0.06826   -0.04215    0.22829
 26 Ag    0.01923   -0.01854   -0.00883
 27 Ag   -0.12168   -0.08529    0.36227
 28 Ag   -0.07384   -0.06399   -0.09465
 29 Pt    0.08677   -0.00749    0.15826
 30 Ag   -0.04365   -0.03158   -0.00620
 31 Pd   -0.00778    0.03318   -0.18651
 32 Ru   -0.01327    0.15563   -0.16972
 33 Pd    0.06992    0.06074    0.22284
 34 Pt    0.05678    0.00033   -0.07949
 35 Pd   -0.05865    0.00244   -0.02090
 36 Pt    0.55807   -0.32454   -0.27978
 37 Pt   -0.14258   -0.03231    0.07321
 38 Ag   -0.82437   -0.44747   -0.24997
 39 Pt   -0.15110   -0.02559    0.08771
 40 Ru    0.23845   -0.27989    0.13886
 41 Pt   -0.09029    0.56010   -0.18171
 42 Ir   -0.22436    0.35039    0.13050
 43 Pt    0.15444   -0.12859    0.16447
 44 Ag   -0.02374   -0.08327    0.00536
 45 H     0.61224    0.19007   -0.16382

System changes: positions 

Initializing position-dependent things.

Density initialized from wave functions
                                            
                                            
                                            
                                            
                                            
                                            
                 Ir     Pt     Ag           
            Pt           HPt                
                  PRuAg  Pt    Pd           
       Pt    APt          Ru                
                    Pd                      
        Ag     Ag    PPt    Pt     Ag       
                                            
                Ru     Pd     Pt            
           Ag     Ag     Pt                 
                 Pt     Pd     Pd           
            Ir     Pt     Ag                
       Pd     Pd  Ag Pt  Pd     Pd          
             Pd     Ag     Ag               
        Pd     Pt     Ag                    
                                            
                                            
                                            
                                            
                                            

Positions:
   0 Pd     0.000000    1.637674   10.000000    ( 0.0000,  0.0000,  0.0000)
   1 Pt     2.836535    1.637674   10.000000    ( 0.0000,  0.0000,  0.0000)
   2 Ag     5.673071    1.637674   10.000000    ( 0.0000,  0.0000,  0.0000)
   3 Pd     1.418268    4.094186   10.000000    ( 0.0000,  0.0000,  0.0000)
   4 Ag     4.254803    4.094186   10.000000    ( 0.0000,  0.0000,  0.0000)
   5 Ag     7.091338    4.094186   10.000000    ( 0.0000,  0.0000,  0.0000)
   6 Ag     2.836535    6.550698   10.000000    ( 0.0000,  0.0000,  0.0000)
   7 Pd     5.673071    6.550698   10.000000    ( 0.0000,  0.0000,  0.0000)
   8 Pd     8.509606    6.550698   10.000000    ( 0.0000,  0.0000,  0.0000)
   9 Pd     0.000000    0.000000   12.317643    ( 0.0000,  0.0000,  0.0000)
  10 Pd     2.836535    0.000000   12.317643    ( 0.0000,  0.0000,  0.0000)
  11 Pt     5.673071    0.000000   12.317643    ( 0.0000,  0.0000,  0.0000)
  12 Ir     1.418268    2.456512   12.317643    ( 0.0000,  0.0000,  0.0000)
  13 Pt     4.254803    2.456512   12.317643    ( 0.0000,  0.0000,  0.0000)
  14 Ag     7.091338    2.456512   12.317643    ( 0.0000,  0.0000,  0.0000)
  15 Pt     2.836535    4.913023   12.317643    ( 0.0000,  0.0000,  0.0000)
  16 Pd     5.673071    4.913023   12.317643    ( 0.0000,  0.0000,  0.0000)
  17 Pd     8.509606    4.913023   12.317643    ( 0.0000,  0.0000,  0.0000)
  18 Ag     1.381340    0.761881   14.610023    ( 0.0000,  0.0000,  0.0000)
  19 Ag     4.215397    0.782290   14.656559    ( 0.0000,  0.0000,  0.0000)
  20 Pt     7.058178    0.789642   14.664311    ( 0.0000,  0.0000,  0.0000)
  21 Ru     2.751775    3.300970   14.383981    ( 0.0000,  0.0000,  0.0000)
  22 Pd     5.601283    3.221100   14.644182    ( 0.0000,  0.0000,  0.0000)
  23 Pt     8.520238    3.257550   14.660364    ( 0.0000,  0.0000,  0.0000)
  24 Pt     4.178815    5.650646   14.618224    ( 0.0000,  0.0000,  0.0000)
  25 Pt     7.043203    5.609730   14.659438    ( 0.0000,  0.0000,  0.0000)
  26 Ag     9.867399    5.739993   14.696868    ( 0.0000,  0.0000,  0.0000)
  27 Ag    -0.003492    1.600771   16.989657    ( 0.0000,  0.0000,  0.0000)
  28 Ag     2.789255    1.615861   16.884417    ( 0.0000,  0.0000,  0.0000)
  29 Pt     5.661082    1.644115   17.012975    ( 0.0000,  0.0000,  0.0000)
  30 Ag     1.326806    4.082431   17.016185    ( 0.0000,  0.0000,  0.0000)
  31 Pd     4.150330    4.031521   16.819579    ( 0.0000,  0.0000,  0.0000)
  32 Ru     6.935208    4.053269   16.896377    ( 0.0000,  0.0000,  0.0000)
  33 Pd     2.784016    6.550905   17.014462    ( 0.0000,  0.0000,  0.0000)
  34 Pt     5.635128    6.426534   16.946597    ( 0.0000,  0.0000,  0.0000)
  35 Pd     8.431065    6.500279   17.082475    ( 0.0000,  0.0000,  0.0000)
  36 Pt     0.008236   -0.013400   19.453402    ( 0.0000,  0.0000,  0.0000)
  37 Pt     2.814735    0.090366   19.250915    ( 0.0000,  0.0000,  0.0000)
  38 Ag     5.716640    0.022711   19.563796    ( 0.0000,  0.0000,  0.0000)
  39 Pt     1.577293    2.473273   19.393386    ( 0.0000,  0.0000,  0.0000)
  40 Ru     4.221843    2.607740   19.087802    ( 0.0000,  0.0000,  0.0000)
  41 Pt     7.111873    2.429501   19.340989    ( 0.0000,  0.0000,  0.0000)
  42 Ir     3.061432    4.807585   19.144707    ( 0.0000,  0.0000,  0.0000)
  43 Pt     5.716667    4.854782   19.156466    ( 0.0000,  0.0000,  0.0000)
  44 Ag     8.571004    4.899902   19.529207    ( 0.0000,  0.0000,  0.0000)
  45 H      7.253129    0.829579   20.430820    ( 0.0000,  0.0000,  0.0000)

Unit cell:
           periodic     x           y           z      points  spacing
  1. axis:    yes    8.509606    0.000000    0.000000    40     0.1842
  2. axis:    yes    4.254803    7.369535    0.000000    40     0.1842
  3. axis:    no     0.000000    0.000000   29.270571   140     0.2091

  Lengths:   8.509606   8.509606  29.270571
  Angles:   90.000000  90.000000  60.000000

Effective grid spacing dv^(1/3) = 0.2016

     iter     time        total  log10-change:
                         energy  eigst   dens
iter:   1 15:38:29  -190.185981  -4.39
iter:   2 15:39:29  -194.289309  -3.84  -2.61
iter:   3 15:40:28  -190.137162  -4.15  -1.94
iter:   4 15:41:28  -190.048735  -5.29  -2.86
iter:   5 15:42:28  -190.051670c -6.13  -3.37
iter:   6 15:43:27  -190.042439c -6.11  -3.44
iter:   7 15:44:27  -190.044109c -6.33  -3.55
iter:   8 15:45:27  -190.048939c -6.54  -3.84
iter:   9 15:46:26  -190.042338c -6.83  -3.43
iter:  10 15:47:26  -190.043356c -7.26  -4.00
iter:  11 15:48:26  -190.042895c -7.72c -4.09c

Converged after 11 iterations.

Dipole moment: (-5.400363, 4.660913, -0.240118) |e|*Ang

Energy contributions relative to reference atoms: (reference = -12371328.023897)

Kinetic:       -231.333007
Potential:     +103.947147
External:        +0.000000
XC:             -54.801551
Entropy (-ST):   -1.874716
Local:           -6.918127
--------------------------
Free energy:   -190.980254
Extrapolated:  -190.042895

Showing only first 2 kpts
 Kpt  Band  Eigenvalues  Occupancy
  0   364      0.76803    0.98538
  0   365      0.79460    0.85356
  0   366      0.82243    0.72095
  0   367      0.84588    0.61674

  1   364      0.63464    1.57323
  1   365      0.66545    1.46074
  1   366      0.70811    1.27748
  1   367      0.73445    1.15209


Fermi level: 0.76510

No gap

Forces in eV/Ang:
  0 Pd    0.72289    0.06241    0.09678
  1 Pt   -0.61980   -0.16759    0.55910
  2 Ag   -0.09893   -0.08242   -0.55687
  3 Pd   -0.05829   -0.33459    0.21489
  4 Ag   -0.00661    0.03438   -0.56622
  5 Ag    0.14921    0.17059   -0.49044
  6 Ag    0.04164   -0.00349   -0.47384
  7 Pd    0.23589    0.35675    0.07496
  8 Pd   -0.13417    0.12705    0.19361
  9 Pd   -0.01858    0.09052   -0.01913
 10 Pd   -0.00265   -0.04174   -0.11368
 11 Pt   -0.03336   -0.15409    0.15209
 12 Ir    0.67667    0.14425   -0.03303
 13 Pt   -0.64393   -0.20116    0.26249
 14 Ag    0.10313   -0.03425    0.11628
 15 Pt   -0.27915    0.04293    0.17305
 16 Pd   -0.07771    0.25186    0.16214
 17 Pd    0.14162    0.00884    0.13801
 18 Ag   -0.00684   -0.01737    0.05712
 19 Ag   -0.01057    0.00074    0.02535
 20 Pt    0.00248    0.01324   -0.01800
 21 Ru    0.00208   -0.00170    0.02102
 22 Pd    0.00688   -0.02591    0.02560
 23 Pt   -0.03519   -0.04142    0.02144
 24 Pt   -0.01616    0.00959    0.02297
 25 Pt   -0.04833   -0.03279    0.16372
 26 Ag    0.00887   -0.01151   -0.00397
 27 Ag   -0.10485   -0.07023    0.30836
 28 Ag   -0.06145   -0.05003   -0.07165
 29 Pt    0.06583   -0.00303    0.14021
 30 Ag   -0.03865   -0.02214    0.00152
 31 Pd   -0.01563    0.02355   -0.11394
 32 Ru   -0.01680    0.11930   -0.12516
 33 Pd    0.04766    0.03741    0.18069
 34 Pt    0.02825   -0.00117   -0.03943
 35 Pd   -0.02859    0.00661   -0.00542
 36 Pt    0.33494   -0.21619   -0.17533
 37 Pt   -0.11513   -0.03207    0.07378
 38 Ag   -0.65458   -0.35748   -0.20731
 39 Pt   -0.08763   -0.01122    0.08267
 40 Ru    0.16961   -0.20396    0.11721
 41 Pt   -0.08850    0.36893   -0.11367
 42 Ir   -0.16458    0.26669    0.11690
 43 Pt    0.10114   -0.10506    0.14357
 44 Ag   -0.02215   -0.06530    0.00567
 45 H     0.62981    0.16051   -0.26917

System changes: positions 

Initializing position-dependent things.

Density initialized from wave functions
                                             
                                             
                                             
                                             
                                             
                                             
                  Ir    Pt      Ag           
                                             
             Pt   PRu    PHt    Pd           
       Pt            Ag                      
             APt    Pd     Ru                
        Ag     Ag     Pt           Ag        
                     Pt     Pt               
                Ru     Pd     Pt             
                                             
           Ag    PAg    PPt    Pd            
                                             
            Ir     Pt     Ag    Pd           
       Pd    PPd    APt    Ag                
                                             
        Pd     Pt     Ag                     
                                             
                                             
                                             
                                             
                                             

Positions:
   0 Pd     0.000000    1.637674   10.000000    ( 0.0000,  0.0000,  0.0000)
   1 Pt     2.836535    1.637674   10.000000    ( 0.0000,  0.0000,  0.0000)
   2 Ag     5.673071    1.637674   10.000000    ( 0.0000,  0.0000,  0.0000)
   3 Pd     1.418268    4.094186   10.000000    ( 0.0000,  0.0000,  0.0000)
   4 Ag     4.254803    4.094186   10.000000    ( 0.0000,  0.0000,  0.0000)
   5 Ag     7.091338    4.094186   10.000000    ( 0.0000,  0.0000,  0.0000)
   6 Ag     2.836535    6.550698   10.000000    ( 0.0000,  0.0000,  0.0000)
   7 Pd     5.673071    6.550698   10.000000    ( 0.0000,  0.0000,  0.0000)
   8 Pd     8.509606    6.550698   10.000000    ( 0.0000,  0.0000,  0.0000)
   9 Pd     0.000000    0.000000   12.317643    ( 0.0000,  0.0000,  0.0000)
  10 Pd     2.836535    0.000000   12.317643    ( 0.0000,  0.0000,  0.0000)
  11 Pt     5.673071    0.000000   12.317643    ( 0.0000,  0.0000,  0.0000)
  12 Ir     1.418268    2.456512   12.317643    ( 0.0000,  0.0000,  0.0000)
  13 Pt     4.254803    2.456512   12.317643    ( 0.0000,  0.0000,  0.0000)
  14 Ag     7.091338    2.456512   12.317643    ( 0.0000,  0.0000,  0.0000)
  15 Pt     2.836535    4.913023   12.317643    ( 0.0000,  0.0000,  0.0000)
  16 Pd     5.673071    4.913023   12.317643    ( 0.0000,  0.0000,  0.0000)
  17 Pd     8.509606    4.913023   12.317643    ( 0.0000,  0.0000,  0.0000)
  18 Ag     1.379952    0.760872   14.613983    ( 0.0000,  0.0000,  0.0000)
  19 Ag     4.214896    0.782392   14.658139    ( 0.0000,  0.0000,  0.0000)
  20 Pt     7.057519    0.789517   14.662804    ( 0.0000,  0.0000,  0.0000)
  21 Ru     2.751208    3.300855   14.383274    ( 0.0000,  0.0000,  0.0000)
  22 Pd     5.601667    3.219404   14.647592    ( 0.0000,  0.0000,  0.0000)
  23 Pt     8.518212    3.255047   14.661631    ( 0.0000,  0.0000,  0.0000)
  24 Pt     4.177833    5.650878   14.620269    ( 0.0000,  0.0000,  0.0000)
  25 Pt     7.038725    5.606706   14.673268    ( 0.0000,  0.0000,  0.0000)
  26 Ag     9.868085    5.737936   14.695843    ( 0.0000,  0.0000,  0.0000)
  27 Ag    -0.013718    1.594738   17.013139    ( 0.0000,  0.0000,  0.0000)
  28 Ag     2.784793    1.611402   16.880085    ( 0.0000,  0.0000,  0.0000)
  29 Pt     5.665753    1.644883   17.023997    ( 0.0000,  0.0000,  0.0000)
  30 Ag     1.322886    4.079257   17.015889    ( 0.0000,  0.0000,  0.0000)
  31 Pd     4.149123    4.032802   16.811520    ( 0.0000,  0.0000,  0.0000)
  32 Ru     6.931414    4.062623   16.887685    ( 0.0000,  0.0000,  0.0000)
  33 Pd     2.787519    6.552709   17.026682    ( 0.0000,  0.0000,  0.0000)
  34 Pt     5.636960    6.425807   16.946896    ( 0.0000,  0.0000,  0.0000)
  35 Pd     8.427288    6.501201   17.082813    ( 0.0000,  0.0000,  0.0000)
  36 Pt     0.033199   -0.031258   19.459003    ( 0.0000,  0.0000,  0.0000)
  37 Pt     2.805353    0.089431   19.256933    ( 0.0000,  0.0000,  0.0000)
  38 Ag     5.663907   -0.004551   19.555937    ( 0.0000,  0.0000,  0.0000)
  39 Pt     1.572988    2.471918   19.401882    ( 0.0000,  0.0000,  0.0000)
  40 Ru     4.233495    2.592775   19.096274    ( 0.0000,  0.0000,  0.0000)
  41 Pt     7.103606    2.455855   19.345846    ( 0.0000,  0.0000,  0.0000)
  42 Ir     3.051294    4.825774   19.155381    ( 0.0000,  0.0000,  0.0000)
  43 Pt     5.723222    4.845175   19.168234    ( 0.0000,  0.0000,  0.0000)
  44 Ag     8.569087    4.894273   19.530190    ( 0.0000,  0.0000,  0.0000)
  45 H      7.310412    0.843634   20.375758    ( 0.0000,  0.0000,  0.0000)

Unit cell:
           periodic     x           y           z      points  spacing
  1. axis:    yes    8.509606    0.000000    0.000000    40     0.1842
  2. axis:    yes    4.254803    7.369535    0.000000    40     0.1842
  3. axis:    no     0.000000    0.000000   29.270571   140     0.2091

  Lengths:   8.509606   8.509606  29.270571
  Angles:   90.000000  90.000000  60.000000

Effective grid spacing dv^(1/3) = 0.2016

     iter     time        total  log10-change:
                         energy  eigst   dens
iter:   1 15:49:45  -190.351522  -3.34
iter:   2 15:50:45  -190.224996  -4.19  -2.61
iter:   3 15:51:45  -190.197690c -4.90  -2.89
iter:   4 15:52:44  -190.336300c -5.03  -2.80
iter:   5 15:53:44  -190.182366c -5.55  -2.60
iter:   6 15:54:44  -190.168763c -5.86  -3.07
iter:   7 15:55:44  -190.158568c -5.57  -3.21
iter:   8 15:56:45  -190.159437c -6.09  -3.41
iter:   9 15:57:45  -190.157734c -6.38  -3.59
iter:  10 15:58:45  -190.159792c -6.34  -3.55
iter:  11 15:59:45  -190.159084c -6.73  -3.81
iter:  12 16:00:45  -190.160123c -6.79  -3.90
iter:  13 16:01:45  -190.159888c -7.16  -3.91
iter:  14 16:02:45  -190.158910c -7.31  -4.01c
iter:  15 16:03:44  -190.159486c -7.57c -4.08c

Converged after 15 iterations.

Dipole moment: (-5.278523, 6.590543, -0.239944) |e|*Ang

Energy contributions relative to reference atoms: (reference = -12371328.023897)

Kinetic:       -233.257467
Potential:     +105.448072
External:        +0.000000
XC:             -54.523569
Entropy (-ST):   -1.876685
Local:           -6.888180
--------------------------
Free energy:   -191.097828
Extrapolated:  -190.159486

Showing only first 2 kpts
 Kpt  Band  Eigenvalues  Occupancy
  0   364      0.76783    0.98467
  0   365      0.79177    0.86577
  0   366      0.82258    0.71871
  0   367      0.84843    0.60448

  1   364      0.63526    1.56999
  1   365      0.66533    1.45990
  1   366      0.70540    1.28839
  1   367      0.73295    1.15776


Fermi level: 0.76476

No gap

Forces in eV/Ang:
  0 Pd    0.70976    0.06360    0.09765
  1 Pt   -0.61026   -0.16005    0.55727
  2 Ag   -0.09583   -0.07980   -0.55941
  3 Pd   -0.05708   -0.33146    0.21799
  4 Ag   -0.00349    0.03390   -0.56936
  5 Ag    0.14551    0.16689   -0.49363
  6 Ag    0.04167   -0.00209   -0.47642
  7 Pd    0.23164    0.34805    0.07377
  8 Pd   -0.12868    0.12801    0.19279
  9 Pd   -0.01579    0.09109   -0.01140
 10 Pd   -0.00795   -0.04561   -0.09126
 11 Pt   -0.03198   -0.14966    0.14666
 12 Ir    0.67499    0.14212   -0.02042
 13 Pt   -0.63896   -0.19523    0.26435
 14 Ag    0.09995   -0.02962    0.11477
 15 Pt   -0.26926    0.03895    0.16573
 16 Pd   -0.07085    0.25007    0.18710
 17 Pd    0.12435    0.00621    0.15774
 18 Ag   -0.03725   -0.00641    0.03928
 19 Ag    0.00955   -0.00782    0.02331
 20 Pt    0.01852    0.01735    0.04190
 21 Ru    0.00818   -0.00250    0.01710
 22 Pd   -0.00227   -0.04967   -0.01474
 23 Pt   -0.04008   -0.06374    0.04650
 24 Pt   -0.02553    0.02015   -0.00065
 25 Pt   -0.00577   -0.00583    0.02899
 26 Ag   -0.00062    0.00663    0.03054
 27 Ag   -0.05200   -0.01621    0.21762
 28 Ag   -0.03046    0.01083    0.01680
 29 Pt    0.01259    0.00204    0.07727
 30 Ag   -0.01890   -0.00919    0.04950
 31 Pd   -0.05543   -0.01062    0.09478
 32 Ru    0.01739    0.05409   -0.03236
 33 Pd    0.00753    0.02113    0.13467
 34 Pt    0.00791   -0.03173    0.01514
 35 Pd   -0.02639   -0.03569   -0.00610
 36 Pt    0.16179   -0.17780   -0.29190
 37 Pt   -0.10608   -0.08109    0.03424
 38 Ag   -0.15784   -0.11332   -0.15042
 39 Pt   -0.00450    0.07012    0.03050
 40 Ru   -0.06080    0.09887    0.00224
 41 Pt   -0.05624    0.11070   -0.11087
 42 Ir   -0.00210   -0.08565   -0.02452
 43 Pt   -0.00100   -0.03890    0.02731
 44 Ag   -0.04684   -0.10579    0.00136
 45 H     0.43479    0.15871   -0.22120

System changes: positions 

Initializing position-dependent things.

Density initialized from wave functions
                                             
                                             
                                             
                                             
                                             
                                             
                  Ir     Pt    Ag            
                                             
             Pt   PRu    PHt    Pd           
       Pt     Pt     Ag                      
             Ag     Pd     Ru                
        Ag     Ag     Pt           Ag        
                     Pt     Pt               
                Ru     Pd     Pt             
                                             
           Ag    PAg    PPt    Pd            
                                             
            Ir     Pt     Ag    Pd           
       Pd    PPd    APt    Ag                
                                             
        Pd     Pt     Ag                     
                                             
                                             
                                             
                                             
                                             

Positions:
   0 Pd     0.000000    1.637674   10.000000    ( 0.0000,  0.0000,  0.0000)
   1 Pt     2.836535    1.637674   10.000000    ( 0.0000,  0.0000,  0.0000)
   2 Ag     5.673071    1.637674   10.000000    ( 0.0000,  0.0000,  0.0000)
   3 Pd     1.418268    4.094186   10.000000    ( 0.0000,  0.0000,  0.0000)
   4 Ag     4.254803    4.094186   10.000000    ( 0.0000,  0.0000,  0.0000)
   5 Ag     7.091338    4.094186   10.000000    ( 0.0000,  0.0000,  0.0000)
   6 Ag     2.836535    6.550698   10.000000    ( 0.0000,  0.0000,  0.0000)
   7 Pd     5.673071    6.550698   10.000000    ( 0.0000,  0.0000,  0.0000)
   8 Pd     8.509606    6.550698   10.000000    ( 0.0000,  0.0000,  0.0000)
   9 Pd     0.000000    0.000000   12.317643    ( 0.0000,  0.0000,  0.0000)
  10 Pd     2.836535    0.000000   12.317643    ( 0.0000,  0.0000,  0.0000)
  11 Pt     5.673071    0.000000   12.317643    ( 0.0000,  0.0000,  0.0000)
  12 Ir     1.418268    2.456512   12.317643    ( 0.0000,  0.0000,  0.0000)
  13 Pt     4.254803    2.456512   12.317643    ( 0.0000,  0.0000,  0.0000)
  14 Ag     7.091338    2.456512   12.317643    ( 0.0000,  0.0000,  0.0000)
  15 Pt     2.836535    4.913023   12.317643    ( 0.0000,  0.0000,  0.0000)
  16 Pd     5.673071    4.913023   12.317643    ( 0.0000,  0.0000,  0.0000)
  17 Pd     8.509606    4.913023   12.317643    ( 0.0000,  0.0000,  0.0000)
  18 Ag     1.377896    0.760055   14.617602    ( 0.0000,  0.0000,  0.0000)
  19 Ag     4.214812    0.782241   14.659757    ( 0.0000,  0.0000,  0.0000)
  20 Pt     7.057351    0.789617   14.662800    ( 0.0000,  0.0000,  0.0000)
  21 Ru     2.750917    3.300679   14.382840    ( 0.0000,  0.0000,  0.0000)
  22 Pd     5.601836    3.217076   14.649856    ( 0.0000,  0.0000,  0.0000)
  23 Pt     8.515914    3.251889   14.663564    ( 0.0000,  0.0000,  0.0000)
  24 Pt     4.176649    5.651423   14.621738    ( 0.0000,  0.0000,  0.0000)
  25 Pt     7.035330    5.604431   14.683684    ( 0.0000,  0.0000,  0.0000)
  26 Ag     9.868485    5.736446   14.695785    ( 0.0000,  0.0000,  0.0000)
  27 Ag    -0.022494    1.590012   17.034676    ( 0.0000,  0.0000,  0.0000)
  28 Ag     2.780960    1.608460   16.877699    ( 0.0000,  0.0000,  0.0000)
  29 Pt     5.669182    1.645662   17.033549    ( 0.0000,  0.0000,  0.0000)
  30 Ag     1.319474    4.076527   17.016834    ( 0.0000,  0.0000,  0.0000)
  31 Pd     4.146865    4.033327   16.808382    ( 0.0000,  0.0000,  0.0000)
  32 Ru     6.928711    4.070394   16.881275    ( 0.0000,  0.0000,  0.0000)
  33 Pd     2.790068    6.554184   17.038087    ( 0.0000,  0.0000,  0.0000)
  34 Pt     5.638221    6.424469   16.948326    ( 0.0000,  0.0000,  0.0000)
  35 Pd     8.423773    6.500988   17.083112    ( 0.0000,  0.0000,  0.0000)
  36 Pt     0.053946   -0.048023   19.460182    ( 0.0000,  0.0000,  0.0000)
  37 Pt     2.796196    0.087020   19.261902    ( 0.0000,  0.0000,  0.0000)
  38 Ag     5.623258   -0.026041   19.548774    ( 0.0000,  0.0000,  0.0000)
  39 Pt     1.570392    2.472668   19.408779    ( 0.0000,  0.0000,  0.0000)
  40 Ru     4.239695    2.585007   19.101919    ( 0.0000,  0.0000,  0.0000)
  41 Pt     7.096273    2.476078   19.349643    ( 0.0000,  0.0000,  0.0000)
  42 Ir     3.044742    4.835690   19.162320    ( 0.0000,  0.0000,  0.0000)
  43 Pt     5.727561    4.837285   19.177053    ( 0.0000,  0.0000,  0.0000)
  44 Ag     8.566552    4.887677   19.530962    ( 0.0000,  0.0000,  0.0000)
  45 H      7.362911    0.857614   20.323271    ( 0.0000,  0.0000,  0.0000)

Unit cell:
           periodic     x           y           z      points  spacing
  1. axis:    yes    8.509606    0.000000    0.000000    40     0.1842
  2. axis:    yes    4.254803    7.369535    0.000000    40     0.1842
  3. axis:    no     0.000000    0.000000   29.270571   140     0.2091

  Lengths:   8.509606   8.509606  29.270571
  Angles:   90.000000  90.000000  60.000000

Effective grid spacing dv^(1/3) = 0.2016

     iter     time        total  log10-change:
                         energy  eigst   dens
iter:   1 16:05:04  -190.344343  -3.52
iter:   2 16:06:04  -190.851977  -4.11  -2.61
iter:   3 16:07:03  -190.577572  -4.37  -2.36
iter:   4 16:08:03  -190.206205  -5.03  -2.40
iter:   5 16:09:02  -190.207640  -5.85  -3.08
iter:   6 16:10:02  -190.205231c -6.16  -3.24
iter:   7 16:11:01  -190.198781c -6.10  -3.28
iter:   8 16:12:01  -190.200014c -6.17  -3.53
iter:   9 16:13:01  -190.196756c -6.40  -3.60
iter:  10 16:14:01  -190.198863c -6.86  -3.74
iter:  11 16:15:01  -190.198373c -6.98  -3.84
iter:  12 16:16:01  -190.197288c -7.18  -3.93
iter:  13 16:17:00  -190.197728c -7.13  -3.90
iter:  14 16:18:00  -190.198726c -7.47c -4.00c

Converged after 14 iterations.

Dipole moment: (-5.268222, 8.275875, -0.239338) |e|*Ang

Energy contributions relative to reference atoms: (reference = -12371328.023897)

Kinetic:       -233.640714
Potential:     +105.755072
External:        +0.000000
XC:             -54.489118
Entropy (-ST):   -1.876051
Local:           -6.885941
--------------------------
Free energy:   -191.136752
Extrapolated:  -190.198726

Showing only first 2 kpts
 Kpt  Band  Eigenvalues  Occupancy
  0   364      0.76656    0.98888
  0   365      0.78948    0.87496
  0   366      0.82236    0.71774
  0   367      0.85085    0.59255

  1   364      0.63635    1.56484
  1   365      0.66521    1.45867
  1   366      0.70333    1.29590
  1   367      0.73141    1.16319


Fermi level: 0.76434

No gap

Forces in eV/Ang:
  0 Pd    0.70694    0.06083    0.09259
  1 Pt   -0.60793   -0.15913    0.54912
  2 Ag   -0.09558   -0.08135   -0.56350
  3 Pd   -0.05482   -0.33077    0.21620
  4 Ag   -0.00431    0.03360   -0.57353
  5 Ag    0.14491    0.16738   -0.49727
  6 Ag    0.04141   -0.00076   -0.48004
  7 Pd    0.23175    0.34835    0.06982
  8 Pd   -0.12801    0.12984    0.19030
  9 Pd   -0.01213    0.08829   -0.00576
 10 Pd   -0.00904   -0.05252   -0.07030
 11 Pt   -0.03650   -0.15371    0.15402
 12 Ir    0.67520    0.14210   -0.01041
 13 Pt   -0.63855   -0.19490    0.27122
 14 Ag    0.09764   -0.02551    0.11576
 15 Pt   -0.26691    0.03864    0.16868
 16 Pd   -0.06315    0.25384    0.21204
 17 Pd    0.11367    0.01008    0.18342
 18 Ag   -0.04583    0.00509    0.02435
 19 Ag    0.02208   -0.01535    0.02146
 20 Pt    0.01366    0.00936    0.08814
 21 Ru    0.00147   -0.00189    0.02710
 22 Pd   -0.01749   -0.06042   -0.03711
 23 Pt   -0.02456   -0.06216    0.05973
 24 Pt   -0.03883    0.01847   -0.01857
 25 Pt    0.03273    0.02079   -0.10975
 26 Ag   -0.00734    0.01467    0.04845
 27 Ag   -0.00182    0.02263    0.13254
 28 Ag   -0.00977    0.06898    0.08402
 29 Pt   -0.02722   -0.01211    0.04466
 30 Ag    0.02693   -0.02065    0.05525
 31 Pd   -0.09479   -0.04152    0.20484
 32 Ru    0.02014   -0.03344    0.01950
 33 Pd   -0.03267    0.01170    0.10538
 34 Pt   -0.03525   -0.03790    0.04190
 35 Pd   -0.00023   -0.02296   -0.02974
 36 Pt    0.01743   -0.19060   -0.34204
 37 Pt   -0.06871   -0.03949    0.03113
 38 Ag    0.18351    0.08846   -0.07830
 39 Pt    0.09338    0.07537   -0.00873
 40 Ru   -0.18047    0.22427   -0.03182
 41 Pt   -0.07953   -0.14945   -0.06529
 42 Ir    0.11172   -0.25631   -0.08669
 43 Pt   -0.14731    0.00953   -0.03030
 44 Ag   -0.03539   -0.11520    0.01998
 45 H     0.23928    0.18956   -0.09116

System changes: positions 

Initializing position-dependent things.

Density initialized from wave functions
                                             
                                             
                                             
                                             
                                             
                                             
                  Ir     Pt    Ag            
                                             
             Pt   PRu    PHt    Pd           
       Pt     Pt     Ag                      
             Ag     Pd     Ru                
        Ag     Ag     Pt           Ag        
                     Pt     Pt               
                Ru     Pd     Pt             
                                             
           Ag    PAg    PPt    Pd            
                                             
            Ir     Pt     Ag    Pd           
       Pd    PPd    APt    Ag                
                                             
        Pd     Pt     Ag                     
                                             
                                             
                                             
                                             
                                             

Positions:
   0 Pd     0.000000    1.637674   10.000000    ( 0.0000,  0.0000,  0.0000)
   1 Pt     2.836535    1.637674   10.000000    ( 0.0000,  0.0000,  0.0000)
   2 Ag     5.673071    1.637674   10.000000    ( 0.0000,  0.0000,  0.0000)
   3 Pd     1.418268    4.094186   10.000000    ( 0.0000,  0.0000,  0.0000)
   4 Ag     4.254803    4.094186   10.000000    ( 0.0000,  0.0000,  0.0000)
   5 Ag     7.091338    4.094186   10.000000    ( 0.0000,  0.0000,  0.0000)
   6 Ag     2.836535    6.550698   10.000000    ( 0.0000,  0.0000,  0.0000)
   7 Pd     5.673071    6.550698   10.000000    ( 0.0000,  0.0000,  0.0000)
   8 Pd     8.509606    6.550698   10.000000    ( 0.0000,  0.0000,  0.0000)
   9 Pd     0.000000    0.000000   12.317643    ( 0.0000,  0.0000,  0.0000)
  10 Pd     2.836535    0.000000   12.317643    ( 0.0000,  0.0000,  0.0000)
  11 Pt     5.673071    0.000000   12.317643    ( 0.0000,  0.0000,  0.0000)
  12 Ir     1.418268    2.456512   12.317643    ( 0.0000,  0.0000,  0.0000)
  13 Pt     4.254803    2.456512   12.317643    ( 0.0000,  0.0000,  0.0000)
  14 Ag     7.091338    2.456512   12.317643    ( 0.0000,  0.0000,  0.0000)
  15 Pt     2.836535    4.913023   12.317643    ( 0.0000,  0.0000,  0.0000)
  16 Pd     5.673071    4.913023   12.317643    ( 0.0000,  0.0000,  0.0000)
  17 Pd     8.509606    4.913023   12.317643    ( 0.0000,  0.0000,  0.0000)
  18 Ag     1.376788    0.759969   14.618717    ( 0.0000,  0.0000,  0.0000)
  19 Ag     4.215125    0.781978   14.660421    ( 0.0000,  0.0000,  0.0000)
  20 Pt     7.057510    0.789772   14.664141    ( 0.0000,  0.0000,  0.0000)
  21 Ru     2.750871    3.300613   14.383193    ( 0.0000,  0.0000,  0.0000)
  22 Pd     5.601594    3.215684   14.649772    ( 0.0000,  0.0000,  0.0000)
  23 Pt     8.515087    3.250309   14.664870    ( 0.0000,  0.0000,  0.0000)
  24 Pt     4.175811    5.651800   14.621762    ( 0.0000,  0.0000,  0.0000)
  25 Pt     7.035123    5.604289   14.684143    ( 0.0000,  0.0000,  0.0000)
  26 Ag     9.868457    5.736352   14.696505    ( 0.0000,  0.0000,  0.0000)
  27 Ag    -0.024319    1.589376   17.041118    ( 0.0000,  0.0000,  0.0000)
  28 Ag     2.780012    1.608913   16.878478    ( 0.0000,  0.0000,  0.0000)
  29 Pt     5.669478    1.645618   17.036202    ( 0.0000,  0.0000,  0.0000)
  30 Ag     1.319207    4.075621   17.017837    ( 0.0000,  0.0000,  0.0000)
  31 Pd     4.144948    4.032802   16.810763    ( 0.0000,  0.0000,  0.0000)
  32 Ru     6.928445    4.071457   16.880240    ( 0.0000,  0.0000,  0.0000)
  33 Pd     2.790096    6.554677   17.042056    ( 0.0000,  0.0000,  0.0000)
  34 Pt     5.637925    6.423640   16.949239    ( 0.0000,  0.0000,  0.0000)
  35 Pd     8.423047    6.500623   17.082691    ( 0.0000,  0.0000,  0.0000)
  36 Pt     0.058591   -0.054465   19.455264    ( 0.0000,  0.0000,  0.0000)
  37 Pt     2.793285    0.085990   19.263397    ( 0.0000,  0.0000,  0.0000)
  38 Ag     5.617630   -0.029110   19.546174    ( 0.0000,  0.0000,  0.0000)
  39 Pt     1.571269    2.473915   19.410038    ( 0.0000,  0.0000,  0.0000)
  40 Ru     4.238292    2.586700   19.102623    ( 0.0000,  0.0000,  0.0000)
  41 Pt     7.093527    2.477981   19.349488    ( 0.0000,  0.0000,  0.0000)
  42 Ir     3.045064    4.833927   19.162436    ( 0.0000,  0.0000,  0.0000)
  43 Pt     5.726186    4.835801   19.178411    ( 0.0000,  0.0000,  0.0000)
  44 Ag     8.565517    4.884573   19.531439    ( 0.0000,  0.0000,  0.0000)
  45 H      7.377260    0.863419   20.311023    ( 0.0000,  0.0000,  0.0000)

Unit cell:
           periodic     x           y           z      points  spacing
  1. axis:    yes    8.509606    0.000000    0.000000    40     0.1842
  2. axis:    yes    4.254803    7.369535    0.000000    40     0.1842
  3. axis:    no     0.000000    0.000000   29.270571   140     0.2091

  Lengths:   8.509606   8.509606  29.270571
  Angles:   90.000000  90.000000  60.000000

Effective grid spacing dv^(1/3) = 0.2016

     iter     time        total  log10-change:
                         energy  eigst   dens
iter:   1 16:19:19  -190.790749  -4.37
iter:   2 16:20:20  -205.909915  -3.19  -2.32
iter:   3 16:21:20  -190.736825  -3.58  -1.66
iter:   4 16:22:20  -190.264445  -4.74  -2.44
iter:   5 16:23:21  -190.227203  -5.61  -3.00
iter:   6 16:24:21  -190.215034c -5.98  -3.28
iter:   7 16:25:21  -190.210800c -6.28  -3.60
iter:   8 16:26:22  -190.212618c -6.58  -3.88
iter:   9 16:27:23  -190.211151c -6.88  -3.69
iter:  10 16:28:23  -190.209607c -7.18  -3.95
iter:  11 16:29:24  -190.210563c -7.34  -4.15c
iter:  12 16:30:24  -190.210030c -7.76c -4.06c

Converged after 12 iterations.

Dipole moment: (-5.459293, 8.712708, -0.238189) |e|*Ang

Energy contributions relative to reference atoms: (reference = -12371328.023897)

Kinetic:       -232.874685
Potential:     +105.086499
External:        +0.000000
XC:             -54.590271
Entropy (-ST):   -1.875857
Local:           -6.893646
--------------------------
Free energy:   -191.147959
Extrapolated:  -190.210030

Showing only first 2 kpts
 Kpt  Band  Eigenvalues  Occupancy
  0   364      0.76783    0.99159
  0   365      0.79114    0.87569
  0   366      0.82486    0.71459
  0   367      0.85226    0.59420

  1   364      0.63812    1.56498
  1   365      0.66751    1.45672
  1   366      0.70530    1.29518
  1   367      0.73263    1.16601


Fermi level: 0.76615

No gap

Forces in eV/Ang:
  0 Pd    0.71645    0.06157    0.10357
  1 Pt   -0.61466   -0.16105    0.55925
  2 Ag   -0.09843   -0.08133   -0.55128
  3 Pd   -0.05545   -0.33529    0.22379
  4 Ag   -0.00710    0.03290   -0.56229
  5 Ag    0.14795    0.16864   -0.48377
  6 Ag    0.04211   -0.00310   -0.46879
  7 Pd    0.23459    0.35472    0.08532
  8 Pd   -0.13257    0.12942    0.20494
  9 Pd   -0.01002    0.09038   -0.00097
 10 Pd   -0.01024   -0.04701   -0.06855
 11 Pt   -0.03857   -0.15482    0.16407
 12 Ir    0.67471    0.13985   -0.00482
 13 Pt   -0.64117   -0.20123    0.27812
 14 Ag    0.09898   -0.02837    0.12021
 15 Pt   -0.27341    0.03911    0.17406
 16 Pd   -0.06628    0.25554    0.20704
 17 Pd    0.12152    0.00914    0.17809
 18 Ag   -0.03136    0.00751    0.02773
 19 Ag    0.00538   -0.01303    0.01977
 20 Pt    0.01372    0.00299    0.07746
 21 Ru   -0.00436   -0.01153    0.02714
 22 Pd   -0.01945   -0.03502   -0.02536
 23 Pt   -0.01498   -0.05269    0.05976
 24 Pt   -0.02842    0.01039   -0.00530
 25 Pt    0.02381    0.02332   -0.08169
 26 Ag   -0.00442    0.00974    0.04693
 27 Ag    0.03098    0.02460    0.08012
 28 Ag   -0.01248    0.04171    0.07086
 29 Pt   -0.05337   -0.01333    0.03914
 30 Ag    0.01459   -0.00784    0.03998
 31 Pd   -0.05368   -0.02938    0.11022
 32 Ru    0.01314   -0.02883    0.00227
 33 Pd   -0.04682   -0.00353    0.06324
 34 Pt   -0.02462   -0.02178    0.01053
 35 Pd   -0.00323   -0.01497   -0.02038
 36 Pt   -0.01753   -0.13684   -0.31067
 37 Pt   -0.02007   -0.02423    0.02670
 38 Ag    0.16742    0.08680   -0.10259
 39 Pt    0.07066    0.03545    0.01695
 40 Ru   -0.12186    0.13251   -0.01259
 41 Pt   -0.07988   -0.15307   -0.05831
 42 Ir    0.06188   -0.18361   -0.04192
 43 Pt   -0.10764    0.01764   -0.01401
 44 Ag   -0.03153   -0.08334    0.02983
 45 H     0.21985    0.19408   -0.07603

System changes: positions 

Initializing position-dependent things.

Density initialized from wave functions
                                             
                                             
                                             
                                             
                                             
                                             
                  Ir     Pt    Ag            
                                             
             Pt   PRu    PHt    Pd           
       Pt     Pt     Ag                      
             Ag     Pd     Ru                
        Ag     Ag     Pt           Ag        
                     Pt     Pt               
                Ru     Pd     Pt             
                                             
           Ag     Ag    PPt    Pd            
                                             
            Ir     Pt     Ag    Pd           
       Pd    PPd    APt    Ag                
                                             
        Pd     Pt     Ag                     
                                             
                                             
                                             
                                             
                                             

Positions:
   0 Pd     0.000000    1.637674   10.000000    ( 0.0000,  0.0000,  0.0000)
   1 Pt     2.836535    1.637674   10.000000    ( 0.0000,  0.0000,  0.0000)
   2 Ag     5.673071    1.637674   10.000000    ( 0.0000,  0.0000,  0.0000)
   3 Pd     1.418268    4.094186   10.000000    ( 0.0000,  0.0000,  0.0000)
   4 Ag     4.254803    4.094186   10.000000    ( 0.0000,  0.0000,  0.0000)
   5 Ag     7.091338    4.094186   10.000000    ( 0.0000,  0.0000,  0.0000)
   6 Ag     2.836535    6.550698   10.000000    ( 0.0000,  0.0000,  0.0000)
   7 Pd     5.673071    6.550698   10.000000    ( 0.0000,  0.0000,  0.0000)
   8 Pd     8.509606    6.550698   10.000000    ( 0.0000,  0.0000,  0.0000)
   9 Pd     0.000000    0.000000   12.317643    ( 0.0000,  0.0000,  0.0000)
  10 Pd     2.836535    0.000000   12.317643    ( 0.0000,  0.0000,  0.0000)
  11 Pt     5.673071    0.000000   12.317643    ( 0.0000,  0.0000,  0.0000)
  12 Ir     1.418268    2.456512   12.317643    ( 0.0000,  0.0000,  0.0000)
  13 Pt     4.254803    2.456512   12.317643    ( 0.0000,  0.0000,  0.0000)
  14 Ag     7.091338    2.456512   12.317643    ( 0.0000,  0.0000,  0.0000)
  15 Pt     2.836535    4.913023   12.317643    ( 0.0000,  0.0000,  0.0000)
[...]
  15 Pt     2.836535    4.913023   12.317643    ( 0.0000,  0.0000,  0.0000)
  16 Pd     5.673071    4.913023   12.317643    ( 0.0000,  0.0000,  0.0000)
  17 Pd     8.509606    4.913023   12.317643    ( 0.0000,  0.0000,  0.0000)
  18 Ag     1.354085    0.751122   14.618401    ( 0.0000,  0.0000,  0.0000)
  19 Ag     4.188598    0.765629   14.660888    ( 0.0000,  0.0000,  0.0000)
  20 Pt     7.035139    0.773511   14.664972    ( 0.0000,  0.0000,  0.0000)
  21 Ru     2.731657    3.287810   14.382228    ( 0.0000,  0.0000,  0.0000)
  22 Pd     5.577321    3.196759   14.639934    ( 0.0000,  0.0000,  0.0000)
  23 Pt     8.494557    3.229099   14.675744    ( 0.0000,  0.0000,  0.0000)
  24 Pt     4.149710    5.636747   14.620416    ( 0.0000,  0.0000,  0.0000)
  25 Pt     7.018687    5.588416   14.659151    ( 0.0000,  0.0000,  0.0000)
  26 Ag     9.846281    5.717633   14.700707    ( 0.0000,  0.0000,  0.0000)
  27 Ag    -0.052224    1.561656   17.034990    ( 0.0000,  0.0000,  0.0000)
  28 Ag     2.743352    1.570648   16.892595    ( 0.0000,  0.0000,  0.0000)
  29 Pt     5.629235    1.601901   17.014232    ( 0.0000,  0.0000,  0.0000)
  30 Ag     1.286886    4.039051   17.034829    ( 0.0000,  0.0000,  0.0000)
  31 Pd     4.107966    3.987281   16.809734    ( 0.0000,  0.0000,  0.0000)
  32 Ru     6.905763    4.041041   16.851152    ( 0.0000,  0.0000,  0.0000)
  33 Pd     2.757683    6.509685   17.030694    ( 0.0000,  0.0000,  0.0000)
  34 Pt     5.612270    6.385074   16.909108    ( 0.0000,  0.0000,  0.0000)
  35 Pd     8.391256    6.455291   17.066409    ( 0.0000,  0.0000,  0.0000)
  36 Pt     0.065581   -0.134337   19.351057    ( 0.0000,  0.0000,  0.0000)
  37 Pt     2.803467    0.018917   19.262128    ( 0.0000,  0.0000,  0.0000)
  38 Ag     5.666484   -0.081559   19.486942    ( 0.0000,  0.0000,  0.0000)
  39 Pt     1.578966    2.423616   19.426928    ( 0.0000,  0.0000,  0.0000)
  40 Ru     4.225262    2.540344   19.098292    ( 0.0000,  0.0000,  0.0000)
  41 Pt     7.037311    2.436835   19.299439    ( 0.0000,  0.0000,  0.0000)
  42 Ir     3.020757    4.766753   19.155257    ( 0.0000,  0.0000,  0.0000)
  43 Pt     5.692829    4.805440   19.148175    ( 0.0000,  0.0000,  0.0000)
  44 Ag     8.537231    4.826339   19.551013    ( 0.0000,  0.0000,  0.0000)
  45 H      7.907216    1.200214   20.242008    ( 0.0000,  0.0000,  0.0000)

Unit cell:
           periodic     x           y           z      points  spacing
  1. axis:    yes    8.509606    0.000000    0.000000    40     0.1842
  2. axis:    yes    4.254803    7.369535    0.000000    40     0.1842
  3. axis:    no     0.000000    0.000000   29.270571   140     0.2091

  Lengths:   8.509606   8.509606  29.270571
  Angles:   90.000000  90.000000  60.000000

Effective grid spacing dv^(1/3) = 0.2016

     iter     time        total  log10-change:
                         energy  eigst   dens
iter:   1 22:45:06  -190.837915  -4.29
iter:   2 22:46:06  -204.172848  -3.22  -2.34
iter:   3 22:47:06  -190.972352  -3.64  -1.69
iter:   4 22:48:06  -190.418157  -4.69  -2.40
iter:   5 22:49:06  -190.355549  -5.57  -2.90
iter:   6 22:50:05  -190.338251c -5.88  -3.26
iter:   7 22:51:05  -190.336260c -6.26  -3.65
iter:   8 22:52:05  -190.333979c -6.32  -3.75
iter:   9 22:53:05  -190.333367c -6.88  -3.93
iter:  10 22:54:05  -190.332304c -7.01  -3.93
iter:  11 22:55:04  -190.338045c -6.97  -3.99
iter:  12 22:56:04  -190.333383c -7.11  -3.64
iter:  13 22:57:03  -190.333252c -7.87c -4.22c

Converged after 13 iterations.

Dipole moment: (-6.951509, 14.547548, -0.229374) |e|*Ang

Energy contributions relative to reference atoms: (reference = -12371328.023897)

Kinetic:       -224.296890
Potential:      +97.765030
External:        +0.000000
XC:             -55.950525
Entropy (-ST):   -1.862569
Local:           -6.919583
--------------------------
Free energy:   -191.264536
Extrapolated:  -190.333252

Showing only first 2 kpts
 Kpt  Band  Eigenvalues  Occupancy
  0   364      0.76695    1.02354
  0   365      0.79521    0.88279
  0   366      0.82989    0.71681
  0   367      0.85995    0.58516

  1   364      0.64571    1.55790
  1   365      0.66679    1.48104
  1   366      0.70844    1.30600
  1   367      0.73855    1.16407


Fermi level: 0.77166

No gap

Forces in eV/Ang:
  0 Pd    0.71374    0.06084    0.10396
  1 Pt   -0.61046   -0.16427    0.55880
  2 Ag   -0.09770   -0.08207   -0.54905
  3 Pd   -0.05489   -0.33488    0.22771
  4 Ag   -0.01018    0.03257   -0.55932
  5 Ag    0.15055    0.16751   -0.48321
  6 Ag    0.04223   -0.00348   -0.46561
  7 Pd    0.23686    0.35757    0.08336
  8 Pd   -0.12857    0.13634    0.20376
  9 Pd   -0.03637    0.07261   -0.01764
 10 Pd   -0.03916   -0.04808   -0.09413
 11 Pt   -0.05628   -0.16665    0.18369
 12 Ir    0.63503    0.11127   -0.02844
 13 Pt   -0.68069   -0.21903    0.25090
 14 Ag    0.09581   -0.04155    0.11990
 15 Pt   -0.29809    0.00898    0.17766
 16 Pd   -0.11131    0.24119    0.15283
 17 Pd    0.12271   -0.02069    0.15381
 18 Ag   -0.00313   -0.00762   -0.00701
 19 Ag    0.00751   -0.01210   -0.00514
 20 Pt    0.00489   -0.01138    0.00313
 21 Ru    0.00492   -0.00686    0.00661
 22 Pd   -0.02225   -0.00699    0.01032
 23 Pt    0.00230   -0.02084    0.00851
 24 Pt    0.00765   -0.02628    0.00867
 25 Pt    0.00763    0.00294   -0.00192
 26 Ag   -0.00422   -0.00269   -0.00209
 27 Ag    0.02024    0.00354    0.03008
 28 Ag    0.00521    0.00122    0.02826
 29 Pt   -0.00966    0.00839    0.00893
 30 Ag    0.00423   -0.01797    0.00200
 31 Pd    0.02462   -0.00666   -0.00214
 32 Ru   -0.00828   -0.01128    0.00827
 33 Pd   -0.00721   -0.00163    0.01496
 34 Pt    0.00656   -0.04283    0.03628
 35 Pd   -0.01988   -0.01679   -0.01074
 36 Pt    0.10023   -0.02244   -0.08208
 37 Pt   -0.04481    0.00434    0.00845
 38 Ag    0.00906    0.02009   -0.03915
 39 Pt    0.00167   -0.02111   -0.00628
 40 Ru   -0.05288    0.02026   -0.01668
 41 Pt    0.03934    0.02056   -0.02859
 42 Ir    0.01203   -0.05767   -0.00664
 43 Pt   -0.01001    0.01395   -0.02075
 44 Ag    0.00025   -0.01806   -0.01547
 45 H    -0.01680    0.01999    0.12963

System changes: positions 

Initializing position-dependent things.

Density initialized from wave functions
                                             
                                             
                                             
                                             
                                             
                                             
                  Ir    Pt     Ag            
                           H                 
             Pt   PRu    PPt    Pd           
       Pt     Pt     Ag                      
             Ag     Pd     Ru                
        Ag     Ag     Pt           Ag        
                     Pt     Pt               
                Ru     Pd     Pt             
                                             
           Ag     Ag    PPt    Pd            
                                             
            Ir     Pt     Ag     Pd          
       Pd     Pd    APt    Ag                
                                             
        Pd     Pt     Ag                     
                                             
                                             
                                             
                                             
                                             

Positions:
   0 Pd     0.000000    1.637674   10.000000    ( 0.0000,  0.0000,  0.0000)
   1 Pt     2.836535    1.637674   10.000000    ( 0.0000,  0.0000,  0.0000)
   2 Ag     5.673071    1.637674   10.000000    ( 0.0000,  0.0000,  0.0000)
   3 Pd     1.418268    4.094186   10.000000    ( 0.0000,  0.0000,  0.0000)
   4 Ag     4.254803    4.094186   10.000000    ( 0.0000,  0.0000,  0.0000)
   5 Ag     7.091338    4.094186   10.000000    ( 0.0000,  0.0000,  0.0000)
   6 Ag     2.836535    6.550698   10.000000    ( 0.0000,  0.0000,  0.0000)
   7 Pd     5.673071    6.550698   10.000000    ( 0.0000,  0.0000,  0.0000)
   8 Pd     8.509606    6.550698   10.000000    ( 0.0000,  0.0000,  0.0000)
   9 Pd     0.000000    0.000000   12.317643    ( 0.0000,  0.0000,  0.0000)
  10 Pd     2.836535    0.000000   12.317643    ( 0.0000,  0.0000,  0.0000)
  11 Pt     5.673071    0.000000   12.317643    ( 0.0000,  0.0000,  0.0000)
  12 Ir     1.418268    2.456512   12.317643    ( 0.0000,  0.0000,  0.0000)
  13 Pt     4.254803    2.456512   12.317643    ( 0.0000,  0.0000,  0.0000)
  14 Ag     7.091338    2.456512   12.317643    ( 0.0000,  0.0000,  0.0000)
  15 Pt     2.836535    4.913023   12.317643    ( 0.0000,  0.0000,  0.0000)
  16 Pd     5.673071    4.913023   12.317643    ( 0.0000,  0.0000,  0.0000)
  17 Pd     8.509606    4.913023   12.317643    ( 0.0000,  0.0000,  0.0000)
  18 Ag     1.358924    0.752137   14.617636    ( 0.0000,  0.0000,  0.0000)
  19 Ag     4.192515    0.767334   14.660172    ( 0.0000,  0.0000,  0.0000)
  20 Pt     7.038986    0.775240   14.667979    ( 0.0000,  0.0000,  0.0000)
  21 Ru     2.733695    3.288551   14.382772    ( 0.0000,  0.0000,  0.0000)
  22 Pd     5.581249    3.199461   14.639352    ( 0.0000,  0.0000,  0.0000)
  23 Pt     8.497513    3.232208   14.674936    ( 0.0000,  0.0000,  0.0000)
  24 Pt     4.153243    5.638544   14.619838    ( 0.0000,  0.0000,  0.0000)
  25 Pt     7.023491    5.590182   14.660193    ( 0.0000,  0.0000,  0.0000)
  26 Ag     9.849395    5.720802   14.700311    ( 0.0000,  0.0000,  0.0000)
  27 Ag    -0.044031    1.567875   17.030857    ( 0.0000,  0.0000,  0.0000)
  28 Ag     2.751078    1.578249   16.893470    ( 0.0000,  0.0000,  0.0000)
  29 Pt     5.632915    1.607505   17.015042    ( 0.0000,  0.0000,  0.0000)
  30 Ag     1.295721    4.046878   17.032985    ( 0.0000,  0.0000,  0.0000)
  31 Pd     4.112753    3.994227   16.814825    ( 0.0000,  0.0000,  0.0000)
  32 Ru     6.910018    4.042449   16.854471    ( 0.0000,  0.0000,  0.0000)
  33 Pd     2.759308    6.517666   17.030497    ( 0.0000,  0.0000,  0.0000)
  34 Pt     5.616222    6.387554   16.911937    ( 0.0000,  0.0000,  0.0000)
  35 Pd     8.396792    6.461369   17.069525    ( 0.0000,  0.0000,  0.0000)
  36 Pt     0.064101   -0.121882   19.351024    ( 0.0000,  0.0000,  0.0000)
  37 Pt     2.806140    0.028634   19.263109    ( 0.0000,  0.0000,  0.0000)
  38 Ag     5.664994   -0.071183   19.489687    ( 0.0000,  0.0000,  0.0000)
  39 Pt     1.576862    2.428506   19.427654    ( 0.0000,  0.0000,  0.0000)
  40 Ru     4.224874    2.548650   19.101193    ( 0.0000,  0.0000,  0.0000)
  41 Pt     7.048044    2.440665   19.300813    ( 0.0000,  0.0000,  0.0000)
  42 Ir     3.025559    4.769737   19.156547    ( 0.0000,  0.0000,  0.0000)
  43 Pt     5.693364    4.810739   19.150733    ( 0.0000,  0.0000,  0.0000)
  44 Ag     8.542840    4.839552   19.548134    ( 0.0000,  0.0000,  0.0000)
  45 H      7.820192    1.154356   20.283021    ( 0.0000,  0.0000,  0.0000)

Unit cell:
           periodic     x           y           z      points  spacing
  1. axis:    yes    8.509606    0.000000    0.000000    40     0.1842
  2. axis:    yes    4.254803    7.369535    0.000000    40     0.1842
  3. axis:    no     0.000000    0.000000   29.270571   140     0.2091

  Lengths:   8.509606   8.509606  29.270571
  Angles:   90.000000  90.000000  60.000000

Effective grid spacing dv^(1/3) = 0.2016

     iter     time        total  log10-change:
                         energy  eigst   dens
iter:   1 22:58:22  -190.361834  -3.75
iter:   2 22:59:21  -190.470833  -4.71  -2.94
iter:   3 23:00:20  -190.410539c -4.98  -2.72
iter:   4 23:01:19  -190.340323c -5.54  -2.70
iter:   5 23:02:18  -190.332718c -6.06  -3.30
iter:   6 23:03:17  -190.328312c -6.03  -3.38
iter:   7 23:04:16  -190.330037c -6.38  -3.30
iter:   8 23:05:15  -190.329447c -6.52  -3.65
iter:   9 23:06:14  -190.331793c -6.67  -3.83
iter:  10 23:07:13  -190.329162c -7.08  -3.75
iter:  11 23:08:12  -190.330758c -7.07  -3.79
iter:  12 23:09:11  -190.328710c -7.18  -3.91
iter:  13 23:10:10  -190.331068c -7.52c -3.92
iter:  14 23:11:09  -190.329782c -7.69c -4.01c

Converged after 14 iterations.

Dipole moment: (-6.914352, 13.557683, -0.229192) |e|*Ang

Energy contributions relative to reference atoms: (reference = -12371328.023897)

Kinetic:       -226.564048
Potential:      +99.780705
External:        +0.000000
XC:             -55.695140
Entropy (-ST):   -1.864882
Local:           -6.918857
--------------------------
Free energy:   -191.262223
Extrapolated:  -190.329782

Showing only first 2 kpts
 Kpt  Band  Eigenvalues  Occupancy
  0   364      0.76493    1.01325
  0   365      0.79284    0.87435
  0   366      0.82648    0.71374
  0   367      0.85794    0.57663

  1   364      0.64139    1.55871
  1   365      0.66539    1.47069
  1   366      0.70667    1.29547
  1   367      0.73532    1.15993


Fermi level: 0.76758

No gap

Forces in eV/Ang:
  0 Pd    0.70156    0.06293    0.08165
  1 Pt   -0.60117   -0.16017    0.53475
  2 Ag   -0.09583   -0.07752   -0.57236
  3 Pd   -0.05418   -0.32789    0.20550
  4 Ag   -0.00293    0.03458   -0.58133
  5 Ag    0.14277    0.16544   -0.50520
  6 Ag    0.04260   -0.00413   -0.48725
  7 Pd    0.23157    0.34352    0.05910
  8 Pd   -0.12299    0.13448    0.17967
  9 Pd   -0.03546    0.07480   -0.01503
 10 Pd   -0.03321   -0.05137   -0.09385
 11 Pt   -0.05006   -0.16409    0.18014
 12 Ir    0.64133    0.11492   -0.02319
 13 Pt   -0.67399   -0.21633    0.24595
 14 Ag    0.09658   -0.04248    0.11686
 15 Pt   -0.29527    0.01330    0.17539
 16 Pd   -0.10251    0.24280    0.14952
 17 Pd    0.12330   -0.01561    0.15120
 18 Ag   -0.00592   -0.01066    0.00828
 19 Ag    0.00631   -0.00883    0.00414
 20 Pt    0.00255   -0.00661   -0.00681
 21 Ru    0.00509    0.00553    0.00736
 22 Pd   -0.02872   -0.00043    0.03416
 23 Pt    0.00882   -0.02060    0.01691
 24 Pt    0.00736   -0.02880    0.02672
 25 Pt   -0.00180    0.01107   -0.00145
 26 Ag    0.00046   -0.00670   -0.00174
 27 Ag    0.00246   -0.00420    0.03427
 28 Ag   -0.00652   -0.02005    0.00663
 29 Pt    0.00568    0.00720    0.03858
 30 Ag   -0.02303   -0.02165   -0.00117
 31 Pd    0.04831    0.00416   -0.05746
 32 Ru   -0.01448    0.01019   -0.00815
 33 Pd    0.00344    0.00397    0.03948
 34 Pt    0.00884   -0.02911    0.02207
 35 Pd   -0.01902   -0.01080   -0.00824
 36 Pt    0.05171    0.04726    0.00805
 37 Pt   -0.00900   -0.00404    0.03131
 38 Ag   -0.00569    0.00796   -0.03649
 39 Pt   -0.00914   -0.00280    0.01758
 40 Ru   -0.00237   -0.04804    0.01580
 41 Pt    0.04394   -0.01965    0.03569
 42 Ir   -0.05821    0.03195    0.04243
 43 Pt    0.04683    0.00902   -0.00223
 44 Ag    0.00447   -0.01557    0.00518
 45 H     0.01989   -0.01121   -0.00504

Timing:                                      incl.     excl.
-------------------------------------------------------------------
Density initialized from wave functions:    93.823    93.821   0.3% |
 Symmetrize density:                         0.002     0.002   0.0% |
Forces:                                    429.299   429.299   1.3% ||
Hamiltonian:                                47.573     0.277   0.0% |
 Atomic:                                     3.425     0.996   0.0% |
  XC Correction:                             2.429     2.429   0.0% |
 Calculate atomic Hamiltonians:             30.892    30.892   0.1% |
 Communicate:                                5.059     5.059   0.0% |
 Initialize Hamiltonian:                     0.000     0.000   0.0% |
 Poisson:                                    0.173     0.173   0.0% |
 XC 3D grid:                                 7.747     7.747   0.0% |
LCAO initialization:                       127.425     2.423   0.0% |
 LCAO eigensolver:                          14.129     0.001   0.0% |
  Blacs Orbital Layouts:                     0.364     0.000   0.0% |
   General diagonalize:                      0.359     0.359   0.0% |
   Redistribute coefs:                       0.002     0.002   0.0% |
   Send coefs to domains:                    0.002     0.002   0.0% |
  Calculate projections:                     0.003     0.003   0.0% |
  Distribute overlap matrix:                13.007     0.000   0.0% |
   Scalapack redistribute:                   0.019     0.019   0.0% |
   blocked summation:                       12.987    12.987   0.0% |
  Potential matrix:                          0.700     0.700   0.0% |
  SparseAtomicCorrection:                    0.003     0.003   0.0% |
  Sum over cells:                            0.051     0.051   0.0% |
 LCAO to grid:                             107.954   107.954   0.3% |
 Set positions (LCAO WFS):                   2.919     0.006   0.0% |
  Basic WFS set positions:                   0.003     0.003   0.0% |
  Basis functions set positions:             0.000     0.000   0.0% |
  P tci:                                     0.000     0.000   0.0% |
  ST tci:                                    0.295     0.295   0.0% |
  Scalapack redistribute:                    0.009     0.009   0.0% |
  blocked summation:                         2.486     2.486   0.0% |
  mktci:                                     0.119     0.119   0.0% |
PWDescriptor:                                0.584     0.584   0.0% |
Redistribute:                                0.034     0.034   0.0% |
SCF-cycle:                               32236.622   578.637   1.7% ||
 Davidson:                               29409.318  6569.899  19.9% |-------|
  Apply H:                                3167.815  3115.809   9.4% |---|
   HMM T:                                   52.006    52.006   0.2% |
  Subspace diag:                          3443.381     0.111   0.0% |
   calc_h_matrix:                         2271.729   648.219   2.0% ||
    Apply H:                              1623.510  1593.720   4.8% |-|
     HMM T:                                 29.789    29.789   0.1% |
   diagonalize:                            115.769   115.769   0.3% |
   rotate_psi:                            1055.772  1055.772   3.2% ||
  calc. matrices:                        11339.411  6689.788  20.2% |-------|
   Apply H:                               4649.623  4572.555  13.8% |-----|
    HMM T:                                  77.068    77.068   0.2% |
  diagonalize:                            1645.932  1645.932   5.0% |-|
  rotate_psi:                             3242.880  3242.880   9.8% |---|
 Density:                                 1405.681     0.022   0.0% |
  Atomic density matrices:                   9.933     9.933   0.0% |
  Mix:                                     505.964   505.964   1.5% ||
  Multipole moments:                         0.855     0.855   0.0% |
  Pseudo density:                          888.907   888.883   2.7% ||
   Symmetrize density:                       0.024     0.024   0.0% |
 Hamiltonian:                              714.209     3.982   0.0% |
  Atomic:                                   47.380    12.245   0.0% |
   XC Correction:                           35.135    35.135   0.1% |
  Calculate atomic Hamiltonians:           454.733   454.733   1.4% ||
  Communicate:                              84.241    84.241   0.3% |
  Poisson:                                   2.522     2.522   0.0% |
  XC 3D grid:                              121.351   121.351   0.4% |
 Orthonormalize:                           128.778     0.012   0.0% |
  calc_s_matrix:                            20.885    20.885   0.1% |
  inverse-cholesky:                          6.649     6.649   0.0% |
  projections:                              66.088    66.088   0.2% |
  rotate_psi_s:                             35.143    35.143   0.1% |
Set symmetry:                                0.002     0.002   0.0% |
Other:                                     146.514   146.514   0.4% |
-------------------------------------------------------------------
Total:                                             33081.878 100.0%

Memory usage: 850.27 MiB
Date: Fri Jun 14 23:11:24 2024
