
  ___ ___ ___ _ _ _  
 |   |   |_  | | | | 
 | | | | | . | | | | 
 |__ |  _|___|_____|  22.1.0
 |___|_|             

User:   clausen@node430.cluster
Date:   Thu Jun 13 20:19:02 2024
Arch:   x86_64
Pid:    2941
Python: 3.10.4
gpaw:   /groups/kemi/clausen/miniconda3/envs/gpaw22/lib/python3.10/site-packages/gpaw
_gpaw:  /groups/kemi/clausen/miniconda3/envs/gpaw22/lib/python3.10/site-packages/
        _gpaw.cpython-310-x86_64-linux-gnu.so
ase:    /groups/kemi/clausen/miniconda3/envs/gpaw22/lib/python3.10/site-packages/ase (version 3.22.1)
numpy:  /groups/kemi/clausen/miniconda3/envs/gpaw22/lib/python3.10/site-packages/numpy (version 1.23.1)
scipy:  /groups/kemi/clausen/miniconda3/envs/gpaw22/lib/python3.10/site-packages/scipy (version 1.8.1)
libxc:  5.2.3
units:  Angstrom and eV
cores: 24
OpenMP: True
OMP_NUM_THREADS: 1

Input parameters:
  eigensolver: {name: dav,
                niter: 3}
  kpts: [4 4 1]
  mixer: {backend: pulay,
          beta: 0.05,
          method: difference,
          nmaxold: 5,
          weight: 50.0}
  mode: {ecut: 400.0,
         name: pw}
  xc: RPBE

System changes: positions, numbers, cell, pbc, initial_charges, initial_magmoms 

Initialize ...

Pd-setup:
  name: Palladium
  id: 6da19bfba079f22767af9506641940b9
  Z: 46.0
  valence: 16
  core: 30
  charge: 0.0
  file: /groups/kemi/clausen/miniconda3/envs/gpaw22/share/gpaw/Pd.RPBE.gz
  compensation charges: gauss, rc=0.38, lmax=2
  cutoffs: 2.38(filt), 2.28(core),
  valence states:
                energy  radius
    5s(0.00)    -3.225   1.228
    4p(6.00)   -51.131   1.360
    5p(0.00)    -0.373   1.360
    4d(10.00)    -3.964   1.228
    *s          23.987   1.228
    *d          23.247   1.228

  Using partial waves for Pd as LCAO basis

Pt-setup:
  name: Platinum
  id: f04f522592575c47ad794f6b4a415b4b
  Z: 78.0
  valence: 16
  core: 62
  charge: 0.0
  file: /groups/kemi/clausen/miniconda3/envs/gpaw22/share/gpaw/Pt.RPBE.gz
  compensation charges: gauss, rc=0.41, lmax=2
  cutoffs: 2.26(filt), 2.26(core),
  valence states:
                energy  radius
    6s(1.00)    -5.516   1.307
    5p(6.00)   -55.971   1.371
    6p(0.00)    -0.856   1.371
    5d(9.00)    -6.087   1.307
    *s          21.695   1.307
    *d          21.125   1.307

  Using partial waves for Pt as LCAO basis

Ru-setup:
  name: Ruthenium
  id: 76477906e28f51dc1b29884d53556fe9
  Z: 44.0
  valence: 16
  core: 28
  charge: 0.0
  file: /groups/kemi/clausen/miniconda3/envs/gpaw22/share/gpaw/Ru.RPBE.gz
  compensation charges: gauss, rc=0.39, lmax=2
  cutoffs: 2.16(filt), 1.30(core),
  valence states:
                energy  radius
    4s(2.00)   -76.255   1.281
    5s(1.00)    -4.126   1.281
    4p(6.00)   -46.371   1.286
    5p(0.00)    -0.913   1.286
    4d(7.00)    -5.146   1.254
    *d          22.066   1.254

  Using partial waves for Ru as LCAO basis

Ag-setup:
  name: Silver
  id: c05e55bab2c3858b3f9398f6d75cb77c
  Z: 47.0
  valence: 17
  core: 30
  charge: 0.0
  file: /groups/kemi/clausen/miniconda3/envs/gpaw22/share/gpaw/Ag.RPBE.gz
  compensation charges: gauss, rc=0.40, lmax=2
  cutoffs: 2.35(filt), 2.19(core),
  valence states:
                energy  radius
    5s(1.00)    -4.277   1.286
    4p(6.00)   -58.523   1.328
    5p(0.00)    -0.755   1.328
    4d(10.00)    -7.386   1.180
    *s          22.934   1.286
    *d          19.826   1.180

  Using partial waves for Ag as LCAO basis

Ir-setup:
  name: Iridium
  id: 73b603359d1d5397a85ae3c2440f9033
  Z: 77.0
  valence: 15
  core: 62
  charge: 0.0
  file: /groups/kemi/clausen/miniconda3/envs/gpaw22/share/gpaw/Ir.RPBE.gz
  compensation charges: gauss, rc=0.40, lmax=2
  cutoffs: 2.40(filt), 2.36(core),
  valence states:
                energy  radius
    6s(2.00)    -6.219   1.296
    5p(6.00)   -54.684   1.328
    6p(0.00)    -1.215   1.328
    5d(7.00)    -7.118   1.286
    *s          20.992   1.296
    *d          20.093   1.286

  Using partial waves for Ir as LCAO basis

H-setup:
  name: Hydrogen
  id: ea3f9156a1dc40d47a60fdce8f8bd75d
  Z: 1.0
  valence: 1
  core: 0
  charge: 0.0
  file: /groups/kemi/clausen/miniconda3/envs/gpaw22/share/gpaw/H.RPBE.gz
  compensation charges: gauss, rc=0.15, lmax=2
  cutoffs: 0.85(filt), 0.53(core),
  valence states:
                energy  radius
    1s(1.00)    -6.572   0.476
    *s          20.639   0.476
    *p           0.000   0.476

  Using partial waves for H as LCAO basis

Reference energy: -14172748.147892

Spin-paired calculation

Convergence criteria:
 Maximum [total energy] change in last 3 cyles: 0.0005 eV / electron
 Maximum integral of absolute [dens]ity change: 0.0001 electrons / valence electron
 Maximum integral of absolute [eigenst]ate change: 4e-08 eV^2 / valence electron
 Maximum number of scf [iter]ations: 333
 (Square brackets indicate name in SCF output, whereas a 'c' in
 the SCF output indicates the quantity has converged.)

Symmetries present (total): 1

  ( 1  0  0)
  ( 0  1  0)
  ( 0  0  1)

16 k-points: 4 x 4 x 1 Monkhorst-Pack grid
8 k-points in the irreducible part of the Brillouin zone
       k-points in crystal coordinates                weights
   0:     0.12500000   -0.37500000    0.00000000          2/16
   1:     0.12500000   -0.12500000    0.00000000          2/16
   2:     0.12500000    0.12500000    0.00000000          2/16
   3:     0.12500000    0.37500000    0.00000000          2/16
   4:     0.37500000   -0.37500000    0.00000000          2/16
   5:     0.37500000   -0.12500000    0.00000000          2/16
   6:     0.37500000    0.12500000    0.00000000          2/16
   7:     0.37500000    0.37500000    0.00000000          2/16

Wave functions: Plane wave expansion
  Cutoff energy: 400.000 eV
  Number of coefficients (min, max): 33332, 33436
  Pulay-stress correction: 0.000000 eV/Ang^3 (de/decut=0.000000)
  Using FFTW library
  ScaLapack parameters: grid=3x1, blocksize=64
  Wavefunction extrapolation:
    Improved wavefunction reuse through dual PAW basis 

Occupation numbers: Fermi-Dirac: width=0.1000 eV
 

Eigensolver
   Davidson(niter=3) 

Densities:
  Coarse grid: 40*40*140 grid
  Fine grid: 80*80*280 grid
  Total Charge: 0.000000 

Density mixing:
  Method: separate
  Backend: pulay
  Linear mixing parameter: 0.05
  Mixing with 5 old densities
  Damping of long wave oscillations: 50 

Hamiltonian:
  XC and Coulomb potentials evaluated on a 80*80*280 grid
  Using the RPBE Exchange-Correlation functional
  External potential:
    NoExternalPotential
 

XC parameters: RPBE with 2 nearest neighbor stencil

Memory estimate:
  Process memory now: 193.97 MiB
  Calculator: 554.47 MiB
    Density: 47.45 MiB
      Arrays: 14.92 MiB
      Localized functions: 26.79 MiB
      Mixer: 5.74 MiB
    Hamiltonian: 10.59 MiB
      Arrays: 9.75 MiB
      XC: 0.00 MiB
      Poisson: 0.00 MiB
      vbar: 0.84 MiB
    Wavefunctions: 496.43 MiB
      Arrays psit_nG: 225.00 MiB
      Eigensolver: 257.23 MiB
      Projections: 1.83 MiB
      Projectors: 3.57 MiB
      PW-descriptor: 8.80 MiB

Total number of cores used: 24
Parallelization over k-points: 8
Domain decomposition: 1 x 1 x 3
                      2 x 2 x 6 (xc only)

Number of atoms: 46
Number of atomic orbitals: 543
Number of bands in calculation: 441
Number of valence electrons: 727
Bands to converge: occupied

... initialized

Initializing position-dependent things.

Density initialized from atomic densities
Creating initial wave functions:
  441 bands from LCAO basis set

                                             
                                             
                                             
                                             
                                             
                                             
                        Ag                   
                 Pt            Pt            
            Pt    PPd    HPd    Pt           
                                             
       Pt    IPt    PPt    Pd                
                                             
        Pt     Pd    APd    Pt     Ag        
                Pt     Pd     Pt             
                                             
           Pt    APt    ARu    Pt            
                                             
            Pd    PPt    PAg    Ru           
       Pd     Pt     Pd                      
             Pd     Pd     Pt                
        Pd     Pt     Pt                     
                                             
                                             
                                             
                                             
                                             

Positions:
   0 Pd     0.000000    1.639149   10.000000    ( 0.0000,  0.0000,  0.0000)
   1 Pt     2.839089    1.639149   10.000000    ( 0.0000,  0.0000,  0.0000)
   2 Pt     5.678177    1.639149   10.000000    ( 0.0000,  0.0000,  0.0000)
   3 Pd     1.419544    4.097872   10.000000    ( 0.0000,  0.0000,  0.0000)
   4 Pd     4.258633    4.097872   10.000000    ( 0.0000,  0.0000,  0.0000)
   5 Pt     7.097722    4.097872   10.000000    ( 0.0000,  0.0000,  0.0000)
   6 Pd     2.839089    6.556595   10.000000    ( 0.0000,  0.0000,  0.0000)
   7 Pt     5.678177    6.556595   10.000000    ( 0.0000,  0.0000,  0.0000)
   8 Ru     8.517266    6.556595   10.000000    ( 0.0000,  0.0000,  0.0000)
   9 Pd     0.000000    0.000000   12.317643    ( 0.0000,  0.0000,  0.0000)
  10 Pt     2.839089    0.000000   12.317643    ( 0.0000,  0.0000,  0.0000)
  11 Pd     5.678177    0.000000   12.317643    ( 0.0000,  0.0000,  0.0000)
  12 Pd     1.419544    2.458723   12.317643    ( 0.0000,  0.0000,  0.0000)
  13 Pt     4.258633    2.458723   12.317643    ( 0.0000,  0.0000,  0.0000)
  14 Ag     7.097722    2.458723   12.317643    ( 0.0000,  0.0000,  0.0000)
  15 Ag     2.839089    4.917446   12.317643    ( 0.0000,  0.0000,  0.0000)
  16 Ag     5.678177    4.917446   12.317643    ( 0.0000,  0.0000,  0.0000)
  17 Pt     8.517266    4.917446   12.317643    ( 0.0000,  0.0000,  0.0000)
  18 Pt     1.382601    0.802015   14.574458    ( 0.0000,  0.0000,  0.0000)
  19 Pt     4.320375    0.816336   14.613039    ( 0.0000,  0.0000,  0.0000)
  20 Ru     7.144265    0.918131   14.702206    ( 0.0000,  0.0000,  0.0000)
  21 Pt     2.831254    3.224549   14.674209    ( 0.0000,  0.0000,  0.0000)
  22 Pd     5.669505    3.253449   14.666412    ( 0.0000,  0.0000,  0.0000)
  23 Pt     8.531860    3.282380   14.648110    ( 0.0000,  0.0000,  0.0000)
  24 Ag     4.274318    5.722991   14.646070    ( 0.0000,  0.0000,  0.0000)
  25 Pt     7.164045    5.771726   14.621475    ( 0.0000,  0.0000,  0.0000)
  26 Ag     9.986908    5.738787   14.643456    ( 0.0000,  0.0000,  0.0000)
  27 Pt    -0.010030    1.649760   16.860047    ( 0.0000,  0.0000,  0.0000)
  28 Pd     2.846447    1.596866   16.907942    ( 0.0000,  0.0000,  0.0000)
  29 Pd     5.675289    1.629573   16.927321    ( 0.0000,  0.0000,  0.0000)
  30 Ir     1.434330    4.054121   16.976739    ( 0.0000,  0.0000,  0.0000)
  31 Pt     4.206017    4.046333   16.977057    ( 0.0000,  0.0000,  0.0000)
  32 Pd     7.080668    4.096815   16.929692    ( 0.0000,  0.0000,  0.0000)
  33 Pd     2.838049    6.583929   16.905471    ( 0.0000,  0.0000,  0.0000)
  34 Ag     5.672922    6.523405   16.970943    ( 0.0000,  0.0000,  0.0000)
  35 Pt     8.525101    6.536969   16.950374    ( 0.0000,  0.0000,  0.0000)
  36 Pt    -0.017716    0.053004   19.239954    ( 0.0000,  0.0000,  0.0000)
  37 Pt     2.857597    0.044181   19.266473    ( 0.0000,  0.0000,  0.0000)
  38 Pt     5.659519   -0.012970   19.233800    ( 0.0000,  0.0000,  0.0000)
  39 Pt     1.394642    2.415452   19.172426    ( 0.0000,  0.0000,  0.0000)
  40 Pd     4.249890    2.430035   19.273035    ( 0.0000,  0.0000,  0.0000)
  41 Pd     7.120027    2.427105   19.248801    ( 0.0000,  0.0000,  0.0000)
  42 Pt     2.796750    4.960022   19.159701    ( 0.0000,  0.0000,  0.0000)
  43 Ag     5.679377    4.925181   19.423236    ( 0.0000,  0.0000,  0.0000)
  44 Pt     8.558870    4.929592   19.192007    ( 0.0000,  0.0000,  0.0000)
  45 H      7.093032    0.822380   20.723236    ( 0.0000,  0.0000,  0.0000)

Unit cell:
           periodic     x           y           z      points  spacing
  1. axis:    yes    8.517266    0.000000    0.000000    40     0.1844
  2. axis:    yes    4.258633    7.376169    0.000000    40     0.1844
  3. axis:    no     0.000000    0.000000   29.270571   140     0.2091

  Lengths:   8.517266   8.517266  29.270571
  Angles:   90.000000  90.000000  60.000000

Effective grid spacing dv^(1/3) = 0.2017

     iter     time        total  log10-change:
                         energy  eigst   dens
iter:   1 20:22:15  -253.493210
iter:   2 20:23:10  -218.963452  -1.66  -1.21
iter:   3 20:24:06  -213.967952  -2.31  -1.38
iter:   4 20:25:02  -253.438916  -2.31  -1.43
iter:   5 20:25:58  -211.485990  -2.48  -1.28
iter:   6 20:26:54  -205.833487  -2.64  -1.50
iter:   7 20:27:50  -202.248311  -2.50  -1.61
iter:   8 20:28:46  -200.724330  -3.19  -1.83
iter:   9 20:29:42  -201.066739  -3.35  -1.92
iter:  10 20:30:38  -201.158933  -3.70  -2.00
iter:  11 20:31:34  -200.475809  -4.03  -2.03
iter:  12 20:32:30  -200.461522  -4.19  -2.13
iter:  13 20:33:27  -200.111585  -3.68  -2.16
iter:  14 20:34:25  -199.967149  -3.73  -2.30
iter:  15 20:35:22  -199.886520c -4.22  -2.40
iter:  16 20:36:19  -199.946168c -3.97  -2.52
iter:  17 20:37:17  -199.845530c -4.76  -2.52
iter:  18 20:38:14  -199.797134c -4.66  -2.62
iter:  19 20:39:12  -199.779216c -5.00  -2.80
iter:  20 20:40:09  -199.769709c -5.14  -2.95
iter:  21 20:41:07  -199.775082c -5.25  -3.12
iter:  22 20:42:04  -199.767572c -5.71  -3.06
iter:  23 20:43:02  -199.769318c -6.03  -3.25
iter:  24 20:44:00  -199.768412c -5.83  -3.26
iter:  25 20:44:58  -199.768161c -5.94  -3.37
iter:  26 20:45:57  -199.768345c -6.31  -3.48
iter:  27 20:46:55  -199.768361c -6.59  -3.60
iter:  28 20:47:54  -199.769317c -6.51  -3.55
iter:  29 20:48:53  -199.768319c -6.53  -3.53
iter:  30 20:49:52  -199.767833c -7.24  -3.76
iter:  31 20:50:50  -199.767889c -7.26  -3.84
iter:  32 20:51:49  -199.768314c -7.29  -3.88
iter:  33 20:52:48  -199.767944c -7.58c -3.93
iter:  34 20:53:47  -199.768077c -7.94c -4.04c

Converged after 34 iterations.

Dipole moment: (28.157694, 10.536425, -0.035408) |e|*Ang

Energy contributions relative to reference atoms: (reference = -14172748.147892)

Kinetic:       -329.115777
Potential:     +181.417926
External:        +0.000000
XC:             -39.888823
Entropy (-ST):   -2.333631
Local:          -11.014587
--------------------------
Free energy:   -200.934892
Extrapolated:  -199.768077

Showing only first 2 kpts
 Kpt  Band  Eigenvalues  Occupancy
  0   361      0.64191    1.02220
  0   362      0.66321    0.91590
  0   363      0.69138    0.77856
  0   364      0.71477    0.67064

  1   361      0.51404    1.57938
  1   362      0.54975    1.44864
  1   363      0.57749    1.33130
  1   364      0.62109    1.12561


Fermi level: 0.64635

No gap

Forces in eV/Ang:
  0 Pd    0.01415   -0.01021   -0.24685
  1 Pt    0.31614   -0.52173    0.39536
  2 Pt   -0.35724   -0.13859    0.03115
  3 Pd   -0.40919    0.17335   -0.06930
  4 Pd    0.22316   -0.23293   -0.23605
  5 Pt    0.22010    0.32347   -0.17464
  6 Pd   -0.21704    0.23153   -0.08599
  7 Pt    0.57216    0.16546    0.09264
  8 Ru   -0.50293    0.06217    1.36135
  9 Pd   -0.23022    0.16791    0.18710
 10 Pt    0.29641    0.01995   -0.23213
 11 Pd    0.03740    0.04534   -0.07381
 12 Pd    0.08272    0.10174   -0.00200
 13 Pt   -0.19451   -0.17672    0.16184
 14 Ag    0.05048   -0.13047    0.07736
 15 Ag   -0.01248   -0.07315   -0.10270
 16 Ag   -0.06510   -0.05739    0.07302
 17 Pt    0.03318    0.23515   -0.57946
 18 Pt    0.02348    0.01693    0.01881
 19 Pt    0.01848    0.00457   -0.02765
 20 Ru   -0.00550   -0.02171   -0.09037
 21 Pt    0.03700   -0.01831   -0.01034
 22 Pd    0.06924   -0.00315   -0.00451
 23 Pt   -0.03406   -0.01631   -0.00241
 24 Ag    0.03871   -0.01577   -0.01258
 25 Pt   -0.04073   -0.02452   -0.07249
 26 Ag   -0.00693    0.01451   -0.05137
 27 Pt    0.06326    0.08688   -0.15362
 28 Pd    0.01021    0.01095   -0.04536
 29 Pd   -0.00814    0.00002   -0.10406
 30 Ir    0.03622   -0.01254   -0.04387
 31 Pt   -0.01112   -0.04343   -0.01489
 32 Pd    0.01947   -0.08815    0.05441
 33 Pd   -0.01085   -0.01640   -0.10985
 34 Ag   -0.03825   -0.01828    0.09400
 35 Pt    0.16519   -0.01629    0.12149
 36 Pt   -0.20728    0.06439    0.81947
 37 Pt   -0.04277   -0.07133   -0.10788
 38 Pt    0.18645    0.14396    0.68034
 39 Pt    0.13639    0.11641   -0.10744
 40 Pd   -0.10890    0.07505   -0.04587
 41 Pd   -0.06861   -0.02984    0.49976
 42 Pt   -0.05633   -0.08276   -0.06199
 43 Ag    0.00028    0.02266    0.06222
 44 Pt    0.00012   -0.01101   -0.08074
 45 H    -0.02148   -0.25582   -1.81462

System changes: positions 

Initializing position-dependent things.

Density initialized from wave functions
                                             
                                             
                                             
                                             
                                             
                                             
                        Ag                   
                 Pt            Pt            
            Pt    PPd    HPd    Pt           
                                             
       Pt    IPt    PPt    Pd                
                                             
        Pt     Pd    APd    Pt     Ag        
                Pt     Pd     Pt             
                                             
           Pt    APt    ARu    Pt            
                                             
            Pd    PPt    PAg    Ru           
       Pd     Pt     Pd                      
             Pd     Pd     Pt                
        Pd     Pt     Pt                     
                                             
                                             
                                             
                                             
                                             

Positions:
   0 Pd     0.000000    1.639149   10.000000    ( 0.0000,  0.0000,  0.0000)
   1 Pt     2.839089    1.639149   10.000000    ( 0.0000,  0.0000,  0.0000)
   2 Pt     5.678177    1.639149   10.000000    ( 0.0000,  0.0000,  0.0000)
   3 Pd     1.419544    4.097872   10.000000    ( 0.0000,  0.0000,  0.0000)
   4 Pd     4.258633    4.097872   10.000000    ( 0.0000,  0.0000,  0.0000)
   5 Pt     7.097722    4.097872   10.000000    ( 0.0000,  0.0000,  0.0000)
   6 Pd     2.839089    6.556595   10.000000    ( 0.0000,  0.0000,  0.0000)
   7 Pt     5.678177    6.556595   10.000000    ( 0.0000,  0.0000,  0.0000)
   8 Ru     8.517266    6.556595   10.000000    ( 0.0000,  0.0000,  0.0000)
   9 Pd     0.000000    0.000000   12.317643    ( 0.0000,  0.0000,  0.0000)
  10 Pt     2.839089    0.000000   12.317643    ( 0.0000,  0.0000,  0.0000)
  11 Pd     5.678177    0.000000   12.317643    ( 0.0000,  0.0000,  0.0000)
  12 Pd     1.419544    2.458723   12.317643    ( 0.0000,  0.0000,  0.0000)
  13 Pt     4.258633    2.458723   12.317643    ( 0.0000,  0.0000,  0.0000)
  14 Ag     7.097722    2.458723   12.317643    ( 0.0000,  0.0000,  0.0000)
  15 Ag     2.839089    4.917446   12.317643    ( 0.0000,  0.0000,  0.0000)
  16 Ag     5.678177    4.917446   12.317643    ( 0.0000,  0.0000,  0.0000)
  17 Pt     8.517266    4.917446   12.317643    ( 0.0000,  0.0000,  0.0000)
  18 Pt     1.382936    0.802257   14.574726    ( 0.0000,  0.0000,  0.0000)
  19 Pt     4.320639    0.816401   14.612644    ( 0.0000,  0.0000,  0.0000)
  20 Ru     7.144186    0.917821   14.700915    ( 0.0000,  0.0000,  0.0000)
  21 Pt     2.831782    3.224287   14.674062    ( 0.0000,  0.0000,  0.0000)
  22 Pd     5.670494    3.253404   14.666348    ( 0.0000,  0.0000,  0.0000)
  23 Pt     8.531373    3.282147   14.648076    ( 0.0000,  0.0000,  0.0000)
  24 Ag     4.274871    5.722766   14.645890    ( 0.0000,  0.0000,  0.0000)
  25 Pt     7.163463    5.771376   14.620439    ( 0.0000,  0.0000,  0.0000)
  26 Ag     9.986809    5.738994   14.642722    ( 0.0000,  0.0000,  0.0000)
  27 Pt    -0.009126    1.651001   16.857852    ( 0.0000,  0.0000,  0.0000)
  28 Pd     2.846593    1.597022   16.907294    ( 0.0000,  0.0000,  0.0000)
  29 Pd     5.675173    1.629573   16.925834    ( 0.0000,  0.0000,  0.0000)
  30 Ir     1.434848    4.053942   16.976112    ( 0.0000,  0.0000,  0.0000)
  31 Pt     4.205858    4.045713   16.976844    ( 0.0000,  0.0000,  0.0000)
  32 Pd     7.080946    4.095556   16.930470    ( 0.0000,  0.0000,  0.0000)
  33 Pd     2.837894    6.583695   16.903902    ( 0.0000,  0.0000,  0.0000)
  34 Ag     5.672376    6.523144   16.972285    ( 0.0000,  0.0000,  0.0000)
  35 Pt     8.527461    6.536736   16.952110    ( 0.0000,  0.0000,  0.0000)
  36 Pt    -0.020677    0.053924   19.251661    ( 0.0000,  0.0000,  0.0000)
  37 Pt     2.856986    0.043162   19.264931    ( 0.0000,  0.0000,  0.0000)
  38 Pt     5.662182   -0.010914   19.243519    ( 0.0000,  0.0000,  0.0000)
  39 Pt     1.396591    2.417115   19.170891    ( 0.0000,  0.0000,  0.0000)
  40 Pd     4.248334    2.431107   19.272380    ( 0.0000,  0.0000,  0.0000)
  41 Pd     7.119047    2.426679   19.255941    ( 0.0000,  0.0000,  0.0000)
  42 Pt     2.795945    4.958839   19.158816    ( 0.0000,  0.0000,  0.0000)
  43 Ag     5.679381    4.925505   19.424124    ( 0.0000,  0.0000,  0.0000)
  44 Pt     8.558872    4.929435   19.190853    ( 0.0000,  0.0000,  0.0000)
  45 H      7.092725    0.818725   20.697312    ( 0.0000,  0.0000,  0.0000)

Unit cell:
           periodic     x           y           z      points  spacing
  1. axis:    yes    8.517266    0.000000    0.000000    40     0.1844
  2. axis:    yes    4.258633    7.376169    0.000000    40     0.1844
  3. axis:    no     0.000000    0.000000   29.270571   140     0.2091

  Lengths:   8.517266   8.517266  29.270571
  Angles:   90.000000  90.000000  60.000000

Effective grid spacing dv^(1/3) = 0.2017

     iter     time        total  log10-change:
                         energy  eigst   dens
iter:   1 20:55:05  -201.951581  -4.12
iter:   2 20:56:03  -261.491851  -2.62  -2.06
iter:   3 20:57:01  -203.595580  -2.97  -1.38
iter:   4 20:57:59  -200.259469  -3.94  -2.00
iter:   5 20:58:57  -199.947089  -4.86  -2.46
iter:   6 20:59:57  -199.856109  -5.13  -2.74
iter:   7 21:00:56  -199.862772c -5.65  -3.29
iter:   8 21:01:56  -199.841755c -5.56  -3.14
iter:   9 21:02:56  -199.844828c -6.16  -3.60
iter:  10 21:03:56  -199.841870c -6.42  -3.52
iter:  11 21:04:55  -199.841136c -6.60  -3.80
iter:  12 21:05:54  -199.840831c -7.04  -3.79
iter:  13 21:06:54  -199.841198c -7.22  -4.01c
iter:  14 21:07:53  -199.840140c -7.39  -3.96
iter:  15 21:08:52  -199.840353c -7.24  -4.01c
iter:  16 21:09:52  -199.840239c -7.80c -4.19c

Converged after 16 iterations.

Dipole moment: (28.244094, 10.441839, -0.035972) |e|*Ang

Energy contributions relative to reference atoms: (reference = -14172748.147892)

Kinetic:       -330.219757
Potential:     +182.615870
External:        +0.000000
XC:             -40.055687
Entropy (-ST):   -2.332223
Local:          -11.014553
--------------------------
Free energy:   -201.006351
Extrapolated:  -199.840239

Showing only first 2 kpts
 Kpt  Band  Eigenvalues  Occupancy
  0   361      0.64266    1.02119
  0   362      0.66430    0.91324
  0   363      0.69252    0.77580
  0   364      0.71576    0.66870

  1   361      0.51565    1.57585
  1   362      0.55026    1.44880
  1   363      0.57858    1.32890
  1   364      0.62171    1.12528


Fermi level: 0.64690

No gap

Forces in eV/Ang:
  0 Pd    0.01180   -0.01069   -0.26027
  1 Pt    0.31022   -0.51872    0.37615
  2 Pt   -0.34877   -0.14458    0.01437
  3 Pd   -0.40745    0.17981   -0.08700
  4 Pd    0.21473   -0.22615   -0.25023
  5 Pt    0.22760    0.31943   -0.19432
  6 Pd   -0.21845    0.22787   -0.09999
  7 Pt    0.56168    0.16771    0.07193
  8 Ru   -0.49257    0.05788    1.34469
  9 Pd   -0.23693    0.16929    0.18269
 10 Pt    0.28991    0.02393   -0.22693
 11 Pd    0.04995    0.04738   -0.07716
 12 Pd    0.07854    0.10380   -0.00356
 13 Pt   -0.19053   -0.17114    0.16377
 14 Ag    0.05252   -0.13277    0.06865
 15 Ag   -0.01137   -0.07000   -0.10830
 16 Ag   -0.06854   -0.05995    0.06893
 17 Pt    0.03743    0.22347   -0.57972
 18 Pt    0.02667    0.00782    0.01664
 19 Pt    0.01710    0.00102   -0.01123
 20 Ru   -0.00712   -0.02540   -0.08187
 21 Pt    0.03709   -0.01169   -0.00774
 22 Pd    0.05909   -0.00058    0.00217
 23 Pt   -0.02988   -0.00315   -0.01071
 24 Ag    0.03779   -0.01626   -0.00866
 25 Pt   -0.03360   -0.02068   -0.04643
 26 Ag   -0.00959    0.01101   -0.04396
 27 Pt    0.04336    0.05719   -0.09236
 28 Pd    0.01868   -0.00411   -0.03996
 29 Pd   -0.00087   -0.01170   -0.05472
 30 Ir    0.02873   -0.00388   -0.04647
 31 Pt    0.00305   -0.04062   -0.01540
 32 Pd    0.01451   -0.07710    0.05159
 33 Pd   -0.00602    0.00872   -0.05193
 34 Ag   -0.04040   -0.01068    0.10017
 35 Pt    0.14410   -0.00556    0.11456
 36 Pt   -0.17099    0.06756    0.73921
 37 Pt   -0.03267   -0.05141   -0.08223
 38 Pt    0.15459    0.13504    0.62009
 39 Pt    0.10503    0.08979   -0.07793
 40 Pd   -0.08499    0.05732   -0.03028
 41 Pd   -0.06168    0.00046    0.42790
 42 Pt   -0.04850   -0.06673   -0.03362
 43 Ag   -0.00532    0.01319    0.06202
 44 Pt    0.00316   -0.01091   -0.05259
 45 H    -0.02058   -0.27373   -1.77242

System changes: positions 

Initializing position-dependent things.

Density initialized from wave functions
                                             
                                             
                                             
                                             
                                             
                                             
                        Ag                   
                 Pt            Pt            
            Pt     Pd    HPd    Pt           
                                             
       Pt    IPt    PPt    Pd                
                                             
        Pt     Pd    APd    Pt     Ag        
                Pt     Pd     Pt             
                                             
           Pt    APt    ARu    Pt            
                                             
            Pd    PPt    PAg    Ru           
       Pd    PPt    PPd    Pt                
                                             
        Pd     Pt     Pt                     
                                             
                                             
                                             
                                             
                                             

Positions:
   0 Pd     0.000000    1.639149   10.000000    ( 0.0000,  0.0000,  0.0000)
   1 Pt     2.839089    1.639149   10.000000    ( 0.0000,  0.0000,  0.0000)
   2 Pt     5.678177    1.639149   10.000000    ( 0.0000,  0.0000,  0.0000)
   3 Pd     1.419544    4.097872   10.000000    ( 0.0000,  0.0000,  0.0000)
   4 Pd     4.258633    4.097872   10.000000    ( 0.0000,  0.0000,  0.0000)
   5 Pt     7.097722    4.097872   10.000000    ( 0.0000,  0.0000,  0.0000)
   6 Pd     2.839089    6.556595   10.000000    ( 0.0000,  0.0000,  0.0000)
   7 Pt     5.678177    6.556595   10.000000    ( 0.0000,  0.0000,  0.0000)
   8 Ru     8.517266    6.556595   10.000000    ( 0.0000,  0.0000,  0.0000)
   9 Pd     0.000000    0.000000   12.317643    ( 0.0000,  0.0000,  0.0000)
  10 Pt     2.839089    0.000000   12.317643    ( 0.0000,  0.0000,  0.0000)
  11 Pd     5.678177    0.000000   12.317643    ( 0.0000,  0.0000,  0.0000)
  12 Pd     1.419544    2.458723   12.317643    ( 0.0000,  0.0000,  0.0000)
  13 Pt     4.258633    2.458723   12.317643    ( 0.0000,  0.0000,  0.0000)
  14 Ag     7.097722    2.458723   12.317643    ( 0.0000,  0.0000,  0.0000)
  15 Ag     2.839089    4.917446   12.317643    ( 0.0000,  0.0000,  0.0000)
  16 Ag     5.678177    4.917446   12.317643    ( 0.0000,  0.0000,  0.0000)
  17 Pt     8.517266    4.917446   12.317643    ( 0.0000,  0.0000,  0.0000)
  18 Pt     1.385877    0.803209   14.576599    ( 0.0000,  0.0000,  0.0000)
  19 Pt     4.322554    0.816546   14.611246    ( 0.0000,  0.0000,  0.0000)
  20 Ru     7.143408    0.915027   14.691725    ( 0.0000,  0.0000,  0.0000)
  21 Pt     2.835911    3.222926   14.673177    ( 0.0000,  0.0000,  0.0000)
  22 Pd     5.677163    3.253316   14.666529    ( 0.0000,  0.0000,  0.0000)
  23 Pt     8.528009    3.281678   14.646959    ( 0.0000,  0.0000,  0.0000)
  24 Ag     4.279086    5.720961   14.644891    ( 0.0000,  0.0000,  0.0000)
  25 Pt     7.159658    5.769040   14.615036    ( 0.0000,  0.0000,  0.0000)
  26 Ag     9.985765    5.740251   14.637762    ( 0.0000,  0.0000,  0.0000)
  27 Pt    -0.004120    1.657634   16.847019    ( 0.0000,  0.0000,  0.0000)
  28 Pd     2.848597    1.596701   16.902797    ( 0.0000,  0.0000,  0.0000)
  29 Pd     5.675011    1.628376   16.919299    ( 0.0000,  0.0000,  0.0000)
  30 Ir     1.438113    4.053432   16.970963    ( 0.0000,  0.0000,  0.0000)
  31 Pt     4.206070    4.041166   16.975134    ( 0.0000,  0.0000,  0.0000)
  32 Pd     7.082606    4.086874   16.936238    ( 0.0000,  0.0000,  0.0000)
  33 Pd     2.837180    6.584439   16.897599    ( 0.0000,  0.0000,  0.0000)
  34 Ag     5.667897    6.521887   16.983380    ( 0.0000,  0.0000,  0.0000)
  35 Pt     8.543691    6.536021   16.964924    ( 0.0000,  0.0000,  0.0000)
  36 Pt    -0.040037    0.061416   19.334670    ( 0.0000,  0.0000,  0.0000)
  37 Pt     2.853258    0.037260   19.255547    ( 0.0000,  0.0000,  0.0000)
  38 Pt     5.679678    0.004199   19.313087    ( 0.0000,  0.0000,  0.0000)
  39 Pt     1.408565    2.427350   19.161951    ( 0.0000,  0.0000,  0.0000)
  40 Pd     4.238658    2.437647   19.268868    ( 0.0000,  0.0000,  0.0000)
  41 Pd     7.112118    2.426457   19.304220    ( 0.0000,  0.0000,  0.0000)
  42 Pt     2.790476    4.951267   19.154817    ( 0.0000,  0.0000,  0.0000)
  43 Ag     5.678839    4.927059   19.431030    ( 0.0000,  0.0000,  0.0000)
  44 Pt     8.559196    4.928220   19.184745    ( 0.0000,  0.0000,  0.0000)
  45 H      7.090426    0.788417   20.499636    ( 0.0000,  0.0000,  0.0000)

Unit cell:
           periodic     x           y           z      points  spacing
  1. axis:    yes    8.517266    0.000000    0.000000    40     0.1844
  2. axis:    yes    4.258633    7.376169    0.000000    40     0.1844
  3. axis:    no     0.000000    0.000000   29.270571   140     0.2091

  Lengths:   8.517266   8.517266  29.270571
  Angles:   90.000000  90.000000  60.000000

Effective grid spacing dv^(1/3) = 0.2017

     iter     time        total  log10-change:
                         energy  eigst   dens
iter:   1 21:11:12  -202.599398  -2.82
iter:   2 21:12:11  -209.421057  -2.82  -2.09
iter:   3 21:13:11  -205.447997  -3.27  -1.83
iter:   4 21:14:11  -200.955667  -3.78  -1.91
iter:   5 21:15:11  -200.410603  -4.57  -2.35
iter:   6 21:16:11  -200.403025  -4.66  -2.72
iter:   7 21:17:11  -200.587767c -4.60  -2.63
iter:   8 21:18:11  -200.263576c -4.61  -2.46
iter:   9 21:19:10  -200.258397c -5.19  -3.12
iter:  10 21:20:10  -200.252990c -5.70  -3.04
iter:  11 21:21:09  -200.251002c -6.06  -3.23
iter:  12 21:22:08  -200.247652c -5.95  -3.30
iter:  13 21:23:08  -200.250220c -5.72  -3.40
iter:  14 21:24:07  -200.252157c -6.29  -3.34
iter:  15 21:25:07  -200.245759c -6.47  -3.37
iter:  16 21:26:07  -200.246142c -7.02  -3.69
iter:  17 21:27:07  -200.247270c -6.64  -3.73
iter:  18 21:28:06  -200.245323c -6.80  -3.60
iter:  19 21:29:06  -200.245468c -7.16  -3.94
iter:  20 21:30:07  -200.245786c -7.37  -4.24c
iter:  21 21:31:07  -200.245435c -7.84c -4.33c

Converged after 21 iterations.

Dipole moment: (28.800417, 9.675069, -0.027082) |e|*Ang

Energy contributions relative to reference atoms: (reference = -14172748.147892)

Kinetic:       -331.149002
Potential:     +183.485944
External:        +0.000000
XC:             -40.402742
Entropy (-ST):   -2.327966
Local:          -11.015653
--------------------------
Free energy:   -201.409418
Extrapolated:  -200.245435

Showing only first 2 kpts
 Kpt  Band  Eigenvalues  Occupancy
  0   361      0.64786    1.01737
  0   362      0.67091    0.90243
  0   363      0.69954    0.76354
  0   364      0.71982    0.67035

  1   361      0.52326    1.56514
  1   362      0.55575    1.44458
  1   363      0.58864    1.30360
  1   364      0.62596    1.12618


Fermi level: 0.65133

No gap

Forces in eV/Ang:
  0 Pd    0.01207   -0.01289   -0.25316
  1 Pt    0.30650   -0.52025    0.38974
  2 Pt   -0.34731   -0.14181    0.02129
  3 Pd   -0.41017    0.17888   -0.07509
  4 Pd    0.21839   -0.22499   -0.24026
  5 Pt    0.22464    0.31879   -0.18810
  6 Pd   -0.21584    0.22901   -0.09495
  7 Pt    0.55224    0.16728    0.07853
  8 Ru   -0.48914    0.05510    1.35068
  9 Pd   -0.23244    0.16842    0.18766
 10 Pt    0.28811    0.03153   -0.22754
 11 Pd    0.05444    0.05067   -0.08761
 12 Pd    0.08184    0.10369   -0.00035
 13 Pt   -0.18608   -0.16793    0.15839
 14 Ag    0.04996   -0.12808    0.04321
 15 Ag   -0.00437   -0.07214   -0.11116
 16 Ag   -0.07529   -0.06392    0.05606
 17 Pt    0.04068    0.21283   -0.58956
 18 Pt    0.01814   -0.03294   -0.00798
 19 Pt    0.01038   -0.02473    0.00355
 20 Ru    0.01452   -0.02982   -0.03290
 21 Pt    0.01872    0.01129   -0.03103
 22 Pd    0.02855    0.00873   -0.01546
 23 Pt    0.00464    0.03630   -0.06166
 24 Ag    0.02165   -0.00430    0.01153
 25 Pt    0.01103    0.00761    0.04193
 26 Ag   -0.01003   -0.00782   -0.02243
 27 Pt   -0.02194   -0.06012    0.12026
 28 Pd    0.02238   -0.06689   -0.03008
 29 Pd    0.05108   -0.05852    0.11327
 30 Ir    0.00150    0.01398   -0.06496
 31 Pt    0.03143    0.00499   -0.02190
 32 Pd   -0.00118    0.01441    0.04410
 33 Pd    0.03603    0.08368    0.13669
 34 Ag   -0.03958    0.01134    0.11662
 35 Pt    0.00305   -0.00294    0.04717
 36 Pt    0.10907   -0.01980    0.20958
 37 Pt   -0.00228    0.00316   -0.05671
 38 Pt   -0.04572   -0.00256    0.20460
 39 Pt   -0.02981   -0.02774   -0.04369
 40 Pd   -0.02291   -0.00480   -0.00935
 41 Pd   -0.01061    0.22206    0.04342
 42 Pt   -0.01251    0.03507    0.01153
 43 Ag   -0.03351    0.02772    0.03047
 44 Pt    0.01741    0.02735   -0.02147
 45 H    -0.03700   -0.33892   -1.11453

System changes: positions 

Initializing position-dependent things.

Density initialized from wave functions
                                             
                                             
                                             
                                             
                                             
                                             
                 Pt     Ag     Pt            
                                             
            Pt     Pd    HPd    Pt           
       Pt            Pt                      
             IPt    Pt     Pd                
        Pt     Pd     Pd                     
                     Ag     Pt     Ag        
                Pt     Pd     Pt             
                                             
           Pt    APt    ARu    Pt            
                                             
            Pd     Pt    PAg    Ru           
       Pd    PPt    PPd    Pt                
                                             
        Pd     Pt     Pt                     
                                             
                                             
                                             
                                             
                                             

Positions:
   0 Pd     0.000000    1.639149   10.000000    ( 0.0000,  0.0000,  0.0000)
   1 Pt     2.839089    1.639149   10.000000    ( 0.0000,  0.0000,  0.0000)
   2 Pt     5.678177    1.639149   10.000000    ( 0.0000,  0.0000,  0.0000)
   3 Pd     1.419544    4.097872   10.000000    ( 0.0000,  0.0000,  0.0000)
   4 Pd     4.258633    4.097872   10.000000    ( 0.0000,  0.0000,  0.0000)
   5 Pt     7.097722    4.097872   10.000000    ( 0.0000,  0.0000,  0.0000)
   6 Pd     2.839089    6.556595   10.000000    ( 0.0000,  0.0000,  0.0000)
   7 Pt     5.678177    6.556595   10.000000    ( 0.0000,  0.0000,  0.0000)
   8 Ru     8.517266    6.556595   10.000000    ( 0.0000,  0.0000,  0.0000)
   9 Pd     0.000000    0.000000   12.317643    ( 0.0000,  0.0000,  0.0000)
  10 Pt     2.839089    0.000000   12.317643    ( 0.0000,  0.0000,  0.0000)
  11 Pd     5.678177    0.000000   12.317643    ( 0.0000,  0.0000,  0.0000)
  12 Pd     1.419544    2.458723   12.317643    ( 0.0000,  0.0000,  0.0000)
  13 Pt     4.258633    2.458723   12.317643    ( 0.0000,  0.0000,  0.0000)
  14 Ag     7.097722    2.458723   12.317643    ( 0.0000,  0.0000,  0.0000)
  15 Ag     2.839089    4.917446   12.317643    ( 0.0000,  0.0000,  0.0000)
  16 Ag     5.678177    4.917446   12.317643    ( 0.0000,  0.0000,  0.0000)
  17 Pt     8.517266    4.917446   12.317643    ( 0.0000,  0.0000,  0.0000)
  18 Pt     1.388815    0.803240   14.577998    ( 0.0000,  0.0000,  0.0000)
  19 Pt     4.324461    0.816058   14.610013    ( 0.0000,  0.0000,  0.0000)
  20 Ru     7.143138    0.911914   14.683002    ( 0.0000,  0.0000,  0.0000)
  21 Pt     2.839898    3.222007   14.671599    ( 0.0000,  0.0000,  0.0000)
  22 Pd     5.683648    3.253447   14.666225    ( 0.0000,  0.0000,  0.0000)
  23 Pt     8.525240    3.282110   14.644481    ( 0.0000,  0.0000,  0.0000)
  24 Ag     4.283233    5.719321   14.644310    ( 0.0000,  0.0000,  0.0000)
  25 Pt     7.156656    5.767222   14.611317    ( 0.0000,  0.0000,  0.0000)
  26 Ag     9.984642    5.741144   14.632908    ( 0.0000,  0.0000,  0.0000)
  27 Pt    -0.000274    1.661955   16.840428    ( 0.0000,  0.0000,  0.0000)
  28 Pd     2.850805    1.594820   16.898155    ( 0.0000,  0.0000,  0.0000)
  29 Pd     5.676137    1.625942   16.916273    ( 0.0000,  0.0000,  0.0000)
  30 Ir     1.440986    4.053289   16.964930    ( 0.0000,  0.0000,  0.0000)
  31 Pt     4.206945    4.037413   16.973120    ( 0.0000,  0.0000,  0.0000)
  32 Pd     7.084025    4.079787   16.942301    ( 0.0000,  0.0000,  0.0000)
  33 Pd     2.837468    6.587028   16.895306    ( 0.0000,  0.0000,  0.0000)
  34 Ag     5.663089    6.521049   16.995767    ( 0.0000,  0.0000,  0.0000)
  35 Pt     8.557720    6.535247   16.977079    ( 0.0000,  0.0000,  0.0000)
  36 Pt    -0.053941    0.067232   19.411220    ( 0.0000,  0.0000,  0.0000)
  37 Pt     2.849951    0.032165   19.245895    ( 0.0000,  0.0000,  0.0000)
  38 Pt     5.693607    0.017031   19.377935    ( 0.0000,  0.0000,  0.0000)
  39 Pt     1.418217    2.435541   19.152980    ( 0.0000,  0.0000,  0.0000)
  40 Pd     4.229651    2.443223   19.265514    ( 0.0000,  0.0000,  0.0000)
  41 Pd     7.105905    2.431774   19.346920    ( 0.0000,  0.0000,  0.0000)
  42 Pt     2.785444    4.945616   19.151483    ( 0.0000,  0.0000,  0.0000)
  43 Ag     5.677557    4.929177   19.437682    ( 0.0000,  0.0000,  0.0000)
  44 Pt     8.559897    4.927898   19.178766    ( 0.0000,  0.0000,  0.0000)
  45 H      7.087507    0.754058   20.302631    ( 0.0000,  0.0000,  0.0000)

Unit cell:
           periodic     x           y           z      points  spacing
  1. axis:    yes    8.517266    0.000000    0.000000    40     0.1844
  2. axis:    yes    4.258633    7.376169    0.000000    40     0.1844
  3. axis:    no     0.000000    0.000000   29.270571   140     0.2091

  Lengths:   8.517266   8.517266  29.270571
  Angles:   90.000000  90.000000  60.000000

Effective grid spacing dv^(1/3) = 0.2017

     iter     time        total  log10-change:
                         energy  eigst   dens
iter:   1 21:32:28  -201.776110  -2.91
iter:   2 21:33:28  -206.988176  -3.05  -2.21
iter:   3 21:34:28  -204.117762  -3.44  -1.88
iter:   4 21:35:28  -200.626797  -3.96  -1.97
iter:   5 21:36:29  -200.437262  -4.79  -2.56
iter:   6 21:37:29  -200.449620c -4.81  -2.86
iter:   7 21:38:28  -200.616032c -4.69  -2.70
iter:   8 21:39:28  -200.354826c -4.85  -2.50
iter:   9 21:40:28  -200.340504c -5.20  -3.06
iter:  10 21:41:28  -200.339491c -5.93  -3.30
iter:  11 21:42:28  -200.342707c -5.74  -3.27
iter:  12 21:43:28  -200.336273c -6.01  -3.39
iter:  13 21:44:27  -200.356376c -5.97  -3.49
iter:  14 21:45:27  -200.337559c -6.25  -3.04
iter:  15 21:46:27  -200.337096c -6.72  -3.69
iter:  16 21:47:27  -200.337216c -6.47  -3.56
iter:  17 21:48:27  -200.336761c -6.80  -3.60
iter:  18 21:49:27  -200.335509c -7.02  -3.81
iter:  19 21:50:27  -200.335846c -7.15  -4.05c
iter:  20 21:51:26  -200.336162c -7.55c -4.22c

Converged after 20 iterations.

Dipole moment: (29.221937, 9.057908, -0.031581) |e|*Ang

Energy contributions relative to reference atoms: (reference = -14172748.147892)

Kinetic:       -327.683339
Potential:     +180.655487
External:        +0.000000
XC:             -41.125445
Entropy (-ST):   -2.323878
Local:          -11.020926
--------------------------
Free energy:   -201.498101
Extrapolated:  -200.336162

Showing only first 2 kpts
 Kpt  Band  Eigenvalues  Occupancy
  0   361      0.64590    1.01696
  0   362      0.67028    0.89545
  0   363      0.69985    0.75250
  0   364      0.71736    0.67222

  1   361      0.52366    1.55679
  1   362      0.55448    1.44148
  1   363      0.59298    1.27438
  1   364      0.61818    1.15435


Fermi level: 0.64930

No gap

Forces in eV/Ang:
  0 Pd    0.01177   -0.01349   -0.25017
  1 Pt    0.30566   -0.52604    0.39578
  2 Pt   -0.34744   -0.14399    0.02409
  3 Pd   -0.41393    0.18173   -0.07035
  4 Pd    0.22123   -0.22326   -0.23460
  5 Pt    0.22413    0.32095   -0.18641
  6 Pd   -0.21802    0.22975   -0.09479
  7 Pt    0.54909    0.16666    0.08146
  8 Ru   -0.48719    0.05377    1.35316
  9 Pd   -0.22753    0.17053    0.19457
 10 Pt    0.28951    0.03541   -0.22435
 11 Pd    0.05602    0.05359   -0.09605
 12 Pd    0.08324    0.10075    0.00619
 13 Pt   -0.18201   -0.16931    0.15770
 14 Ag    0.04901   -0.12462    0.02354
 15 Ag    0.00089   -0.07285   -0.11391
 16 Ag   -0.07691   -0.06687    0.04723
 17 Pt    0.03902    0.20775   -0.59528
 18 Pt    0.00325   -0.05122   -0.02168
 19 Pt    0.00784   -0.03562    0.02496
 20 Ru    0.03292   -0.02654    0.02524
 21 Pt   -0.00025    0.02203   -0.03682
 22 Pd   -0.00074    0.00246   -0.01318
 23 Pt    0.03208    0.04762   -0.07284
 24 Ag   -0.00044    0.00979    0.03463
 25 Pt    0.05390    0.02866    0.12127
 26 Ag   -0.00124   -0.01593    0.01511
 27 Pt   -0.07266   -0.11447    0.22296
 28 Pd    0.02857   -0.09772   -0.03433
 29 Pd    0.08241   -0.07272    0.21790
 30 Ir   -0.02011    0.02888   -0.09099
 31 Pt    0.04534    0.02825   -0.03485
 32 Pd   -0.01607    0.07431    0.01427
 33 Pd    0.04909    0.11922    0.24496
 34 Ag   -0.02651    0.01297    0.06931
 35 Pt   -0.10720   -0.00196   -0.05900
 36 Pt    0.76383   -0.31471   -0.49474
 37 Pt    0.04708    0.06131    0.05573
 38 Pt   -0.56582   -0.28991   -0.37276
 39 Pt   -0.13178   -0.11695    0.02681
 40 Pd    0.03352   -0.05311    0.02715
 41 Pd    0.03329    0.52881   -0.33413
 42 Pt    0.02599    0.10831    0.08081
 43 Ag   -0.05435    0.03023    0.04410
 44 Pt    0.02334    0.04536    0.05777
 45 H    -0.14493   -0.13413    0.03537

System changes: positions 

Initializing position-dependent things.

Density initialized from wave functions
                                             
                                             
                                             
                                             
                                             
                                             
                 Pt     Ag     Pt            
                                             
            Pt     Pd    HPd    Pt           
       Pt            Pt                      
             IPt    Pt     Pd                
        Pt     Pd     Pd                     
                     Ag     Pt     Ag        
                Pt     Pd     Pt             
                                             
           Pt    APt    ARu    Pt            
                                             
            Pd    PPt    PAg    Ru           
       Pd    PPt    PPd    Pt                
                                             
        Pd     Pt     Pt                     
                                             
                                             
                                             
                                             
                                             

Positions:
   0 Pd     0.000000    1.639149   10.000000    ( 0.0000,  0.0000,  0.0000)
   1 Pt     2.839089    1.639149   10.000000    ( 0.0000,  0.0000,  0.0000)
   2 Pt     5.678177    1.639149   10.000000    ( 0.0000,  0.0000,  0.0000)
   3 Pd     1.419544    4.097872   10.000000    ( 0.0000,  0.0000,  0.0000)
   4 Pd     4.258633    4.097872   10.000000    ( 0.0000,  0.0000,  0.0000)
   5 Pt     7.097722    4.097872   10.000000    ( 0.0000,  0.0000,  0.0000)
   6 Pd     2.839089    6.556595   10.000000    ( 0.0000,  0.0000,  0.0000)
   7 Pt     5.678177    6.556595   10.000000    ( 0.0000,  0.0000,  0.0000)
   8 Ru     8.517266    6.556595   10.000000    ( 0.0000,  0.0000,  0.0000)
   9 Pd     0.000000    0.000000   12.317643    ( 0.0000,  0.0000,  0.0000)
  10 Pt     2.839089    0.000000   12.317643    ( 0.0000,  0.0000,  0.0000)
  11 Pd     5.678177    0.000000   12.317643    ( 0.0000,  0.0000,  0.0000)
  12 Pd     1.419544    2.458723   12.317643    ( 0.0000,  0.0000,  0.0000)
  13 Pt     4.258633    2.458723   12.317643    ( 0.0000,  0.0000,  0.0000)
  14 Ag     7.097722    2.458723   12.317643    ( 0.0000,  0.0000,  0.0000)
  15 Ag     2.839089    4.917446   12.317643    ( 0.0000,  0.0000,  0.0000)
  16 Ag     5.678177    4.917446   12.317643    ( 0.0000,  0.0000,  0.0000)
  17 Pt     8.517266    4.917446   12.317643    ( 0.0000,  0.0000,  0.0000)
  18 Pt     1.388149    0.802638   14.577402    ( 0.0000,  0.0000,  0.0000)
  19 Pt     4.324103    0.815745   14.610494    ( 0.0000,  0.0000,  0.0000)
  20 Ru     7.143609    0.912345   14.685306    ( 0.0000,  0.0000,  0.0000)
  21 Pt     2.838950    3.222470   14.671489    ( 0.0000,  0.0000,  0.0000)
  22 Pd     5.682158    3.253458   14.666066    ( 0.0000,  0.0000,  0.0000)
  23 Pt     8.526266    3.282546   14.644181    ( 0.0000,  0.0000,  0.0000)
  24 Ag     4.282259    5.719826   14.644831    ( 0.0000,  0.0000,  0.0000)
  25 Pt     7.157970    5.767984   14.613504    ( 0.0000,  0.0000,  0.0000)
  26 Ag     9.984893    5.740744   14.634167    ( 0.0000,  0.0000,  0.0000)
  27 Pt    -0.001959    1.659632   16.844477    ( 0.0000,  0.0000,  0.0000)
  28 Pd     2.850566    1.594137   16.898841    ( 0.0000,  0.0000,  0.0000)
  29 Pd     5.676843    1.625666   16.919404    ( 0.0000,  0.0000,  0.0000)
  30 Ir     1.440100    4.053621   16.965308    ( 0.0000,  0.0000,  0.0000)
  31 Pt     4.207219    4.038662   16.973198    ( 0.0000,  0.0000,  0.0000)
  32 Pd     7.083525    4.082343   16.941088    ( 0.0000,  0.0000,  0.0000)
  33 Pd     2.838006    6.587753   16.898564    ( 0.0000,  0.0000,  0.0000)
  34 Ag     5.663906    6.521393   16.993728    ( 0.0000,  0.0000,  0.0000)
  35 Pt     8.553186    6.535347   16.973603    ( 0.0000,  0.0000,  0.0000)
  36 Pt    -0.042439    0.062460   19.387957    ( 0.0000,  0.0000,  0.0000)
  37 Pt     2.851202    0.033979   19.248542    ( 0.0000,  0.0000,  0.0000)
  38 Pt     5.684330    0.010858   19.358758    ( 0.0000,  0.0000,  0.0000)
  39 Pt     1.414486    2.432313   19.155189    ( 0.0000,  0.0000,  0.0000)
  40 Pd     4.232056    2.441349   19.266513    ( 0.0000,  0.0000,  0.0000)
  41 Pd     7.107747    2.436470   19.333227    ( 0.0000,  0.0000,  0.0000)
  42 Pt     2.786896    4.948201   19.153025    ( 0.0000,  0.0000,  0.0000)
  43 Ag     5.677235    4.929111   19.436549    ( 0.0000,  0.0000,  0.0000)
  44 Pt     8.560005    4.928549   19.180621    ( 0.0000,  0.0000,  0.0000)
  45 H      7.086633    0.760242   20.348676    ( 0.0000,  0.0000,  0.0000)

Unit cell:
           periodic     x           y           z      points  spacing
  1. axis:    yes    8.517266    0.000000    0.000000    40     0.1844
  2. axis:    yes    4.258633    7.376169    0.000000    40     0.1844
  3. axis:    no     0.000000    0.000000   29.270571   140     0.2091

  Lengths:   8.517266   8.517266  29.270571
  Angles:   90.000000  90.000000  60.000000

Effective grid spacing dv^(1/3) = 0.2017

     iter     time        total  log10-change:
                         energy  eigst   dens
iter:   1 21:52:46  -201.156093  -3.78
iter:   2 21:53:47  -224.241333  -3.11  -2.28
iter:   3 21:54:47  -201.082474  -3.36  -1.59
iter:   4 21:55:48  -200.430852  -4.53  -2.31
iter:   5 21:56:48  -200.381504  -5.19  -2.83
iter:   6 21:57:47  -200.376233c -5.62  -3.20
iter:   7 21:58:47  -200.387008c -5.67  -3.22
iter:   8 21:59:47  -200.369785c -5.87  -3.07
iter:   9 22:00:47  -200.367315c -6.01  -3.60
iter:  10 22:01:47  -200.368312c -6.47  -3.52
iter:  11 22:02:47  -200.368582c -6.74  -3.74
iter:  12 22:03:47  -200.366736c -6.96  -3.56
iter:  13 22:04:46  -200.367055c -7.24  -3.91
iter:  14 22:05:47  -200.367370c -7.20  -3.88
iter:  15 22:06:47  -200.366688c -7.62c -3.97
iter:  16 22:07:47  -200.367615c -7.61c -4.20c

Converged after 16 iterations.

Dipole moment: (28.893931, 9.451791, -0.025075) |e|*Ang

Energy contributions relative to reference atoms: (reference = -14172748.147892)

Kinetic:       -329.100067
Potential:     +181.808120
External:        +0.000000
XC:             -40.882822
Entropy (-ST):   -2.323834
Local:          -11.030929
--------------------------
Free energy:   -201.529532
Extrapolated:  -200.367615

Showing only first 2 kpts
 Kpt  Band  Eigenvalues  Occupancy
  0   361      0.64931    1.01447
  0   362      0.67360    0.89345
  0   363      0.70265    0.75302
  0   364      0.72100    0.66898

  1   361      0.52331    1.56795
  1   362      0.55692    1.44338
  1   363      0.59386    1.28373
  1   364      0.62332    1.14346


Fermi level: 0.65221

No gap

Forces in eV/Ang:
  0 Pd    0.01119   -0.01316   -0.25008
  1 Pt    0.30487   -0.52336    0.39492
  2 Pt   -0.34573   -0.14257    0.02436
  3 Pd   -0.41222    0.18089   -0.07076
  4 Pd    0.22019   -0.22257   -0.23535
  5 Pt    0.22324    0.31935   -0.18570
  6 Pd   -0.21701    0.22863   -0.09336
  7 Pt    0.54800    0.16577    0.08243
  8 Ru   -0.48749    0.05300    1.35047
  9 Pd   -0.23136    0.16915    0.19516
 10 Pt    0.29128    0.03115   -0.22346
 11 Pd    0.05653    0.05241   -0.08910
 12 Pd    0.08364    0.10087    0.00235
 13 Pt   -0.18255   -0.17002    0.16063
 14 Ag    0.04830   -0.12784    0.03287
 15 Ag   -0.00062   -0.07102   -0.11234
 16 Ag   -0.07457   -0.06537    0.05311
 17 Pt    0.03729    0.21248   -0.59286
 18 Pt   -0.00057   -0.03575   -0.01053
 19 Pt    0.01989   -0.02171    0.01461
 20 Ru    0.02532   -0.02610    0.00695
 21 Pt    0.00718    0.01247   -0.03187
 22 Pd    0.01291   -0.00416   -0.01183
 23 Pt    0.01616    0.02324   -0.05253
 24 Ag    0.00350    0.00876    0.02652
 25 Pt    0.03095    0.01503    0.06621
 26 Ag    0.00639   -0.00278    0.00569
 27 Pt   -0.04462   -0.06642    0.12953
 28 Pd    0.02265   -0.06404   -0.03744
 29 Pd    0.06077   -0.05070    0.14272
 30 Ir   -0.00303    0.01455   -0.06854
 31 Pt    0.02618    0.01056   -0.02792
 32 Pd   -0.00882    0.04734    0.01299
 33 Pd    0.02956    0.08290    0.16520
 34 Ag   -0.02230    0.00646    0.06357
 35 Pt   -0.06721   -0.00927   -0.03906
 36 Pt    0.32537   -0.12324   -0.22472
 37 Pt    0.02401    0.03492    0.01531
 38 Pt   -0.19064   -0.10723   -0.14416
 39 Pt   -0.06631   -0.05150   -0.02003
 40 Pd   -0.00139   -0.01662   -0.00288
 41 Pd    0.01974    0.27413   -0.18303
 42 Pt    0.01179    0.05649    0.03648
 43 Ag   -0.04183    0.02593    0.03190
 44 Pt    0.01604    0.02844    0.01747
 45 H    -0.09673   -0.23514   -0.31380

System changes: positions 

Initializing position-dependent things.

Density initialized from wave functions
                                             
                                             
                                             
                                             
                                             
                                             
                 Pt     Ag     Pt            
                                             
            Pt    PPd    HPd    Pt           
       Pt            Pt                      
             IPt    Pt     Pd                
        Pt     Pd     Pd                     
                     Ag     Pt     Ag        
                Pt     Pd     Pt             
                                             
           Pt    APt    ARu    Pt            
                                             
            Pd    PPt    PAg    Ru           
       Pd    PPt    PPd    Pt                
                                             
        Pd     Pt     Pt                     
                                             
                                             
                                             
                                             
                                             

Positions:
   0 Pd     0.000000    1.639149   10.000000    ( 0.0000,  0.0000,  0.0000)
   1 Pt     2.839089    1.639149   10.000000    ( 0.0000,  0.0000,  0.0000)
   2 Pt     5.678177    1.639149   10.000000    ( 0.0000,  0.0000,  0.0000)
   3 Pd     1.419544    4.097872   10.000000    ( 0.0000,  0.0000,  0.0000)
   4 Pd     4.258633    4.097872   10.000000    ( 0.0000,  0.0000,  0.0000)
   5 Pt     7.097722    4.097872   10.000000    ( 0.0000,  0.0000,  0.0000)
   6 Pd     2.839089    6.556595   10.000000    ( 0.0000,  0.0000,  0.0000)
   7 Pt     5.678177    6.556595   10.000000    ( 0.0000,  0.0000,  0.0000)
   8 Ru     8.517266    6.556595   10.000000    ( 0.0000,  0.0000,  0.0000)
   9 Pd     0.000000    0.000000   12.317643    ( 0.0000,  0.0000,  0.0000)
  10 Pt     2.839089    0.000000   12.317643    ( 0.0000,  0.0000,  0.0000)
  11 Pd     5.678177    0.000000   12.317643    ( 0.0000,  0.0000,  0.0000)
  12 Pd     1.419544    2.458723   12.317643    ( 0.0000,  0.0000,  0.0000)
  13 Pt     4.258633    2.458723   12.317643    ( 0.0000,  0.0000,  0.0000)
  14 Ag     7.097722    2.458723   12.317643    ( 0.0000,  0.0000,  0.0000)
  15 Ag     2.839089    4.917446   12.317643    ( 0.0000,  0.0000,  0.0000)
  16 Ag     5.678177    4.917446   12.317643    ( 0.0000,  0.0000,  0.0000)
  17 Pt     8.517266    4.917446   12.317643    ( 0.0000,  0.0000,  0.0000)
  18 Pt     1.388220    0.801927   14.577207    ( 0.0000,  0.0000,  0.0000)
  19 Pt     4.324525    0.815266   14.610671    ( 0.0000,  0.0000,  0.0000)
  20 Ru     7.144150    0.911750   14.685186    ( 0.0000,  0.0000,  0.0000)
  21 Pt     2.839188    3.222681   14.670763    ( 0.0000,  0.0000,  0.0000)
  22 Pd     5.682638    3.253385   14.665766    ( 0.0000,  0.0000,  0.0000)
  23 Pt     8.526536    3.283024   14.643033    ( 0.0000,  0.0000,  0.0000)
  24 Ag     4.282449    5.719959   14.645349    ( 0.0000,  0.0000,  0.0000)
  25 Pt     7.158536    5.768255   14.614744    ( 0.0000,  0.0000,  0.0000)
  26 Ag     9.984977    5.740691   14.634115    ( 0.0000,  0.0000,  0.0000)
  27 Pt    -0.002701    1.658461   16.846793    ( 0.0000,  0.0000,  0.0000)
  28 Pd     2.851051    1.592772   16.897919    ( 0.0000,  0.0000,  0.0000)
  29 Pd     5.678129    1.624573   16.922111    ( 0.0000,  0.0000,  0.0000)
  30 Ir     1.440116    4.053901   16.963678    ( 0.0000,  0.0000,  0.0000)
  31 Pt     4.207743    4.038806   16.972552    ( 0.0000,  0.0000,  0.0000)
  32 Pd     7.083400    4.083099   16.941560    ( 0.0000,  0.0000,  0.0000)
  33 Pd     2.838649    6.589457   16.901701    ( 0.0000,  0.0000,  0.0000)
  34 Ag     5.663309    6.521467   16.995363    ( 0.0000,  0.0000,  0.0000)
  35 Pt     8.552267    6.535088   16.973165    ( 0.0000,  0.0000,  0.0000)
  36 Pt    -0.034904    0.059403   19.385337    ( 0.0000,  0.0000,  0.0000)
  37 Pt     2.851599    0.034483   19.248526    ( 0.0000,  0.0000,  0.0000)
  38 Pt     5.679713    0.008460   19.357411    ( 0.0000,  0.0000,  0.0000)
  39 Pt     1.413426    2.431472   19.154480    ( 0.0000,  0.0000,  0.0000)
  40 Pd     4.231713    2.441174   19.266356    ( 0.0000,  0.0000,  0.0000)
  41 Pd     7.107954    2.442900   19.330801    ( 0.0000,  0.0000,  0.0000)
  42 Pt     2.786976    4.949245   19.153622    ( 0.0000,  0.0000,  0.0000)
  43 Ag     5.676347    4.929781   19.437444    ( 0.0000,  0.0000,  0.0000)
  44 Pt     8.560354    4.929174   19.180742    ( 0.0000,  0.0000,  0.0000)
  45 H      7.084407    0.754982   20.337351    ( 0.0000,  0.0000,  0.0000)

Unit cell:
           periodic     x           y           z      points  spacing
  1. axis:    yes    8.517266    0.000000    0.000000    40     0.1844
  2. axis:    yes    4.258633    7.376169    0.000000    40     0.1844
  3. axis:    no     0.000000    0.000000   29.270571   140     0.2091

  Lengths:   8.517266   8.517266  29.270571
  Angles:   90.000000  90.000000  60.000000

Effective grid spacing dv^(1/3) = 0.2017

     iter     time        total  log10-change:
                         energy  eigst   dens
iter:   1 22:09:07  -201.460080  -4.27
iter:   2 22:10:07  -232.308331  -2.89  -2.17
iter:   3 22:11:07  -202.871444  -3.28  -1.52
iter:   4 22:12:07  -200.633020  -4.03  -2.11
iter:   5 22:13:08  -200.468721  -5.14  -2.58
iter:   6 22:14:09  -200.388820c -5.34  -2.80
iter:   7 22:15:09  -200.387418c -5.93  -3.60
iter:   8 22:16:10  -200.384736c -6.28  -3.66
iter:   9 22:17:11  -200.385577c -6.60  -3.85
iter:  10 22:18:12  -200.384889c -6.87  -3.81
iter:  11 22:19:13  -200.385434c -6.99  -3.78
iter:  12 22:20:14  -200.383824c -6.95  -3.64
iter:  13 22:21:15  -200.383959c -7.62c -4.22c

Converged after 13 iterations.

Dipole moment: (28.676807, 9.646267, -0.026423) |e|*Ang

Energy contributions relative to reference atoms: (reference = -14172748.147892)

Kinetic:       -329.156655
Potential:     +181.792360
External:        +0.000000
XC:             -40.843086
Entropy (-ST):   -2.324484
Local:          -11.014336
--------------------------
Free energy:   -201.546200
Extrapolated:  -200.383959

Showing only first 2 kpts
 Kpt  Band  Eigenvalues  Occupancy
  0   361      0.64831    1.01433
  0   362      0.67253    0.89364
  0   363      0.70197    0.75134
  0   364      0.71971    0.67012

  1   361      0.52122    1.57151
  1   362      0.55595    1.44311
  1   363      0.59271    1.28427
  1   364      0.62296    1.14016


Fermi level: 0.65117

No gap

Forces in eV/Ang:
  0 Pd    0.01130   -0.01325   -0.25515
  1 Pt    0.30401   -0.52306    0.39015
  2 Pt   -0.34592   -0.14288    0.02122
  3 Pd   -0.41159    0.17994   -0.07525
  4 Pd    0.22038   -0.22215   -0.23612
  5 Pt    0.22255    0.31990   -0.18901
  6 Pd   -0.21648    0.22830   -0.09671
  7 Pt    0.54827    0.16448    0.07912
  8 Ru   -0.48702    0.05244    1.34726
  9 Pd   -0.23037    0.16620    0.19178
 10 Pt    0.28973    0.02896   -0.22711
 11 Pd    0.05713    0.05282   -0.09458
 12 Pd    0.08354    0.09884   -0.00068
 13 Pt   -0.18006   -0.16778    0.15512
 14 Ag    0.04677   -0.12664    0.02815
 15 Ag    0.00331   -0.06994   -0.11371
 16 Ag   -0.07485   -0.06503    0.05472
 17 Pt    0.03387    0.21321   -0.59517
 18 Pt   -0.00108   -0.02581   -0.00349
 19 Pt    0.01732   -0.01540    0.02491
 20 Ru    0.02501   -0.01633    0.02455
 21 Pt    0.00610    0.01109   -0.01859
 22 Pd    0.00739   -0.00754    0.00299
 23 Pt    0.01363    0.01255   -0.02412
 24 Ag   -0.00053    0.00530    0.02754
 25 Pt    0.02908    0.01322    0.06753
 26 Ag    0.01397   -0.00131    0.01872
 27 Pt   -0.04756   -0.05209    0.12844
 28 Pd    0.02394   -0.04173   -0.02028
 29 Pd    0.04601   -0.03867    0.12807
 30 Ir   -0.00441    0.01686   -0.04794
 31 Pt    0.01179   -0.00297   -0.01780
 32 Pd    0.00122    0.02614    0.00231
 33 Pd    0.01506    0.06649    0.15003
 34 Ag   -0.02495    0.00972    0.04849
 35 Pt   -0.04491   -0.00409   -0.03540
 36 Pt    0.31608   -0.08930   -0.24343
 37 Pt    0.03502    0.05787    0.05108
 38 Pt   -0.22433   -0.11770   -0.17737
 39 Pt   -0.06390   -0.04885    0.00353
 40 Pd    0.00049   -0.02952    0.01228
 41 Pd    0.04027    0.23177   -0.19289
 42 Pt   -0.00144    0.04422    0.04204
 43 Ag   -0.04042    0.01396    0.04664
 44 Pt    0.03516    0.01815    0.04299
 45 H    -0.09410   -0.23352   -0.34892

System changes: positions 

Initializing position-dependent things.

Density initialized from wave functions
                                             
                                             
                                             
                                             
                                             
                                             
                 Pt     Ag     Pt            
                          Pd                 
            Pt    PPd    Hg     Pt           
       Pt    IPt    PPt    Pd                
                                             
        Pt     Pd    APd    Pt     Ag        
                                             
                Pt     Pd     Pt             
           Pt    APt    ARu    Pt            
                                             
            Pd    PPt    PAg    Ru           
       Pd     Pt     Pd                      
             Pd     Pd     Pt                
        Pd     Pt     Pt                     
                                             
                                             
                                             
                                             
                                             

Positions:
   0 Pd     0.000000    1.639149   10.000000    ( 0.0000,  0.0000,  0.0000)
   1 Pt     2.839089    1.639149   10.000000    ( 0.0000,  0.0000,  0.0000)
   2 Pt     5.678177    1.639149   10.000000    ( 0.0000,  0.0000,  0.0000)
   3 Pd     1.419544    4.097872   10.000000    ( 0.0000,  0.0000,  0.0000)
   4 Pd     4.258633    4.097872   10.000000    ( 0.0000,  0.0000,  0.0000)
   5 Pt     7.097722    4.097872   10.000000    ( 0.0000,  0.0000,  0.0000)
   6 Pd     2.839089    6.556595   10.000000    ( 0.0000,  0.0000,  0.0000)
   7 Pt     5.678177    6.556595   10.000000    ( 0.0000,  0.0000,  0.0000)
   8 Ru     8.517266    6.556595   10.000000    ( 0.0000,  0.0000,  0.0000)
   9 Pd     0.000000    0.000000   12.317643    ( 0.0000,  0.0000,  0.0000)
  10 Pt     2.839089    0.000000   12.317643    ( 0.0000,  0.0000,  0.0000)
  11 Pd     5.678177    0.000000   12.317643    ( 0.0000,  0.0000,  0.0000)
  12 Pd     1.419544    2.458723   12.317643    ( 0.0000,  0.0000,  0.0000)
  13 Pt     4.258633    2.458723   12.317643    ( 0.0000,  0.0000,  0.0000)
  14 Ag     7.097722    2.458723   12.317643    ( 0.0000,  0.0000,  0.0000)
  15 Ag     2.839089    4.917446   12.317643    ( 0.0000,  0.0000,  0.0000)
  16 Ag     5.678177    4.917446   12.317643    ( 0.0000,  0.0000,  0.0000)
  17 Pt     8.517266    4.917446   12.317643    ( 0.0000,  0.0000,  0.0000)
  18 Pt     1.389304    0.791907   14.574851    ( 0.0000,  0.0000,  0.0000)
  19 Pt     4.330799    0.808476   14.614270    ( 0.0000,  0.0000,  0.0000)
  20 Ru     7.152411    0.903432   14.684748    ( 0.0000,  0.0000,  0.0000)
  21 Pt     2.842803    3.225779   14.660769    ( 0.0000,  0.0000,  0.0000)
  22 Pd     5.689613    3.251972   14.662464    ( 0.0000,  0.0000,  0.0000)
  23 Pt     8.530412    3.289428   14.627869    ( 0.0000,  0.0000,  0.0000)
  24 Ag     4.285064    5.721669   14.653365    ( 0.0000,  0.0000,  0.0000)
  25 Pt     7.167001    5.772211   14.633793    ( 0.0000,  0.0000,  0.0000)
  26 Ag     9.986909    5.740017   14.634381    ( 0.0000,  0.0000,  0.0000)
  27 Pt    -0.014268    1.641847   16.882054    ( 0.0000,  0.0000,  0.0000)
  28 Pd     2.858631    1.573779   16.885205    ( 0.0000,  0.0000,  0.0000)
  29 Pd     5.696563    1.608839   16.962253    ( 0.0000,  0.0000,  0.0000)
  30 Ir     1.440289    4.058400   16.940390    ( 0.0000,  0.0000,  0.0000)
  31 Pt     4.214534    4.039766   16.963502    ( 0.0000,  0.0000,  0.0000)
  32 Pd     7.082374    4.092720   16.947960    ( 0.0000,  0.0000,  0.0000)
  33 Pd     2.847228    6.614163   16.948391    ( 0.0000,  0.0000,  0.0000)
  34 Ag     5.653862    6.522866   17.019290    ( 0.0000,  0.0000,  0.0000)
  35 Pt     8.540352    6.531555   16.966960    ( 0.0000,  0.0000,  0.0000)
  36 Pt     0.079652    0.015547   19.344743    ( 0.0000,  0.0000,  0.0000)
  37 Pt     2.858591    0.044110   19.251246    ( 0.0000,  0.0000,  0.0000)
  38 Pt     5.606161   -0.029043   19.334884    ( 0.0000,  0.0000,  0.0000)
  39 Pt     1.397552    2.418942   19.145513    ( 0.0000,  0.0000,  0.0000)
  40 Pd     4.226469    2.437468   19.265210    ( 0.0000,  0.0000,  0.0000)
  41 Pd     7.112823    2.537883   19.293457    ( 0.0000,  0.0000,  0.0000)
  42 Pt     2.786970    4.964076   19.163205    ( 0.0000,  0.0000,  0.0000)
  43 Ag     5.662849    4.939043   19.452560    ( 0.0000,  0.0000,  0.0000)
  44 Pt     8.567395    4.937850   19.184722    ( 0.0000,  0.0000,  0.0000)
  45 H      7.050449    0.674002   20.157659    ( 0.0000,  0.0000,  0.0000)

Unit cell:
           periodic     x           y           z      points  spacing
  1. axis:    yes    8.517266    0.000000    0.000000    40     0.1844
  2. axis:    yes    4.258633    7.376169    0.000000    40     0.1844
  3. axis:    no     0.000000    0.000000   29.270571   140     0.2091

  Lengths:   8.517266   8.517266  29.270571
  Angles:   90.000000  90.000000  60.000000

Effective grid spacing dv^(1/3) = 0.2017

     iter     time        total  log10-change:
                         energy  eigst   dens
iter:   1 22:22:35  -204.421937  -2.38
iter:   2 22:23:36  -265.564912  -2.37  -1.92
iter:   3 22:24:37  -205.490258  -2.77  -1.37
iter:   4 22:25:37  -200.787626  -3.39  -1.95
iter:   5 22:26:38  -200.663531  -4.35  -2.51
iter:   6 22:27:39  -200.631461c -4.53  -2.52
iter:   7 22:28:39  -200.464733c -5.04  -2.47
iter:   8 22:29:40  -200.438595c -5.13  -2.83
iter:   9 22:30:41  -200.437324c -5.13  -2.84
iter:  10 22:31:41  -200.426733c -5.47  -2.88
iter:  11 22:32:40  -200.414925c -5.61  -2.92
iter:  12 22:33:40  -200.408077c -5.72  -3.09
iter:  13 22:34:39  -200.412466c -5.90  -3.27
iter:  14 22:35:39  -200.409105c -5.95  -3.21
iter:  15 22:36:39  -200.411034c -5.90  -3.28
iter:  16 22:37:39  -200.406697c -6.20  -3.40
iter:  17 22:38:40  -200.407872c -6.26  -3.47
iter:  18 22:39:40  -200.407832c -6.57  -3.64
iter:  19 22:40:41  -200.407824c -6.60  -3.55
iter:  20 22:41:41  -200.407231c -6.77  -3.67
iter:  21 22:42:42  -200.407689c -6.69  -3.80
iter:  22 22:43:42  -200.405607c -6.93  -3.78
iter:  23 22:44:43  -200.406825c -7.07  -3.93
iter:  24 22:45:44  -200.406661c -7.28  -3.91
iter:  25 22:46:45  -200.406524c -7.64c -3.94
iter:  26 22:47:46  -200.406505c -7.74c -4.10c

Converged after 26 iterations.

Dipole moment: (25.125841, 12.549098, -0.022946) |e|*Ang

Energy contributions relative to reference atoms: (reference = -14172748.147892)

Kinetic:       -327.136738
Potential:     +180.145151
External:        +0.000000
XC:             -41.219138
Entropy (-ST):   -2.325014
Local:          -11.033274
--------------------------
Free energy:   -201.569012
Extrapolated:  -200.406505

Showing only first 2 kpts
 Kpt  Band  Eigenvalues  Occupancy
  0   361      0.65280    1.00603
  0   362      0.67814    0.87995
  0   363      0.70689    0.74160
  0   364      0.71765    0.69212

  1   361      0.52752    1.55975
  1   362      0.56128    1.43307
  1   363      0.59564    1.28386
  1   364      0.61916    1.17250


Fermi level: 0.65401

No gap

Forces in eV/Ang:
  0 Pd    0.01122   -0.01237   -0.25399
  1 Pt    0.30402   -0.51840    0.38721
  2 Pt   -0.34480   -0.14262    0.01842
  3 Pd   -0.41149    0.18203   -0.08125
  4 Pd    0.22132   -0.22226   -0.24186
  5 Pt    0.22300    0.31722   -0.19479
  6 Pd   -0.21767    0.23015   -0.10098
  7 Pt    0.54690    0.16707    0.07854
  8 Ru   -0.49369    0.05079    1.35782
  9 Pd   -0.22965    0.15789    0.19851
 10 Pt    0.30284   -0.00088   -0.22166
 11 Pd    0.05592    0.05008   -0.09458
 12 Pd    0.09142    0.08140   -0.02060
 13 Pt   -0.17574   -0.18643    0.16548
 14 Ag    0.04166   -0.14301    0.01263
 15 Ag    0.01173   -0.05679   -0.12029
 16 Ag   -0.05616   -0.04399    0.09298
 17 Pt    0.01483    0.24241   -0.60494
 18 Pt   -0.03692    0.07965    0.09522
 19 Pt    0.06509    0.08470    0.03447
 20 Ru    0.02328    0.04852    0.12030
 21 Pt    0.00824   -0.04273    0.04856
 22 Pd    0.01174   -0.08707    0.09985
 23 Pt   -0.00499   -0.14031    0.22160
 24 Ag   -0.02544    0.00664    0.06042
 25 Pt   -0.04664   -0.02394   -0.04401
 26 Ag    0.11856    0.06152    0.08953
 27 Pt    0.08372    0.18313   -0.25165
 28 Pd   -0.00679    0.12495   -0.03282
 29 Pd   -0.08710    0.11774   -0.09691
 30 Ir    0.05015   -0.06048    0.11794
 31 Pt   -0.09283   -0.07187    0.07908
 32 Pd    0.00410    0.01374   -0.14202
 33 Pd   -0.06214   -0.13321   -0.08176
 34 Ag    0.12350   -0.11089   -0.25137
 35 Pt   -0.00053   -0.05968   -0.16361
 36 Pt   -0.54368    0.34682   -0.03652
 37 Pt    0.01619   -0.02036    0.13628
 38 Pt    0.31756    0.17366   -0.10700
 39 Pt    0.14499    0.18114   -0.02760
 40 Pd   -0.03525    0.10893   -0.02628
 41 Pd    0.08626   -0.44840   -0.05704
 42 Pt    0.02147   -0.16276   -0.08956
 43 Ag    0.04925   -0.11244    0.08086
 44 Pt   -0.02432   -0.08839    0.04606
 45 H    -0.00073   -0.09385   -0.17242

System changes: positions 

Initializing position-dependent things.

Density initialized from wave functions
                                             
                                             
                                             
                                             
                                             
                                             
                 Pt     Ag     Pt            
                                             
            Pt    PPd    HPd    Pt           
       Pt    IPt    PPt    Pd                
                                             
        Pt     Pd    APd    Pt     Ag        
                                             
                Pt     Pd     Pt             
           Pt    APt    ARu    Pt            
                                             
            Pd    PPt    PAg    Ru           
                                             
       Pd    PPt    PPd    Pt                
        Pd     Pt     Pt                     
                                             
                                             
                                             
                                             
                                             

Positions:
   0 Pd     0.000000    1.639149   10.000000    ( 0.0000,  0.0000,  0.0000)
   1 Pt     2.839089    1.639149   10.000000    ( 0.0000,  0.0000,  0.0000)
   2 Pt     5.678177    1.639149   10.000000    ( 0.0000,  0.0000,  0.0000)
   3 Pd     1.419544    4.097872   10.000000    ( 0.0000,  0.0000,  0.0000)
   4 Pd     4.258633    4.097872   10.000000    ( 0.0000,  0.0000,  0.0000)
   5 Pt     7.097722    4.097872   10.000000    ( 0.0000,  0.0000,  0.0000)
   6 Pd     2.839089    6.556595   10.000000    ( 0.0000,  0.0000,  0.0000)
   7 Pt     5.678177    6.556595   10.000000    ( 0.0000,  0.0000,  0.0000)
   8 Ru     8.517266    6.556595   10.000000    ( 0.0000,  0.0000,  0.0000)
   9 Pd     0.000000    0.000000   12.317643    ( 0.0000,  0.0000,  0.0000)
  10 Pt     2.839089    0.000000   12.317643    ( 0.0000,  0.0000,  0.0000)
  11 Pd     5.678177    0.000000   12.317643    ( 0.0000,  0.0000,  0.0000)
  12 Pd     1.419544    2.458723   12.317643    ( 0.0000,  0.0000,  0.0000)
  13 Pt     4.258633    2.458723   12.317643    ( 0.0000,  0.0000,  0.0000)
  14 Ag     7.097722    2.458723   12.317643    ( 0.0000,  0.0000,  0.0000)
  15 Ag     2.839089    4.917446   12.317643    ( 0.0000,  0.0000,  0.0000)
  16 Ag     5.678177    4.917446   12.317643    ( 0.0000,  0.0000,  0.0000)
  17 Pt     8.517266    4.917446   12.317643    ( 0.0000,  0.0000,  0.0000)
  18 Pt     1.388714    0.796179   14.576448    ( 0.0000,  0.0000,  0.0000)
  19 Pt     4.329069    0.811620   14.612952    ( 0.0000,  0.0000,  0.0000)
  20 Ru     7.149440    0.906681   14.685224    ( 0.0000,  0.0000,  0.0000)
  21 Pt     2.841669    3.224243   14.664662    ( 0.0000,  0.0000,  0.0000)
  22 Pd     5.687396    3.251865   14.664253    ( 0.0000,  0.0000,  0.0000)
  23 Pt     8.528841    3.286075   14.634808    ( 0.0000,  0.0000,  0.0000)
  24 Ag     4.284097    5.721078   14.650769    ( 0.0000,  0.0000,  0.0000)
  25 Pt     7.163315    5.770473   14.626028    ( 0.0000,  0.0000,  0.0000)
  26 Ag     9.986950    5.740786   14.634580    ( 0.0000,  0.0000,  0.0000)
  27 Pt    -0.008976    1.649546   16.866345    ( 0.0000,  0.0000,  0.0000)
  28 Pd     2.855757    1.581512   16.889255    ( 0.0000,  0.0000,  0.0000)
  29 Pd     5.689158    1.615467   16.946378    ( 0.0000,  0.0000,  0.0000)
  30 Ir     1.440767    4.056142   16.949589    ( 0.0000,  0.0000,  0.0000)
  31 Pt     4.211528    4.038937   16.967322    ( 0.0000,  0.0000,  0.0000)
  32 Pd     7.082636    4.089334   16.944785    ( 0.0000,  0.0000,  0.0000)
  33 Pd     2.843749    6.604101   16.930192    ( 0.0000,  0.0000,  0.0000)
  34 Ag     5.658363    6.521318   17.008855    ( 0.0000,  0.0000,  0.0000)
  35 Pt     8.544954    6.532292   16.968347    ( 0.0000,  0.0000,  0.0000)
  36 Pt     0.031257    0.034619   19.363121    ( 0.0000,  0.0000,  0.0000)
  37 Pt     2.855722    0.039624   19.250294    ( 0.0000,  0.0000,  0.0000)
  38 Pt     5.637944   -0.012634   19.345662    ( 0.0000,  0.0000,  0.0000)
  39 Pt     1.405096    2.425453   19.147938    ( 0.0000,  0.0000,  0.0000)
  40 Pd     4.227833    2.440245   19.265019    ( 0.0000,  0.0000,  0.0000)
  41 Pd     7.111017    2.499077   19.308993    ( 0.0000,  0.0000,  0.0000)
  42 Pt     2.787246    4.957117   19.158620    ( 0.0000,  0.0000,  0.0000)
  43 Ag     5.668326    4.934882   19.447427    ( 0.0000,  0.0000,  0.0000)
  44 Pt     8.564135    4.933998   19.182890    ( 0.0000,  0.0000,  0.0000)
  45 H      7.063213    0.702842   20.218124    ( 0.0000,  0.0000,  0.0000)

Unit cell:
           periodic     x           y           z      points  spacing
  1. axis:    yes    8.517266    0.000000    0.000000    40     0.1844
  2. axis:    yes    4.258633    7.376169    0.000000    40     0.1844
  3. axis:    no     0.000000    0.000000   29.270571   140     0.2091

  Lengths:   8.517266   8.517266  29.270571
  Angles:   90.000000  90.000000  60.000000

Effective grid spacing dv^(1/3) = 0.2017

     iter     time        total  log10-change:
                         energy  eigst   dens
iter:   1 22:49:06  -201.640526  -3.09
iter:   2 22:50:07  -226.780196  -3.01  -2.21
iter:   3 22:51:08  -201.085945  -3.31  -1.56
iter:   4 22:52:09  -200.546053  -4.61  -2.31
iter:   5 22:53:10  -200.484212  -5.03  -2.77
iter:   6 22:54:10  -200.465740c -5.40  -3.01
iter:   7 22:55:11  -200.460906c -5.63  -3.16
iter:   8 22:56:11  -200.456453c -5.58  -3.30
iter:   9 22:57:12  -200.457953c -5.89  -3.34
iter:  10 22:58:13  -200.457118c -6.45  -3.32
iter:  11 22:59:14  -200.458429c -6.51  -3.42
iter:  12 23:00:15  -200.454367c -6.73  -3.40
iter:  13 23:01:16  -200.455516c -6.69  -3.57
iter:  14 23:02:17  -200.454661c -6.86  -3.63
iter:  15 23:03:17  -200.454431c -7.03  -3.75
iter:  16 23:04:18  -200.455047c -6.80  -3.85
iter:  17 23:05:19  -200.456328c -6.83  -3.71
iter:  18 23:06:20  -200.453859c -6.96  -3.67
iter:  19 23:07:21  -200.454308c -7.32  -4.07c
iter:  20 23:08:22  -200.454147c -7.58c -4.06c

Converged after 20 iterations.

Dipole moment: (26.596947, 11.267463, -0.026304) |e|*Ang

Energy contributions relative to reference atoms: (reference = -14172748.147892)

Kinetic:       -329.589856
Potential:     +182.321875
External:        +0.000000
XC:             -40.992800
Entropy (-ST):   -2.325153
Local:          -11.030789
--------------------------
Free energy:   -201.616723
Extrapolated:  -200.454147

Showing only first 2 kpts
 Kpt  Band  Eigenvalues  Occupancy
  0   361      0.64987    1.00786
  0   362      0.67510    0.88225
  0   363      0.70478    0.73944
  0   364      0.71893    0.67482

  1   361      0.52207    1.56955
  1   362      0.55699    1.44001
  1   363      0.59315    1.28346
  1   364      0.62033    1.15430


Fermi level: 0.65144

No gap

Forces in eV/Ang:
  0 Pd    0.01165   -0.01246   -0.25966
  1 Pt    0.30342   -0.52090    0.38344
  2 Pt   -0.34523   -0.14285    0.01480
  3 Pd   -0.41153    0.18271   -0.08351
  4 Pd    0.22044   -0.22094   -0.24431
  5 Pt    0.22331    0.31983   -0.19579
  6 Pd   -0.21724    0.22817   -0.10356
  7 Pt    0.54701    0.16495    0.07487
  8 Ru   -0.49135    0.05075    1.35299
  9 Pd   -0.22842    0.16055    0.20128
 10 Pt    0.29688    0.01315   -0.22138
 11 Pd    0.05642    0.05090   -0.09290
 12 Pd    0.08646    0.08884   -0.00849
 13 Pt   -0.17580   -0.17658    0.16398
 14 Ag    0.04578   -0.13467    0.02324
 15 Ag    0.01028   -0.06195   -0.11438
 16 Ag   -0.06587   -0.05358    0.07990
 17 Pt    0.02434    0.22683   -0.59553
 18 Pt   -0.01539    0.02990    0.03613
 19 Pt    0.03495    0.03624    0.03012
 20 Ru    0.02155    0.01917    0.07807
 21 Pt    0.00652   -0.01757    0.02326
 22 Pd   -0.00168   -0.04674    0.05850
 23 Pt    0.00570   -0.06344    0.10787
 24 Ag   -0.01302    0.00228    0.03998
 25 Pt   -0.00940   -0.00581   -0.00326
 26 Ag    0.06520    0.02743    0.06135
 27 Pt    0.02176    0.07616   -0.07192
 28 Pd    0.00824    0.05593   -0.00917
 29 Pd   -0.03757    0.06220   -0.03207
 30 Ir    0.01808   -0.02101    0.03708
 31 Pt   -0.04016   -0.04686    0.03273
 32 Pd    0.00784   -0.00469   -0.07618
 33 Pd   -0.02781   -0.05462   -0.02354
 34 Ag    0.04120   -0.03711   -0.09365
 35 Pt   -0.00040   -0.02118   -0.09457
 36 Pt   -0.16045    0.16814   -0.16407
 37 Pt    0.00896    0.02052    0.13265
 38 Pt    0.07553    0.03798   -0.14623
 39 Pt    0.04265    0.06172    0.02809
 40 Pd   -0.00280    0.03077    0.03486
 41 Pd    0.07774   -0.20277   -0.12550
 42 Pt    0.00097   -0.06921    0.01434
 43 Ag    0.00812   -0.03632    0.08464
 44 Pt    0.01776   -0.03555    0.07915
 45 H    -0.04615   -0.13191   -0.19512

System changes: positions 

Initializing position-dependent things.

Density initialized from wave functions
                                             
                                             
                                             
                                             
                                             
                                             
                 Pt     Ag     Pt            
                                             
            Pt    PPd    HPd    Pt           
       Pt    IPt    PPt    Pd                
                                             
        Pt     Pd    APd    Pt     Ag        
                                             
                Pt     Pd     Pt             
           Pt    APt    ARu    Pt            
                                             
            Pd    PPt    PAg    Ru           
                                             
       Pd    PPt    PPd    Pt                
        Pd     Pt     Pt                     
                                             
                                             
                                             
                                             
                                             

Positions:
   0 Pd     0.000000    1.639149   10.000000    ( 0.0000,  0.0000,  0.0000)
[...]
  17 Pt     8.517266    4.917446   12.317643    ( 0.0000,  0.0000,  0.0000)
  18 Pt     1.387252    0.796825   14.579438    ( 0.0000,  0.0000,  0.0000)
  19 Pt     4.340922    0.815650   14.614506    ( 0.0000,  0.0000,  0.0000)
  20 Ru     7.155298    0.905549   14.695637    ( 0.0000,  0.0000,  0.0000)
  21 Pt     2.845345    3.221540   14.660494    ( 0.0000,  0.0000,  0.0000)
  22 Pd     5.690353    3.243511   14.669696    ( 0.0000,  0.0000,  0.0000)
  23 Pt     8.533849    3.279813   14.643119    ( 0.0000,  0.0000,  0.0000)
  24 Ag     4.284369    5.721193   14.660553    ( 0.0000,  0.0000,  0.0000)
  25 Pt     7.164846    5.769526   14.620226    ( 0.0000,  0.0000,  0.0000)
  26 Ag    10.001126    5.745590   14.642092    ( 0.0000,  0.0000,  0.0000)
  27 Pt    -0.001630    1.658197   16.854795    ( 0.0000,  0.0000,  0.0000)
  28 Pd     2.859042    1.579285   16.881479    ( 0.0000,  0.0000,  0.0000)
  29 Pd     5.687658    1.621664   16.949977    ( 0.0000,  0.0000,  0.0000)
  30 Ir     1.446658    4.053396   16.948027    ( 0.0000,  0.0000,  0.0000)
  31 Pt     4.209291    4.034251   16.969743    ( 0.0000,  0.0000,  0.0000)
  32 Pd     7.080386    4.098659   16.933256    ( 0.0000,  0.0000,  0.0000)
  33 Pd     2.844137    6.601030   16.937836    ( 0.0000,  0.0000,  0.0000)
  34 Ag     5.670056    6.510723   16.995906    ( 0.0000,  0.0000,  0.0000)
  35 Pt     8.534316    6.523883   16.944846    ( 0.0000,  0.0000,  0.0000)
  36 Pt     0.027795    0.050672   19.308232    ( 0.0000,  0.0000,  0.0000)
  37 Pt     2.856996    0.036775   19.263258    ( 0.0000,  0.0000,  0.0000)
  38 Pt     5.639088   -0.013142   19.301239    ( 0.0000,  0.0000,  0.0000)
  39 Pt     1.414626    2.437551   19.141994    ( 0.0000,  0.0000,  0.0000)
  40 Pd     4.225979    2.450733   19.265668    ( 0.0000,  0.0000,  0.0000)
  41 Pd     7.122466    2.488512   19.270575    ( 0.0000,  0.0000,  0.0000)
  42 Pt     2.792613    4.946134   19.158424    ( 0.0000,  0.0000,  0.0000)
  43 Ag     5.668831    4.932483   19.466677    ( 0.0000,  0.0000,  0.0000)
  44 Pt     8.560512    4.934573   19.186458    ( 0.0000,  0.0000,  0.0000)
  45 H      7.042516    0.645616   20.149058    ( 0.0000,  0.0000,  0.0000)

Unit cell:
           periodic     x           y           z      points  spacing
  1. axis:    yes    8.517266    0.000000    0.000000    40     0.1844
  2. axis:    yes    4.258633    7.376169    0.000000    40     0.1844
  3. axis:    no     0.000000    0.000000   29.270571   140     0.2091

  Lengths:   8.517266   8.517266  29.270571
  Angles:   90.000000  90.000000  60.000000

Effective grid spacing dv^(1/3) = 0.2017

     iter     time        total  log10-change:
                         energy  eigst   dens
iter:   1 23:55:01  -203.999653  -3.85
iter:   2 23:56:00  -277.810013  -2.42  -1.96
iter:   3 23:56:59  -206.212475  -2.81  -1.33
iter:   4 23:57:59  -201.198229  -3.76  -1.92
iter:   5 23:58:58  -200.555006  -4.58  -2.31
iter:   6 23:59:58  -200.510055  -5.13  -2.93
iter:   7 00:00:57  -200.505302c -5.49  -3.24
iter:   8 00:01:56  -200.494909c -5.78  -3.19
iter:   9 00:02:56  -200.494040c -6.15  -3.44
iter:  10 00:03:55  -200.492958c -6.37  -3.60
iter:  11 00:04:54  -200.492743c -6.41  -3.73
iter:  12 00:05:53  -200.491730c -6.79  -3.62
iter:  13 00:06:53  -200.492238c -6.97  -3.92
iter:  14 00:07:52  -200.491424c -7.36  -3.75
iter:  15 00:08:51  -200.491398c -7.40  -3.81
iter:  16 00:09:50  -200.491403c -7.71c -4.14c

Converged after 16 iterations.

Dipole moment: (26.365407, 10.398595, -0.013708) |e|*Ang

Energy contributions relative to reference atoms: (reference = -14172748.147892)

Kinetic:       -323.102253
Potential:     +176.646937
External:        +0.000000
XC:             -41.859235
Entropy (-ST):   -2.324776
Local:          -11.014465
--------------------------
Free energy:   -201.653791
Extrapolated:  -200.491403

Showing only first 2 kpts
 Kpt  Band  Eigenvalues  Occupancy
  0   361      0.65791    1.00796
  0   362      0.68271    0.88448
  0   363      0.71491    0.72982
  0   364      0.72754    0.67236

  1   361      0.52971    1.57097
  1   362      0.56230    1.45103
  1   363      0.60202    1.27975
  1   364      0.63047    1.14418


Fermi level: 0.65950

No gap

Forces in eV/Ang:
  0 Pd    0.01097   -0.01146   -0.24740
  1 Pt    0.30345   -0.52217    0.39257
  2 Pt   -0.34593   -0.14167    0.02430
  3 Pd   -0.41212    0.18276   -0.07004
  4 Pd    0.22136   -0.22145   -0.23633
  5 Pt    0.22171    0.31830   -0.18532
  6 Pd   -0.21808    0.22864   -0.09028
  7 Pt    0.54559    0.16356    0.08415
  8 Ru   -0.49219    0.05605    1.35803
  9 Pd   -0.22284    0.15498    0.22050
 10 Pt    0.30384    0.02212   -0.20171
 11 Pd    0.05603    0.03846   -0.09118
 12 Pd    0.08171    0.08623   -0.00497
 13 Pt   -0.16934   -0.18385    0.16432
 14 Ag    0.05541   -0.13985    0.05627
 15 Ag    0.01003   -0.05402   -0.09983
 16 Ag   -0.07610   -0.05874    0.10178
 17 Pt    0.04452    0.22579   -0.55800
 18 Pt    0.02764    0.00570   -0.01597
 19 Pt   -0.02288   -0.01119   -0.00900
 20 Ru   -0.01441    0.01569   -0.01606
 21 Pt    0.00463   -0.00527    0.02234
 22 Pd   -0.00902    0.02637   -0.00131
 23 Pt    0.01329    0.03398   -0.00471
 24 Ag    0.01840   -0.02707   -0.03116
 25 Pt    0.01000   -0.01090   -0.06268
 26 Ag   -0.01550   -0.02636   -0.02630
 27 Pt    0.01917    0.00215   -0.00528
 28 Pd    0.00006    0.01137    0.06441
 29 Pd   -0.02911    0.01612   -0.08054
 30 Ir   -0.00840    0.02795    0.03935
 31 Pt   -0.00501   -0.00514    0.01270
 32 Pd    0.02387   -0.05781    0.00308
 33 Pd   -0.00764   -0.04160   -0.08602
 34 Ag    0.00368    0.01706   -0.00796
 35 Pt    0.05855    0.01199    0.04455
 36 Pt    0.01289    0.02523   -0.00989
 37 Pt    0.00804    0.02940   -0.04845
 38 Pt   -0.11902   -0.03484   -0.07024
 39 Pt    0.02014    0.00110    0.03299
 40 Pd    0.02112   -0.04149    0.01516
 41 Pd    0.01325   -0.06363    0.00819
 42 Pt   -0.03576   -0.00888   -0.01563
 43 Ag    0.01925   -0.00492   -0.00082
 44 Pt    0.01654   -0.00519   -0.03677
 45 H     0.02692   -0.02592   -0.00332

System changes: positions 

Initializing position-dependent things.

Density initialized from wave functions
                                             
                                             
                                             
                                             
                                             
                                             
                 Pt     Ag     Pt            
                                             
            Pt    PPd    HPd    Pt           
       Pt    IPt    PPt    Pd                
                                             
        Pt     Pd    APd    Pt     Ag        
                                             
                Pt     Pd     Pt             
           Pt    APt    ARu    Pt            
                                             
            Pd    PPt    PAg    Ru           
       Pd     Pt     Pd                      
             Pd     Pd     Pt                
        Pd     Pt     Pt                     
                                             
                                             
                                             
                                             
                                             

Positions:
   0 Pd     0.000000    1.639149   10.000000    ( 0.0000,  0.0000,  0.0000)
   1 Pt     2.839089    1.639149   10.000000    ( 0.0000,  0.0000,  0.0000)
   2 Pt     5.678177    1.639149   10.000000    ( 0.0000,  0.0000,  0.0000)
   3 Pd     1.419544    4.097872   10.000000    ( 0.0000,  0.0000,  0.0000)
   4 Pd     4.258633    4.097872   10.000000    ( 0.0000,  0.0000,  0.0000)
   5 Pt     7.097722    4.097872   10.000000    ( 0.0000,  0.0000,  0.0000)
   6 Pd     2.839089    6.556595   10.000000    ( 0.0000,  0.0000,  0.0000)
   7 Pt     5.678177    6.556595   10.000000    ( 0.0000,  0.0000,  0.0000)
   8 Ru     8.517266    6.556595   10.000000    ( 0.0000,  0.0000,  0.0000)
   9 Pd     0.000000    0.000000   12.317643    ( 0.0000,  0.0000,  0.0000)
  10 Pt     2.839089    0.000000   12.317643    ( 0.0000,  0.0000,  0.0000)
  11 Pd     5.678177    0.000000   12.317643    ( 0.0000,  0.0000,  0.0000)
  12 Pd     1.419544    2.458723   12.317643    ( 0.0000,  0.0000,  0.0000)
  13 Pt     4.258633    2.458723   12.317643    ( 0.0000,  0.0000,  0.0000)
  14 Ag     7.097722    2.458723   12.317643    ( 0.0000,  0.0000,  0.0000)
  15 Ag     2.839089    4.917446   12.317643    ( 0.0000,  0.0000,  0.0000)
  16 Ag     5.678177    4.917446   12.317643    ( 0.0000,  0.0000,  0.0000)
  17 Pt     8.517266    4.917446   12.317643    ( 0.0000,  0.0000,  0.0000)
  18 Pt     1.388040    0.796897   14.578718    ( 0.0000,  0.0000,  0.0000)
  19 Pt     4.342055    0.815710   14.614156    ( 0.0000,  0.0000,  0.0000)
  20 Ru     7.155452    0.905932   14.696850    ( 0.0000,  0.0000,  0.0000)
  21 Pt     2.846007    3.221165   14.660303    ( 0.0000,  0.0000,  0.0000)
  22 Pd     5.690032    3.243521   14.670061    ( 0.0000,  0.0000,  0.0000)
  23 Pt     8.535432    3.280694   14.643514    ( 0.0000,  0.0000,  0.0000)
  24 Ag     4.285014    5.720040   14.660765    ( 0.0000,  0.0000,  0.0000)
  25 Pt     7.165731    5.768933   14.616071    ( 0.0000,  0.0000,  0.0000)
  26 Ag    10.002852    5.745194   14.642244    ( 0.0000,  0.0000,  0.0000)
  27 Pt     0.000308    1.659105   16.853064    ( 0.0000,  0.0000,  0.0000)
  28 Pd     2.859422    1.579009   16.883288    ( 0.0000,  0.0000,  0.0000)
  29 Pd     5.686190    1.623139   16.947369    ( 0.0000,  0.0000,  0.0000)
  30 Ir     1.447245    4.054181   16.949574    ( 0.0000,  0.0000,  0.0000)
  31 Pt     4.208970    4.033745   16.970615    ( 0.0000,  0.0000,  0.0000)
  32 Pd     7.080692    4.098447   16.931587    ( 0.0000,  0.0000,  0.0000)
  33 Pd     2.843933    6.598994   16.935543    ( 0.0000,  0.0000,  0.0000)
  34 Ag     5.672491    6.509759   16.993023    ( 0.0000,  0.0000,  0.0000)
  35 Pt     8.534081    6.523079   16.942516    ( 0.0000,  0.0000,  0.0000)
  36 Pt     0.028164    0.053650   19.294120    ( 0.0000,  0.0000,  0.0000)
  37 Pt     2.857723    0.037231   19.263679    ( 0.0000,  0.0000,  0.0000)
  38 Pt     5.633871   -0.015257   19.286994    ( 0.0000,  0.0000,  0.0000)
  39 Pt     1.416733    2.439081   19.142873    ( 0.0000,  0.0000,  0.0000)
  40 Pd     4.227138    2.450641   19.266778    ( 0.0000,  0.0000,  0.0000)
  41 Pd     7.124542    2.484228   19.262752    ( 0.0000,  0.0000,  0.0000)
  42 Pt     2.792629    4.944076   19.158385    ( 0.0000,  0.0000,  0.0000)
  43 Ag     5.669950    4.931880   19.469688    ( 0.0000,  0.0000,  0.0000)
  44 Pt     8.560046    4.935037   19.185530    ( 0.0000,  0.0000,  0.0000)
  45 H      7.040415    0.636672   20.150216    ( 0.0000,  0.0000,  0.0000)

Unit cell:
           periodic     x           y           z      points  spacing
  1. axis:    yes    8.517266    0.000000    0.000000    40     0.1844
  2. axis:    yes    4.258633    7.376169    0.000000    40     0.1844
  3. axis:    no     0.000000    0.000000   29.270571   140     0.2091

  Lengths:   8.517266   8.517266  29.270571
  Angles:   90.000000  90.000000  60.000000

Effective grid spacing dv^(1/3) = 0.2017

     iter     time        total  log10-change:
                         energy  eigst   dens
iter:   1 00:11:09  -201.841587  -4.16
iter:   2 00:12:08  -239.922012  -2.82  -2.14
iter:   3 00:13:07  -202.464909  -3.12  -1.49
iter:   4 00:14:06  -200.678558  -4.17  -2.12
iter:   5 00:15:05  -200.524821  -5.06  -2.60
iter:   6 00:16:05  -200.500775c -5.51  -3.03
iter:   7 00:17:04  -200.500204c -5.94  -3.46
iter:   8 00:18:03  -200.496733c -6.17  -3.43
iter:   9 00:19:02  -200.496106c -6.46  -3.65
iter:  10 00:20:01  -200.495408c -6.66  -3.79
iter:  11 00:21:00  -200.495435c -6.89  -3.96
iter:  12 00:21:59  -200.495303c -7.28  -3.79
iter:  13 00:22:58  -200.494695c -7.37  -3.96
iter:  14 00:23:57  -200.495200c -7.69c -4.12c

Converged after 14 iterations.

Dipole moment: (26.336218, 10.276255, -0.013608) |e|*Ang

Energy contributions relative to reference atoms: (reference = -14172748.147892)

Kinetic:       -323.223585
Potential:     +176.822743
External:        +0.000000
XC:             -41.916286
Entropy (-ST):   -2.324425
Local:          -11.015861
--------------------------
Free energy:   -201.657413
Extrapolated:  -200.495200

Showing only first 2 kpts
 Kpt  Band  Eigenvalues  Occupancy
  0   361      0.65877    1.00842
  0   362      0.68339    0.88581
  0   363      0.71614    0.72858
  0   364      0.72825    0.67346

  1   361      0.53074    1.57072
  1   362      0.56269    1.45330
  1   363      0.60276    1.28076
  1   364      0.63164    1.14310


Fermi level: 0.66046

No gap

Forces in eV/Ang:
  0 Pd    0.01152   -0.01189   -0.24108
  1 Pt    0.30374   -0.52447    0.40096
  2 Pt   -0.34696   -0.14186    0.03313
  3 Pd   -0.41389    0.18230   -0.06608
  4 Pd    0.22281   -0.22354   -0.23191
  5 Pt    0.22212    0.31796   -0.18015
  6 Pd   -0.21777    0.23057   -0.08599
  7 Pt    0.54678    0.16560    0.08884
  8 Ru   -0.49317    0.05890    1.36255
  9 Pd   -0.22305    0.15603    0.21755
 10 Pt    0.30505    0.02766   -0.21509
 11 Pd    0.05711    0.03873   -0.09623
 12 Pd    0.08203    0.08607   -0.01019
 13 Pt   -0.16809   -0.18623    0.15706
 14 Ag    0.05612   -0.14118    0.05866
 15 Ag    0.01042   -0.05395   -0.10356
 16 Ag   -0.07916   -0.06159    0.09180
 17 Pt    0.05011    0.22303   -0.57180
 18 Pt    0.02211    0.00336   -0.00887
 19 Pt   -0.02982   -0.01516   -0.00704
 20 Ru   -0.00990    0.01303   -0.03118
 21 Pt    0.00335   -0.00965    0.02811
 22 Pd   -0.00104    0.02514   -0.00755
 23 Pt    0.00576    0.02394   -0.00888
 24 Ag    0.01963   -0.01758   -0.03393
 25 Pt    0.00882   -0.00571   -0.02647
 26 Ag   -0.02342   -0.02353   -0.03212
 27 Pt    0.00914   -0.01089   -0.00443
 28 Pd   -0.00114    0.01090    0.03949
 29 Pd   -0.00915    0.00542   -0.06995
 30 Ir   -0.01206    0.02242    0.01987
 31 Pt    0.00732    0.00345    0.01224
 32 Pd    0.01845   -0.04907    0.00603
 33 Pd    0.00785   -0.02005   -0.07766
 34 Ag    0.00020    0.00995   -0.00722
 35 Pt    0.04316    0.00975    0.02243
 36 Pt   -0.00620    0.00333    0.07575
 37 Pt   -0.01268    0.01677   -0.03677
 38 Pt   -0.03009    0.00474    0.03538
 39 Pt    0.00608   -0.00705    0.04645
 40 Pd    0.02661   -0.03058    0.02829
 41 Pd   -0.00703   -0.02504    0.05023
 42 Pt   -0.02161    0.00546    0.00420
 43 Ag    0.01514   -0.00281   -0.00209
 44 Pt   -0.00116   -0.02229   -0.01202
 45 H     0.01578   -0.04547   -0.05368

Timing:                                      incl.     excl.
-------------------------------------------------------------------
Density initialized from wave functions:    36.627    36.626   0.2% |
 Symmetrize density:                         0.001     0.001   0.0% |
Forces:                                    171.797   171.797   1.2% |
Hamiltonian:                                19.641     0.114   0.0% |
 Atomic:                                     1.187     0.192   0.0% |
  XC Correction:                             0.995     0.995   0.0% |
 Calculate atomic Hamiltonians:             12.186    12.186   0.1% |
 Communicate:                                2.534     2.534   0.0% |
 Initialize Hamiltonian:                     0.000     0.000   0.0% |
 Poisson:                                    0.078     0.078   0.0% |
 XC 3D grid:                                 3.542     3.542   0.0% |
LCAO initialization:                       125.092     2.394   0.0% |
 LCAO eigensolver:                          13.831     0.001   0.0% |
  Blacs Orbital Layouts:                     0.333     0.000   0.0% |
   General diagonalize:                      0.327     0.327   0.0% |
   Redistribute coefs:                       0.003     0.003   0.0% |
   Send coefs to domains:                    0.002     0.002   0.0% |
  Calculate projections:                     0.004     0.004   0.0% |
  Distribute overlap matrix:                12.715     0.000   0.0% |
   Scalapack redistribute:                   0.009     0.009   0.0% |
   blocked summation:                       12.706    12.706   0.1% |
  Potential matrix:                          0.738     0.738   0.0% |
  SparseAtomicCorrection:                    0.004     0.004   0.0% |
  Sum over cells:                            0.034     0.034   0.0% |
 LCAO to grid:                             105.401   105.401   0.7% |
 Set positions (LCAO WFS):                   3.466     0.007   0.0% |
  Basic WFS set positions:                   0.002     0.002   0.0% |
  Basis functions set positions:             0.000     0.000   0.0% |
  P tci:                                     0.000     0.000   0.0% |
  ST tci:                                    0.282     0.282   0.0% |
  Scalapack redistribute:                    0.007     0.007   0.0% |
  blocked summation:                         3.054     3.054   0.0% |
  mktci:                                     0.113     0.113   0.0% |
PWDescriptor:                                0.551     0.551   0.0% |
Redistribute:                                0.013     0.013   0.0% |
SCF-cycle:                               14290.654    91.505   0.6% |
 Davidson:                               13191.682  2924.009  19.9% |-------|
  Apply H:                                1470.098  1443.027   9.8% |---|
   HMM T:                                   27.071    27.071   0.2% |
  Subspace diag:                          1554.774     0.051   0.0% |
   calc_h_matrix:                         1035.850   282.572   1.9% ||
    Apply H:                               753.278   738.405   5.0% |-|
     HMM T:                                 14.873    14.873   0.1% |
   diagonalize:                             52.858    52.858   0.4% |
   rotate_psi:                             466.016   466.016   3.2% ||
  calc. matrices:                         5095.320  2946.558  20.0% |-------|
   Apply H:                               2148.762  2108.161  14.3% |-----|
    HMM T:                                  40.601    40.601   0.3% |
  diagonalize:                             719.035   719.035   4.9% |-|
  rotate_psi:                             1428.445  1428.445   9.7% |---|
 Density:                                  633.720     0.010   0.0% |
  Atomic density matrices:                   4.321     4.321   0.0% |
  Mix:                                     227.432   227.432   1.5% ||
  Multipole moments:                         0.409     0.409   0.0% |
  Pseudo density:                          401.548   401.537   2.7% ||
   Symmetrize density:                       0.011     0.011   0.0% |
 Hamiltonian:                              322.704     1.883   0.0% |
  Atomic:                                   21.058     4.870   0.0% |
   XC Correction:                           16.188    16.188   0.1% |
  Calculate atomic Hamiltonians:           202.430   202.430   1.4% ||
  Communicate:                              40.119    40.119   0.3% |
  Poisson:                                   1.227     1.227   0.0% |
  XC 3D grid:                               55.985    55.985   0.4% |
 Orthonormalize:                            51.042     0.005   0.0% |
  calc_s_matrix:                             8.222     8.222   0.1% |
  inverse-cholesky:                          2.554     2.554   0.0% |
  projections:                              26.411    26.411   0.2% |
  rotate_psi_s:                             13.849    13.849   0.1% |
Set symmetry:                                0.002     0.002   0.0% |
Other:                                      62.925    62.925   0.4% |
-------------------------------------------------------------------
Total:                                             14707.302 100.0%

Memory usage: 848.54 MiB
Date: Fri Jun 14 00:24:10 2024
