
  ___ ___ ___ _ _ _  
 |   |   |_  | | | | 
 | | | | | . | | | | 
 |__ |  _|___|_____|  22.1.0
 |___|_|             

User:   clausen@node436.cluster
Date:   Fri Jun 14 12:15:30 2024
Arch:   x86_64
Pid:    85680
Python: 3.10.4
gpaw:   /groups/kemi/clausen/miniconda3/envs/gpaw22/lib/python3.10/site-packages/gpaw
_gpaw:  /groups/kemi/clausen/miniconda3/envs/gpaw22/lib/python3.10/site-packages/
        _gpaw.cpython-310-x86_64-linux-gnu.so
ase:    /groups/kemi/clausen/miniconda3/envs/gpaw22/lib/python3.10/site-packages/ase (version 3.22.1)
numpy:  /groups/kemi/clausen/miniconda3/envs/gpaw22/lib/python3.10/site-packages/numpy (version 1.23.1)
scipy:  /groups/kemi/clausen/miniconda3/envs/gpaw22/lib/python3.10/site-packages/scipy (version 1.8.1)
libxc:  5.2.3
units:  Angstrom and eV
cores: 24
OpenMP: True
OMP_NUM_THREADS: 1

Input parameters:
  eigensolver: {name: dav,
                niter: 3}
  kpts: [4 4 1]
  mode: {ecut: 400.0,
         name: pw}
  xc: RPBE

System changes: positions, numbers, cell, pbc, initial_charges, initial_magmoms 

Initialize ...

Pd-setup:
  name: Palladium
  id: 6da19bfba079f22767af9506641940b9
  Z: 46.0
  valence: 16
  core: 30
  charge: 0.0
  file: /groups/kemi/clausen/miniconda3/envs/gpaw22/share/gpaw/Pd.RPBE.gz
  compensation charges: gauss, rc=0.38, lmax=2
  cutoffs: 2.38(filt), 2.28(core),
  valence states:
                energy  radius
    5s(0.00)    -3.225   1.228
    4p(6.00)   -51.131   1.360
    5p(0.00)    -0.373   1.360
    4d(10.00)    -3.964   1.228
    *s          23.987   1.228
    *d          23.247   1.228

  Using partial waves for Pd as LCAO basis

Pt-setup:
  name: Platinum
  id: f04f522592575c47ad794f6b4a415b4b
  Z: 78.0
  valence: 16
  core: 62
  charge: 0.0
  file: /groups/kemi/clausen/miniconda3/envs/gpaw22/share/gpaw/Pt.RPBE.gz
  compensation charges: gauss, rc=0.41, lmax=2
  cutoffs: 2.26(filt), 2.26(core),
  valence states:
                energy  radius
    6s(1.00)    -5.516   1.307
    5p(6.00)   -55.971   1.371
    6p(0.00)    -0.856   1.371
    5d(9.00)    -6.087   1.307
    *s          21.695   1.307
    *d          21.125   1.307

  Using partial waves for Pt as LCAO basis

Ru-setup:
  name: Ruthenium
  id: 76477906e28f51dc1b29884d53556fe9
  Z: 44.0
  valence: 16
  core: 28
  charge: 0.0
  file: /groups/kemi/clausen/miniconda3/envs/gpaw22/share/gpaw/Ru.RPBE.gz
  compensation charges: gauss, rc=0.39, lmax=2
  cutoffs: 2.16(filt), 1.30(core),
  valence states:
                energy  radius
    4s(2.00)   -76.255   1.281
    5s(1.00)    -4.126   1.281
    4p(6.00)   -46.371   1.286
    5p(0.00)    -0.913   1.286
    4d(7.00)    -5.146   1.254
    *d          22.066   1.254

  Using partial waves for Ru as LCAO basis

Ag-setup:
  name: Silver
  id: c05e55bab2c3858b3f9398f6d75cb77c
  Z: 47.0
  valence: 17
  core: 30
  charge: 0.0
  file: /groups/kemi/clausen/miniconda3/envs/gpaw22/share/gpaw/Ag.RPBE.gz
  compensation charges: gauss, rc=0.40, lmax=2
  cutoffs: 2.35(filt), 2.19(core),
  valence states:
                energy  radius
    5s(1.00)    -4.277   1.286
    4p(6.00)   -58.523   1.328
    5p(0.00)    -0.755   1.328
    4d(10.00)    -7.386   1.180
    *s          22.934   1.286
    *d          19.826   1.180

  Using partial waves for Ag as LCAO basis

Ir-setup:
  name: Iridium
  id: 73b603359d1d5397a85ae3c2440f9033
  Z: 77.0
  valence: 15
  core: 62
  charge: 0.0
  file: /groups/kemi/clausen/miniconda3/envs/gpaw22/share/gpaw/Ir.RPBE.gz
  compensation charges: gauss, rc=0.40, lmax=2
  cutoffs: 2.40(filt), 2.36(core),
  valence states:
                energy  radius
    6s(2.00)    -6.219   1.296
    5p(6.00)   -54.684   1.328
    6p(0.00)    -1.215   1.328
    5d(7.00)    -7.118   1.286
    *s          20.992   1.296
    *d          20.093   1.286

  Using partial waves for Ir as LCAO basis

O-setup:
  name: Oxygen
  id: 08071ca1eed670e7821b24b7eb4d558c
  Z: 8.0
  valence: 6
  core: 2
  charge: 0.0
  file: /groups/kemi/clausen/miniconda3/envs/gpaw22/share/gpaw/O.RPBE.gz
  compensation charges: gauss, rc=0.21, lmax=2
  cutoffs: 1.17(filt), 0.83(core),
  valence states:
                energy  radius
    2s(2.00)   -24.041   0.688
    2p(4.00)    -8.984   0.598
    *s           3.170   0.688
    *p          18.228   0.598
    *d           0.000   0.619

  Using partial waves for O as LCAO basis

Reference energy: -14174778.458134

Spin-paired calculation

Convergence criteria:
 Maximum [total energy] change in last 3 cyles: 0.0005 eV / electron
 Maximum integral of absolute [dens]ity change: 0.0001 electrons / valence electron
 Maximum integral of absolute [eigenst]ate change: 4e-08 eV^2 / valence electron
 Maximum number of scf [iter]ations: 333
 (Square brackets indicate name in SCF output, whereas a 'c' in
 the SCF output indicates the quantity has converged.)

Symmetries present (total): 1

  ( 1  0  0)
  ( 0  1  0)
  ( 0  0  1)

16 k-points: 4 x 4 x 1 Monkhorst-Pack grid
8 k-points in the irreducible part of the Brillouin zone
       k-points in crystal coordinates                weights
   0:     0.12500000   -0.37500000    0.00000000          2/16
   1:     0.12500000   -0.12500000    0.00000000          2/16
   2:     0.12500000    0.12500000    0.00000000          2/16
   3:     0.12500000    0.37500000    0.00000000          2/16
   4:     0.37500000   -0.37500000    0.00000000          2/16
   5:     0.37500000   -0.12500000    0.00000000          2/16
   6:     0.37500000    0.12500000    0.00000000          2/16
   7:     0.37500000    0.37500000    0.00000000          2/16

Wave functions: Plane wave expansion
  Cutoff energy: 400.000 eV
  Number of coefficients (min, max): 33332, 33436
  Pulay-stress correction: 0.000000 eV/Ang^3 (de/decut=0.000000)
  Using FFTW library
  ScaLapack parameters: grid=3x1, blocksize=64
  Wavefunction extrapolation:
    Improved wavefunction reuse through dual PAW basis 

Occupation numbers: Fermi-Dirac: width=0.1000 eV
 

Eigensolver
   Davidson(niter=3) 

Densities:
  Coarse grid: 40*40*140 grid
  Fine grid: 80*80*280 grid
  Total Charge: 0.000000 

Density mixing:
  Method: separate
  Backend: pulay
  Linear mixing parameter: 0.05
  Mixing with 5 old densities
  Damping of long wave oscillations: 50 

Hamiltonian:
  XC and Coulomb potentials evaluated on a 80*80*280 grid
  Using the RPBE Exchange-Correlation functional
  External potential:
    NoExternalPotential
 

XC parameters: RPBE with 2 nearest neighbor stencil

Memory estimate:
  Process memory now: 192.51 MiB
  Calculator: 558.14 MiB
    Density: 47.45 MiB
      Arrays: 14.92 MiB
      Localized functions: 26.79 MiB
      Mixer: 5.74 MiB
    Hamiltonian: 10.59 MiB
      Arrays: 9.75 MiB
      XC: 0.00 MiB
      Poisson: 0.00 MiB
      vbar: 0.84 MiB
    Wavefunctions: 500.10 MiB
      Arrays psit_nG: 226.53 MiB
      Eigensolver: 259.17 MiB
      Projections: 1.86 MiB
      Projectors: 3.74 MiB
      PW-descriptor: 8.80 MiB

Total number of cores used: 24
Parallelization over k-points: 8
Domain decomposition: 1 x 1 x 3
                      2 x 2 x 6 (xc only)

Number of atoms: 46
Number of atomic orbitals: 546
Number of bands in calculation: 444
Number of valence electrons: 732
Bands to converge: occupied

... initialized

Initializing position-dependent things.

Density initialized from atomic densities
Creating initial wave functions:
  444 bands from LCAO basis set

                                             
                                             
                                             
                                             
                                             
                                             
                        Ag                   
                 Pt            Pt            
            Pt    OPd    APd    Pt           
                                             
       Pt    IPt    PPt    Pd                
                                             
        Pt     Pd    APd    Pt     Ag        
                Pt     Pd     Pt             
                                             
           Pt    APt    ARu    Pt            
                                             
            Pd    PPt    PAg    Ru           
       Pd     Pt     Pd                      
             Pd     Pd     Pt                
        Pd     Pt     Pt                     
                                             
                                             
                                             
                                             
                                             

Positions:
   0 Pd     0.000000    1.639149   10.000000    ( 0.0000,  0.0000,  0.0000)
   1 Pt     2.839089    1.639149   10.000000    ( 0.0000,  0.0000,  0.0000)
   2 Pt     5.678177    1.639149   10.000000    ( 0.0000,  0.0000,  0.0000)
   3 Pd     1.419544    4.097872   10.000000    ( 0.0000,  0.0000,  0.0000)
   4 Pd     4.258633    4.097872   10.000000    ( 0.0000,  0.0000,  0.0000)
   5 Pt     7.097722    4.097872   10.000000    ( 0.0000,  0.0000,  0.0000)
   6 Pd     2.839089    6.556595   10.000000    ( 0.0000,  0.0000,  0.0000)
   7 Pt     5.678177    6.556595   10.000000    ( 0.0000,  0.0000,  0.0000)
   8 Ru     8.517266    6.556595   10.000000    ( 0.0000,  0.0000,  0.0000)
   9 Pd     0.000000    0.000000   12.317643    ( 0.0000,  0.0000,  0.0000)
  10 Pt     2.839089    0.000000   12.317643    ( 0.0000,  0.0000,  0.0000)
  11 Pd     5.678177    0.000000   12.317643    ( 0.0000,  0.0000,  0.0000)
  12 Pd     1.419544    2.458723   12.317643    ( 0.0000,  0.0000,  0.0000)
  13 Pt     4.258633    2.458723   12.317643    ( 0.0000,  0.0000,  0.0000)
  14 Ag     7.097722    2.458723   12.317643    ( 0.0000,  0.0000,  0.0000)
  15 Ag     2.839089    4.917446   12.317643    ( 0.0000,  0.0000,  0.0000)
  16 Ag     5.678177    4.917446   12.317643    ( 0.0000,  0.0000,  0.0000)
  17 Pt     8.517266    4.917446   12.317643    ( 0.0000,  0.0000,  0.0000)
  18 Pt     1.382601    0.802015   14.574458    ( 0.0000,  0.0000,  0.0000)
  19 Pt     4.320375    0.816336   14.613039    ( 0.0000,  0.0000,  0.0000)
  20 Ru     7.144265    0.918131   14.702206    ( 0.0000,  0.0000,  0.0000)
  21 Pt     2.831254    3.224549   14.674209    ( 0.0000,  0.0000,  0.0000)
  22 Pd     5.669505    3.253449   14.666412    ( 0.0000,  0.0000,  0.0000)
  23 Pt     8.531860    3.282380   14.648110    ( 0.0000,  0.0000,  0.0000)
  24 Ag     4.274318    5.722991   14.646070    ( 0.0000,  0.0000,  0.0000)
  25 Pt     7.164045    5.771726   14.621475    ( 0.0000,  0.0000,  0.0000)
  26 Ag     9.986908    5.738787   14.643456    ( 0.0000,  0.0000,  0.0000)
  27 Pt    -0.010030    1.649760   16.860047    ( 0.0000,  0.0000,  0.0000)
  28 Pd     2.846447    1.596866   16.907942    ( 0.0000,  0.0000,  0.0000)
  29 Pd     5.675289    1.629573   16.927321    ( 0.0000,  0.0000,  0.0000)
  30 Ir     1.434330    4.054121   16.976739    ( 0.0000,  0.0000,  0.0000)
  31 Pt     4.206017    4.046333   16.977057    ( 0.0000,  0.0000,  0.0000)
  32 Pd     7.080668    4.096815   16.929692    ( 0.0000,  0.0000,  0.0000)
  33 Pd     2.838049    6.583929   16.905471    ( 0.0000,  0.0000,  0.0000)
  34 Ag     5.672922    6.523405   16.970942    ( 0.0000,  0.0000,  0.0000)
  35 Pt     8.525101    6.536969   16.950374    ( 0.0000,  0.0000,  0.0000)
  36 Pt    -0.017716    0.053004   19.239954    ( 0.0000,  0.0000,  0.0000)
  37 Pt     2.857597    0.044181   19.266473    ( 0.0000,  0.0000,  0.0000)
  38 Pt     5.659519   -0.012970   19.233800    ( 0.0000,  0.0000,  0.0000)
  39 Pt     1.394642    2.415452   19.172426    ( 0.0000,  0.0000,  0.0000)
  40 Pd     4.249890    2.430035   19.273035    ( 0.0000,  0.0000,  0.0000)
  41 Pd     7.120027    2.427105   19.248801    ( 0.0000,  0.0000,  0.0000)
  42 Pt     2.796750    4.960022   19.159701    ( 0.0000,  0.0000,  0.0000)
  43 Ag     5.679377    4.925181   19.423236    ( 0.0000,  0.0000,  0.0000)
  44 Pt     8.558870    4.929592   19.192007    ( 0.0000,  0.0000,  0.0000)
  45 O      4.255668    0.820415   20.723236    ( 0.0000,  0.0000,  0.0000)

Unit cell:
           periodic     x           y           z      points  spacing
  1. axis:    yes    8.517266    0.000000    0.000000    40     0.1844
  2. axis:    yes    4.258633    7.376169    0.000000    40     0.1844
  3. axis:    no     0.000000    0.000000   29.270571   140     0.2091

  Lengths:   8.517266   8.517266  29.270571
  Angles:   90.000000  90.000000  60.000000

Effective grid spacing dv^(1/3) = 0.2017

     iter     time        total  log10-change:
                         energy  eigst   dens
iter:   1 12:18:47  -256.583110
iter:   2 12:19:45  -223.253774  -1.65  -1.20
iter:   3 12:20:44  -294.019292  -1.99  -1.36
iter:   4 12:21:43  -214.704175  -2.28  -1.18
iter:   5 12:22:43  -207.336687  -2.53  -1.44
iter:   6 12:23:42  -204.562032  -3.13  -1.57
iter:   7 12:24:42  -202.119754  -2.82  -1.64
iter:   8 12:25:42  -205.380573  -2.64  -1.79
iter:   9 12:26:41  -201.717483  -3.20  -1.82
iter:  10 12:27:39  -201.316988  -3.79  -2.01
iter:  11 12:28:38  -200.968546  -3.84  -2.08
iter:  12 12:29:37  -200.937751  -4.14  -2.19
iter:  13 12:30:36  -200.807514c -3.82  -2.23
iter:  14 12:31:35  -200.749306c -4.29  -2.34
iter:  15 12:32:34  -200.793079c -4.20  -2.41
iter:  16 12:33:34  -200.635247c -4.62  -2.39
iter:  17 12:34:35  -200.612602c -4.66  -2.53
iter:  18 12:35:36  -200.547855c -4.70  -2.57
iter:  19 12:36:37  -200.539113c -5.00  -2.71
iter:  20 12:37:39  -200.572932c -4.59  -2.73
iter:  21 12:38:40  -200.519992c -5.30  -2.68
iter:  22 12:39:41  -200.502571c -4.78  -2.94
iter:  23 12:40:41  -200.496286c -5.73  -3.05
iter:  24 12:41:41  -200.498136c -6.08  -3.28
iter:  25 12:42:41  -200.497222c -6.21  -3.35
iter:  26 12:43:41  -200.495881c -6.64  -3.34
iter:  27 12:44:41  -200.497343c -6.04  -3.50
iter:  28 12:45:41  -200.495683c -6.50  -3.59
iter:  29 12:46:41  -200.496728c -6.60  -3.62
iter:  30 12:47:41  -200.499131c -6.65  -3.70
iter:  31 12:48:41  -200.496930c -7.27  -3.50
iter:  32 12:49:42  -200.495909c -7.09  -3.82
iter:  33 12:50:42  -200.496868c -7.06  -3.89
iter:  34 12:51:42  -200.496383c -7.18  -3.82
iter:  35 12:52:42  -200.496608c -7.27  -4.01c
iter:  36 12:53:42  -200.496306c -7.39  -4.05c
iter:  37 12:54:42  -200.496524c -7.54c -4.31c

Converged after 37 iterations.

Dipole moment: (27.911795, 10.106614, -0.197649) |e|*Ang

Energy contributions relative to reference atoms: (reference = -14174778.458134)

Kinetic:       -326.467141
Potential:     +180.933895
External:        +0.000000
XC:             -42.675846
Entropy (-ST):   -2.334857
Local:          -11.120004
--------------------------
Free energy:   -201.663952
Extrapolated:  -200.496524

Showing only first 2 kpts
 Kpt  Band  Eigenvalues  Occupancy
  0   364      0.60312    1.03499
  0   365      0.64102    0.84671
  0   366      0.66717    0.72225
  0   367      0.70030    0.57739

  1   364      0.50403    1.48571
  1   365      0.54292    1.32392
  1   366      0.55289    1.27858
  1   367      0.57553    1.17126


Fermi level: 0.61012

No gap

Forces in eV/Ang:
  0 Pd    0.00874   -0.00543   -0.26781
  1 Pt    0.30817   -0.52369    0.37090
  2 Pt   -0.34092   -0.14519    0.00905
  3 Pd   -0.41620    0.18322   -0.08632
  4 Pd    0.22123   -0.22473   -0.24135
  5 Pt    0.23119    0.31501   -0.20105
  6 Pd   -0.21570    0.22908   -0.09809
  7 Pt    0.55142    0.16746    0.07242
  8 Ru   -0.48913    0.05711    1.33182
  9 Pd   -0.22904    0.17242    0.18370
 10 Pt    0.29464    0.00990   -0.21662
 11 Pd    0.03951    0.04528   -0.06579
 12 Pd    0.08070    0.10892   -0.00562
 13 Pt   -0.18869   -0.17805    0.17311
 14 Ag    0.05072   -0.12716    0.08078
 15 Ag   -0.01101   -0.06843   -0.10475
 16 Ag   -0.06235   -0.05645    0.08615
 17 Pt    0.03619    0.22376   -0.57454
 18 Pt    0.00734    0.01677    0.03712
 19 Pt    0.02799    0.02213    0.00744
 20 Ru    0.00042   -0.03332   -0.10702
 21 Pt    0.03887    0.00290   -0.01914
 22 Pd    0.04168    0.00256    0.00176
 23 Pt   -0.02914   -0.04715    0.01457
 24 Ag    0.04137   -0.01175   -0.05121
 25 Pt   -0.02494   -0.02542    0.00560
 26 Ag    0.01385    0.01623   -0.04373
 27 Pt    0.04190    0.11925   -0.05105
 28 Pd   -0.05934   -0.05029   -0.16001
 29 Pd    0.08436   -0.02377   -0.19731
 30 Ir   -0.01239    0.00170   -0.01037
 31 Pt   -0.03492   -0.15599    0.21397
 32 Pd   -0.00845   -0.04167    0.01276
 33 Pd   -0.15613    0.07762    0.29782
 34 Ag    0.07539    0.00073    0.14342
 35 Pt    0.00719   -0.15196   -0.33704
 36 Pt    0.00514   -0.13054   -0.11947
 37 Pt   -0.06053   -0.03827    0.84126
 38 Pt    0.11117    0.12235    0.86993
 39 Pt   -0.26985    0.29714   -0.13687
 40 Pd    0.00609    0.42683    0.31160
 41 Pd    0.13278    0.14600   -0.06071
 42 Pt    0.00660    0.04820   -0.10119
 43 Ag   -0.02150    0.01679    0.04496
 44 Pt    0.02253   -0.39298   -0.13208
 45 O     0.14309   -0.39876   -1.78647

System changes: positions 

Initializing position-dependent things.

Density initialized from wave functions
                                             
                                             
                                             
                                             
                                             
                                             
                        Ag                   
                 Pt            Pt            
            Pt    OPd    APd    Pt           
                                             
       Pt    IPt    PPt    Pd                
                                             
        Pt     Pd    APd    Pt     Ag        
                Pt     Pd     Pt             
                                             
           Pt    APt    ARu    Pt            
                                             
            Pd    PPt    PAg    Ru           
       Pd     Pt     Pd                      
             Pd     Pd     Pt                
        Pd     Pt     Pt                     
                                             
                                             
                                             
                                             
                                             

Positions:
   0 Pd     0.000000    1.639149   10.000000    ( 0.0000,  0.0000,  0.0000)
   1 Pt     2.839089    1.639149   10.000000    ( 0.0000,  0.0000,  0.0000)
   2 Pt     5.678177    1.639149   10.000000    ( 0.0000,  0.0000,  0.0000)
   3 Pd     1.419544    4.097872   10.000000    ( 0.0000,  0.0000,  0.0000)
   4 Pd     4.258633    4.097872   10.000000    ( 0.0000,  0.0000,  0.0000)
   5 Pt     7.097722    4.097872   10.000000    ( 0.0000,  0.0000,  0.0000)
   6 Pd     2.839089    6.556595   10.000000    ( 0.0000,  0.0000,  0.0000)
   7 Pt     5.678177    6.556595   10.000000    ( 0.0000,  0.0000,  0.0000)
   8 Ru     8.517266    6.556595   10.000000    ( 0.0000,  0.0000,  0.0000)
   9 Pd     0.000000    0.000000   12.317643    ( 0.0000,  0.0000,  0.0000)
  10 Pt     2.839089    0.000000   12.317643    ( 0.0000,  0.0000,  0.0000)
  11 Pd     5.678177    0.000000   12.317643    ( 0.0000,  0.0000,  0.0000)
  12 Pd     1.419544    2.458723   12.317643    ( 0.0000,  0.0000,  0.0000)
  13 Pt     4.258633    2.458723   12.317643    ( 0.0000,  0.0000,  0.0000)
  14 Ag     7.097722    2.458723   12.317643    ( 0.0000,  0.0000,  0.0000)
  15 Ag     2.839089    4.917446   12.317643    ( 0.0000,  0.0000,  0.0000)
  16 Ag     5.678177    4.917446   12.317643    ( 0.0000,  0.0000,  0.0000)
  17 Pt     8.517266    4.917446   12.317643    ( 0.0000,  0.0000,  0.0000)
  18 Pt     1.382706    0.802255   14.574988    ( 0.0000,  0.0000,  0.0000)
  19 Pt     4.320775    0.816652   14.613145    ( 0.0000,  0.0000,  0.0000)
  20 Ru     7.144271    0.917655   14.700677    ( 0.0000,  0.0000,  0.0000)
  21 Pt     2.831809    3.224590   14.673936    ( 0.0000,  0.0000,  0.0000)
  22 Pd     5.670100    3.253485   14.666437    ( 0.0000,  0.0000,  0.0000)
  23 Pt     8.531444    3.281707   14.648319    ( 0.0000,  0.0000,  0.0000)
  24 Ag     4.274909    5.722823   14.645339    ( 0.0000,  0.0000,  0.0000)
  25 Pt     7.163688    5.771363   14.621555    ( 0.0000,  0.0000,  0.0000)
  26 Ag     9.987106    5.739018   14.642831    ( 0.0000,  0.0000,  0.0000)
  27 Pt    -0.009431    1.651464   16.859317    ( 0.0000,  0.0000,  0.0000)
  28 Pd     2.845600    1.596147   16.905656    ( 0.0000,  0.0000,  0.0000)
  29 Pd     5.676494    1.629233   16.924502    ( 0.0000,  0.0000,  0.0000)
  30 Ir     1.434153    4.054145   16.976591    ( 0.0000,  0.0000,  0.0000)
  31 Pt     4.205518    4.044105   16.980114    ( 0.0000,  0.0000,  0.0000)
  32 Pd     7.080547    4.096220   16.929875    ( 0.0000,  0.0000,  0.0000)
  33 Pd     2.835818    6.585038   16.909725    ( 0.0000,  0.0000,  0.0000)
  34 Ag     5.673999    6.523416   16.972991    ( 0.0000,  0.0000,  0.0000)
  35 Pt     8.525204    6.534798   16.945559    ( 0.0000,  0.0000,  0.0000)
  36 Pt    -0.017642    0.051139   19.238248    ( 0.0000,  0.0000,  0.0000)
  37 Pt     2.856732    0.043635   19.278491    ( 0.0000,  0.0000,  0.0000)
  38 Pt     5.661107   -0.011222   19.246228    ( 0.0000,  0.0000,  0.0000)
  39 Pt     1.390787    2.419697   19.170471    ( 0.0000,  0.0000,  0.0000)
  40 Pd     4.249977    2.436132   19.277486    ( 0.0000,  0.0000,  0.0000)
  41 Pd     7.121924    2.429191   19.247934    ( 0.0000,  0.0000,  0.0000)
  42 Pt     2.796844    4.960710   19.158256    ( 0.0000,  0.0000,  0.0000)
  43 Ag     5.679070    4.925421   19.423878    ( 0.0000,  0.0000,  0.0000)
  44 Pt     8.559192    4.923978   19.190120    ( 0.0000,  0.0000,  0.0000)
  45 O      4.257713    0.814719   20.697715    ( 0.0000,  0.0000,  0.0000)

Unit cell:
           periodic     x           y           z      points  spacing
  1. axis:    yes    8.517266    0.000000    0.000000    40     0.1844
  2. axis:    yes    4.258633    7.376169    0.000000    40     0.1844
  3. axis:    no     0.000000    0.000000   29.270571   140     0.2091

  Lengths:   8.517266   8.517266  29.270571
  Angles:   90.000000  90.000000  60.000000

Effective grid spacing dv^(1/3) = 0.2017

     iter     time        total  log10-change:
                         energy  eigst   dens
iter:   1 12:56:02  -200.744876  -4.21
iter:   2 12:57:02  -203.649995  -3.96  -2.66
iter:   3 12:58:01  -202.066223  -3.87  -1.99
iter:   4 12:59:00  -200.701804  -4.72  -2.14
iter:   5 13:00:00  -200.597720  -5.65  -2.70
iter:   6 13:01:00  -200.593008c -5.96  -3.31
iter:   7 13:02:00  -200.593436c -6.01  -3.19
iter:   8 13:03:00  -200.583233c -6.30  -3.34
iter:   9 13:04:00  -200.582799c -6.86  -3.71
iter:  10 13:05:00  -200.585606c -6.47  -3.70
iter:  11 13:05:59  -200.581481c -6.61  -3.48
iter:  12 13:06:59  -200.580770c -7.24  -3.89
iter:  13 13:07:58  -200.581247c -7.56c -3.98
iter:  14 13:08:58  -200.581206c -7.98c -4.16c

Converged after 14 iterations.

Dipole moment: (28.109158, 10.081992, -0.182484) |e|*Ang

Energy contributions relative to reference atoms: (reference = -14174778.458134)

Kinetic:       -330.360730
Potential:     +184.697601
External:        +0.000000
XC:             -42.687494
Entropy (-ST):   -2.327916
Local:          -11.066625
--------------------------
Free energy:   -201.745164
Extrapolated:  -200.581206

Showing only first 2 kpts
 Kpt  Band  Eigenvalues  Occupancy
  0   364      0.60987    1.03769
  0   365      0.64778    0.84931
  0   366      0.67422    0.72335
  0   367      0.70773    0.57679

  1   364      0.51049    1.48889
  1   365      0.55009    1.32443
  1   366      0.55920    1.28309
  1   367      0.58259    1.17234


Fermi level: 0.61741

No gap

Forces in eV/Ang:
  0 Pd    0.01066   -0.00463   -0.26724
  1 Pt    0.30702   -0.52561    0.37000
  2 Pt   -0.34213   -0.14715    0.00786
  3 Pd   -0.41656    0.18326   -0.08871
  4 Pd    0.22109   -0.22453   -0.24459
  5 Pt    0.23103    0.31806   -0.20266
  6 Pd   -0.21732    0.22787   -0.10100
  7 Pt    0.55411    0.16584    0.07090
  8 Ru   -0.48957    0.05719    1.32620
  9 Pd   -0.22538    0.17329    0.17801
 10 Pt    0.29532    0.01020   -0.22068
 11 Pd    0.03494    0.04441   -0.07274
 12 Pd    0.07927    0.10551   -0.01084
 13 Pt   -0.18867   -0.18207    0.16622
 14 Ag    0.05179   -0.12516    0.07308
 15 Ag   -0.01202   -0.06659   -0.10353
 16 Ag   -0.05963   -0.05513    0.08140
 17 Pt    0.03407    0.22585   -0.57745
 18 Pt    0.00541    0.00487    0.03481
 19 Pt    0.02488    0.02005    0.00282
 20 Ru    0.00456   -0.04189   -0.08905
 21 Pt    0.03733    0.01436   -0.01279
 22 Pd    0.03207    0.01199    0.00263
 23 Pt   -0.01992   -0.03284    0.00032
 24 Ag    0.03252   -0.01102   -0.01873
 25 Pt   -0.03397   -0.02747   -0.00613
 26 Ag    0.02912    0.00933   -0.04114
 27 Pt    0.03184    0.06470   -0.04689
 28 Pd   -0.03001   -0.08241   -0.08153
 29 Pd    0.05497   -0.05641   -0.12343
 30 Ir    0.01180    0.02238   -0.04104
 31 Pt   -0.02515   -0.14176    0.17354
 32 Pd   -0.03230   -0.02571    0.00529
 33 Pd   -0.14220    0.08107    0.26002
 34 Ag    0.07469    0.00857    0.13767
 35 Pt    0.01378   -0.09065   -0.20971
 36 Pt    0.01413   -0.09299   -0.10156
 37 Pt   -0.17156   -0.06348    0.64353
 38 Pt    0.17185    0.05375    0.68099
 39 Pt   -0.20848    0.22208   -0.11468
 40 Pd   -0.01403    0.44871    0.20478
 41 Pd    0.09844    0.10622   -0.05745
 42 Pt   -0.00896    0.06399   -0.06812
 43 Ag   -0.00952    0.02365    0.04683
 44 Pt    0.02052   -0.30559   -0.13397
 45 O     0.15856   -0.38167   -1.51975

System changes: positions 

Initializing position-dependent things.

Density initialized from wave functions
                                             
                                             
                                             
                                             
                                             
                                             
                        Ag                   
                 Pt            Pt            
            Pt    OPd    APd    Pt           
                                             
       Pt    IPt    PPt    Pd                
                                             
        Pt     Pd    APd    Pt     Ag        
                Pt     Pd     Pt             
                                             
           Pt    APt    ARu    Pt            
                                             
            Pd    PPt    PAg    Ru           
       Pd    PPt    PPd    Pt                
                                             
        Pd     Pt     Pt                     
                                             
                                             
                                             
                                             
                                             

Positions:
   0 Pd     0.000000    1.639149   10.000000    ( 0.0000,  0.0000,  0.0000)
   1 Pt     2.839089    1.639149   10.000000    ( 0.0000,  0.0000,  0.0000)
   2 Pt     5.678177    1.639149   10.000000    ( 0.0000,  0.0000,  0.0000)
   3 Pd     1.419544    4.097872   10.000000    ( 0.0000,  0.0000,  0.0000)
   4 Pd     4.258633    4.097872   10.000000    ( 0.0000,  0.0000,  0.0000)
   5 Pt     7.097722    4.097872   10.000000    ( 0.0000,  0.0000,  0.0000)
   6 Pd     2.839089    6.556595   10.000000    ( 0.0000,  0.0000,  0.0000)
   7 Pt     5.678177    6.556595   10.000000    ( 0.0000,  0.0000,  0.0000)
   8 Ru     8.517266    6.556595   10.000000    ( 0.0000,  0.0000,  0.0000)
   9 Pd     0.000000    0.000000   12.317643    ( 0.0000,  0.0000,  0.0000)
  10 Pt     2.839089    0.000000   12.317643    ( 0.0000,  0.0000,  0.0000)
  11 Pd     5.678177    0.000000   12.317643    ( 0.0000,  0.0000,  0.0000)
  12 Pd     1.419544    2.458723   12.317643    ( 0.0000,  0.0000,  0.0000)
  13 Pt     4.258633    2.458723   12.317643    ( 0.0000,  0.0000,  0.0000)
  14 Ag     7.097722    2.458723   12.317643    ( 0.0000,  0.0000,  0.0000)
  15 Ag     2.839089    4.917446   12.317643    ( 0.0000,  0.0000,  0.0000)
  16 Ag     5.678177    4.917446   12.317643    ( 0.0000,  0.0000,  0.0000)
  17 Pt     8.517266    4.917446   12.317643    ( 0.0000,  0.0000,  0.0000)
  18 Pt     1.383196    0.802754   14.578087    ( 0.0000,  0.0000,  0.0000)
  19 Pt     4.322998    0.818441   14.613421    ( 0.0000,  0.0000,  0.0000)
  20 Ru     7.144652    0.913990   14.692680    ( 0.0000,  0.0000,  0.0000)
  21 Pt     2.835127    3.225797   14.672766    ( 0.0000,  0.0000,  0.0000)
  22 Pd     5.672999    3.254494   14.666666    ( 0.0000,  0.0000,  0.0000)
  23 Pt     8.529625    3.278713   14.648429    ( 0.0000,  0.0000,  0.0000)
  24 Ag     4.277843    5.721842   14.643493    ( 0.0000,  0.0000,  0.0000)
  25 Pt     7.160728    5.768940   14.621079    ( 0.0000,  0.0000,  0.0000)
  26 Ag     9.989600    5.739885   14.639169    ( 0.0000,  0.0000,  0.0000)
  27 Pt    -0.006551    1.657511   16.855136    ( 0.0000,  0.0000,  0.0000)
  28 Pd     2.842772    1.589025   16.897980    ( 0.0000,  0.0000,  0.0000)
  29 Pd     5.681535    1.624419   16.913138    ( 0.0000,  0.0000,  0.0000)
  30 Ir     1.435061    4.056011   16.973128    ( 0.0000,  0.0000,  0.0000)
  31 Pt     4.203233    4.031456   16.995730    ( 0.0000,  0.0000,  0.0000)
  32 Pd     7.077820    4.093849   16.930387    ( 0.0000,  0.0000,  0.0000)
  33 Pd     2.823132    6.592206   16.932993    ( 0.0000,  0.0000,  0.0000)
  34 Ag     5.680624    6.524131   16.985229    ( 0.0000,  0.0000,  0.0000)
  35 Pt     8.526388    6.526412   16.926240    ( 0.0000,  0.0000,  0.0000)
  36 Pt    -0.016441    0.042681   19.229141    ( 0.0000,  0.0000,  0.0000)
  37 Pt     2.842157    0.038151   19.336671    ( 0.0000,  0.0000,  0.0000)
  38 Pt     5.675995   -0.006065   19.307680    ( 0.0000,  0.0000,  0.0000)
  39 Pt     1.371954    2.439814   19.160177    ( 0.0000,  0.0000,  0.0000)
  40 Pd     4.248848    2.475787   19.296251    ( 0.0000,  0.0000,  0.0000)
  41 Pd     7.130847    2.438835   19.242823    ( 0.0000,  0.0000,  0.0000)
  42 Pt     2.796138    4.966293   19.152027    ( 0.0000,  0.0000,  0.0000)
  43 Ag     5.678157    4.927479   19.428019    ( 0.0000,  0.0000,  0.0000)
  44 Pt     8.561023    4.896387   19.178254    ( 0.0000,  0.0000,  0.0000)
  45 O      4.271681    0.780785   20.561460    ( 0.0000,  0.0000,  0.0000)

Unit cell:
           periodic     x           y           z      points  spacing
  1. axis:    yes    8.517266    0.000000    0.000000    40     0.1844
  2. axis:    yes    4.258633    7.376169    0.000000    40     0.1844
  3. axis:    no     0.000000    0.000000   29.270571   140     0.2091

  Lengths:   8.517266   8.517266  29.270571
  Angles:   90.000000  90.000000  60.000000

Effective grid spacing dv^(1/3) = 0.2017

     iter     time        total  log10-change:
                         energy  eigst   dens
iter:   1 13:10:18  -203.304252  -2.83
iter:   2 13:11:19  -223.374403  -2.79  -2.09
iter:   3 13:12:19  -215.487403  -2.80  -1.62
iter:   4 13:13:20  -202.177239  -3.59  -1.74
iter:   5 13:14:21  -201.856252  -4.61  -2.18
iter:   6 13:15:22  -201.086402  -4.39  -2.24
iter:   7 13:16:22  -201.165299  -4.89  -2.59
iter:   8 13:17:23  -200.935329c -4.89  -2.49
iter:   9 13:18:23  -200.879852c -5.21  -2.72
iter:  10 13:19:24  -200.909961c -5.22  -2.89
iter:  11 13:20:25  -200.876768c -4.97  -2.80
iter:  12 13:21:30  -200.842733c -5.40  -2.86
iter:  13 13:22:31  -200.839356c -6.05  -3.43
iter:  14 13:23:33  -200.840057c -6.30  -3.50
iter:  15 13:24:34  -200.840866c -6.42  -3.60
iter:  16 13:25:36  -200.839555c -6.60  -3.51
iter:  17 13:26:38  -200.839327c -7.07  -3.76
iter:  18 13:27:39  -200.839480c -6.96  -3.80
iter:  19 13:28:41  -200.839903c -7.01  -3.90
iter:  20 13:29:44  -200.839152c -6.97  -3.50
iter:  21 13:30:46  -200.840758c -6.91  -3.94
iter:  22 13:31:48  -200.838536c -6.90  -3.54
iter:  23 13:32:49  -200.838145c -7.68c -4.33c

Converged after 23 iterations.

Dipole moment: (29.298185, 10.218385, -0.107378) |e|*Ang

Energy contributions relative to reference atoms: (reference = -14174778.458134)

Kinetic:       -323.521039
Potential:     +178.725112
External:        +0.000000
XC:             -43.804066
Entropy (-ST):   -2.295271
Local:          -11.090517
--------------------------
Free energy:   -201.985781
Extrapolated:  -200.838145

Showing only first 2 kpts
 Kpt  Band  Eigenvalues  Occupancy
  0   364      0.64750    1.04326
  0   365      0.68214    0.87082
  0   366      0.71125    0.73129
  0   367      0.74735    0.57320

  1   364      0.54533    1.50363
  1   365      0.58565    1.33865
  1   366      0.59835    1.28127
  1   367      0.62264    1.16604


Fermi level: 0.65616

No gap

Forces in eV/Ang:
  0 Pd    0.01107   -0.00894   -0.25762
  1 Pt    0.30506   -0.51791    0.38268
  2 Pt   -0.34176   -0.14254    0.01925
  3 Pd   -0.41104    0.17999   -0.08010
  4 Pd    0.21937   -0.22379   -0.23627
  5 Pt    0.22708    0.31112   -0.19103
  6 Pd   -0.21309    0.22708   -0.09265
  7 Pt    0.54453    0.16908    0.08148
  8 Ru   -0.48459    0.05831    1.33973
  9 Pd   -0.22292    0.17607    0.17696
 10 Pt    0.28709    0.01078   -0.20923
 11 Pd    0.04320    0.04920   -0.07455
 12 Pd    0.07806    0.10227   -0.01305
 13 Pt   -0.18313   -0.16978    0.16709
 14 Ag    0.04981   -0.12368    0.05675
 15 Ag   -0.00629   -0.07075   -0.11650
 16 Ag   -0.06015   -0.05942    0.06961
 17 Pt    0.02992    0.21909   -0.58515
 18 Pt    0.00030   -0.01769   -0.01387
 19 Pt    0.01535   -0.00597   -0.04084
 20 Ru    0.02232   -0.03152   -0.06203
 21 Pt    0.03290    0.00951   -0.00599
 22 Pd    0.01241    0.01801   -0.02030
 23 Pt    0.00083    0.01011   -0.04147
 24 Ag    0.00228   -0.00282    0.08615
 25 Pt   -0.02161   -0.02551   -0.02960
 26 Ag    0.04955    0.00358   -0.03150
 27 Pt   -0.00025   -0.00121   -0.05862
 28 Pd    0.03041   -0.07963    0.04373
 29 Pd   -0.01818   -0.04523    0.01731
 30 Ir    0.01048    0.00503   -0.11569
 31 Pt    0.00766   -0.04463    0.04111
 32 Pd   -0.03991   -0.01434   -0.02189
 33 Pd   -0.03303    0.04000    0.07744
 34 Ag    0.02332   -0.02373    0.07639
 35 Pt    0.02095   -0.02689   -0.01722
 36 Pt    0.03886    0.00952   -0.00920
 37 Pt   -0.60900   -0.19425   -0.00132
 38 Pt    0.47025   -0.21448    0.05070
 39 Pt   -0.07188    0.08735   -0.07499
 40 Pd   -0.06108    0.36942   -0.10974
 41 Pd    0.00740    0.03791   -0.04484
 42 Pt   -0.02939    0.08648    0.01164
 43 Ag    0.02595    0.04324    0.04704
 44 Pt    0.00601   -0.10610   -0.08236
 45 O     0.23337   -0.07635   -0.22715

System changes: positions 

Initializing position-dependent things.

Density initialized from wave functions
                                             
                                             
                                             
                                             
                                             
                                             
                        Ag                   
                 Pt            Pt            
            Pt    OPd    APd    Pt           
                                             
       Pt    IPt    PPt    Pd                
                                             
        Pt     Pd    APd    Pt     Ag        
                Pt     Pd     Pt             
                                             
           Pt    APt    ARu    Pt            
                                             
            Pd    PPt    PAg    Ru           
       Pd    PPt    PPd    Pt                
                                             
        Pd     Pt     Pt                     
                                             
                                             
                                             
                                             
                                             

Positions:
   0 Pd     0.000000    1.639149   10.000000    ( 0.0000,  0.0000,  0.0000)
   1 Pt     2.839089    1.639149   10.000000    ( 0.0000,  0.0000,  0.0000)
   2 Pt     5.678177    1.639149   10.000000    ( 0.0000,  0.0000,  0.0000)
   3 Pd     1.419544    4.097872   10.000000    ( 0.0000,  0.0000,  0.0000)
   4 Pd     4.258633    4.097872   10.000000    ( 0.0000,  0.0000,  0.0000)
   5 Pt     7.097722    4.097872   10.000000    ( 0.0000,  0.0000,  0.0000)
   6 Pd     2.839089    6.556595   10.000000    ( 0.0000,  0.0000,  0.0000)
   7 Pt     5.678177    6.556595   10.000000    ( 0.0000,  0.0000,  0.0000)
   8 Ru     8.517266    6.556595   10.000000    ( 0.0000,  0.0000,  0.0000)
   9 Pd     0.000000    0.000000   12.317643    ( 0.0000,  0.0000,  0.0000)
  10 Pt     2.839089    0.000000   12.317643    ( 0.0000,  0.0000,  0.0000)
  11 Pd     5.678177    0.000000   12.317643    ( 0.0000,  0.0000,  0.0000)
  12 Pd     1.419544    2.458723   12.317643    ( 0.0000,  0.0000,  0.0000)
  13 Pt     4.258633    2.458723   12.317643    ( 0.0000,  0.0000,  0.0000)
  14 Ag     7.097722    2.458723   12.317643    ( 0.0000,  0.0000,  0.0000)
  15 Ag     2.839089    4.917446   12.317643    ( 0.0000,  0.0000,  0.0000)
  16 Ag     5.678177    4.917446   12.317643    ( 0.0000,  0.0000,  0.0000)
  17 Pt     8.517266    4.917446   12.317643    ( 0.0000,  0.0000,  0.0000)
  18 Pt     1.383348    0.802613   14.578721    ( 0.0000,  0.0000,  0.0000)
  19 Pt     4.323923    0.818847   14.612765    ( 0.0000,  0.0000,  0.0000)
  20 Ru     7.145156    0.912400   14.689205    ( 0.0000,  0.0000,  0.0000)
  21 Pt     2.836680    3.226275   14.672301    ( 0.0000,  0.0000,  0.0000)
  22 Pd     5.674084    3.255079   14.666354    ( 0.0000,  0.0000,  0.0000)
  23 Pt     8.529091    3.277998   14.647748    ( 0.0000,  0.0000,  0.0000)
  24 Ag     4.278749    5.721509   14.644438    ( 0.0000,  0.0000,  0.0000)
  25 Pt     7.159522    5.767789   14.620440    ( 0.0000,  0.0000,  0.0000)
  26 Ag     9.991166    5.740221   14.637541    ( 0.0000,  0.0000,  0.0000)
  27 Pt    -0.005702    1.659398   16.852856    ( 0.0000,  0.0000,  0.0000)
  28 Pd     2.842424    1.585650   16.896328    ( 0.0000,  0.0000,  0.0000)
  29 Pd     5.682736    1.622334   16.909968    ( 0.0000,  0.0000,  0.0000)
  30 Ir     1.435427    4.056561   16.970124    ( 0.0000,  0.0000,  0.0000)
  31 Pt     4.202691    4.026992   17.001064    ( 0.0000,  0.0000,  0.0000)
  32 Pd     7.076395    4.092856   16.930156    ( 0.0000,  0.0000,  0.0000)
  33 Pd     2.818872    6.594965   16.941159    ( 0.0000,  0.0000,  0.0000)
  34 Ag     5.682938    6.523870   16.990130    ( 0.0000,  0.0000,  0.0000)
  35 Pt     8.527086    6.523319   16.919988    ( 0.0000,  0.0000,  0.0000)
  36 Pt    -0.015417    0.040321   19.226322    ( 0.0000,  0.0000,  0.0000)
  37 Pt     2.827209    0.033110   19.353870    ( 0.0000,  0.0000,  0.0000)
  38 Pt     5.688658   -0.008303   19.326733    ( 0.0000,  0.0000,  0.0000)
  39 Pt     1.365067    2.447399   19.155795    ( 0.0000,  0.0000,  0.0000)
  40 Pd     4.247475    2.493768   19.299939    ( 0.0000,  0.0000,  0.0000)
  41 Pd     7.133638    2.442411   19.240535    ( 0.0000,  0.0000,  0.0000)
  42 Pt     2.795452    4.969414   19.150356    ( 0.0000,  0.0000,  0.0000)
  43 Ag     5.678333    4.928834   19.430054    ( 0.0000,  0.0000,  0.0000)
  44 Pt     8.561661    4.886291   19.173375    ( 0.0000,  0.0000,  0.0000)
  45 O      4.279886    0.769681   20.517638    ( 0.0000,  0.0000,  0.0000)

Unit cell:
           periodic     x           y           z      points  spacing
  1. axis:    yes    8.517266    0.000000    0.000000    40     0.1844
  2. axis:    yes    4.258633    7.376169    0.000000    40     0.1844
  3. axis:    no     0.000000    0.000000   29.270571   140     0.2091

  Lengths:   8.517266   8.517266  29.270571
  Angles:   90.000000  90.000000  60.000000

Effective grid spacing dv^(1/3) = 0.2017

     iter     time        total  log10-change:
                         energy  eigst   dens
iter:   1 13:34:10  -203.445611  -3.58
iter:   2 13:35:10  -269.058270  -2.55  -2.01
iter:   3 13:36:10  -204.455458  -2.88  -1.36
iter:   4 13:37:12  -201.207563  -3.80  -2.00
iter:   5 13:38:13  -200.999668  -4.88  -2.56
iter:   6 13:39:14  -200.979230c -4.99  -2.79
iter:   7 13:40:14  -201.005055c -5.16  -2.79
iter:   8 13:41:16  -200.881908c -4.92  -2.72
iter:   9 13:42:17  -200.877383c -6.00  -3.22
iter:  10 13:43:18  -200.884212c -6.15  -3.33
iter:  11 13:44:19  -200.878126c -6.51  -3.19
iter:  12 13:45:20  -200.875253c -6.07  -3.36
iter:  13 13:46:22  -200.872226c -6.13  -3.58
iter:  14 13:47:23  -200.872578c -6.61  -3.64
iter:  15 13:48:24  -200.872119c -6.96  -3.82
iter:  16 13:49:25  -200.871294c -6.97  -3.62
iter:  17 13:50:26  -200.871620c -7.44c -3.88
iter:  18 13:51:27  -200.871475c -7.78c -4.19c

Converged after 18 iterations.

Dipole moment: (29.952376, 10.545454, -0.089045) |e|*Ang

Energy contributions relative to reference atoms: (reference = -14174778.458134)

Kinetic:       -319.667471
Potential:     +175.256070
External:        +0.000000
XC:             -44.232706
Entropy (-ST):   -2.286012
Local:          -11.084362
--------------------------
Free energy:   -202.014481
Extrapolated:  -200.871475

Showing only first 2 kpts
 Kpt  Band  Eigenvalues  Occupancy
  0   364      0.65548    1.04224
  0   365      0.68782    0.88113
  0   366      0.71832    0.73460
  0   367      0.75512    0.57325

  1   364      0.55313    1.50353
  1   365      0.59264    1.34210
  1   366      0.60748    1.27502
  1   367      0.63106    1.16291


Fermi level: 0.66394

No gap

Forces in eV/Ang:
  0 Pd    0.01116   -0.00836   -0.26519
  1 Pt    0.31191   -0.53014    0.37583
  2 Pt   -0.34935   -0.15198    0.01054
  3 Pd   -0.41535    0.18760   -0.08774
  4 Pd    0.21907   -0.22334   -0.24336
  5 Pt    0.23156    0.32102   -0.19886
  6 Pd   -0.22316    0.22645   -0.09908
  7 Pt    0.55841    0.16912    0.07321
  8 Ru   -0.48628    0.05957    1.33409
  9 Pd   -0.21756    0.17842    0.17263
 10 Pt    0.29164    0.01436   -0.21358
 11 Pd    0.03573    0.04876   -0.08858
 12 Pd    0.07955    0.09838   -0.01369
 13 Pt   -0.18650   -0.17785    0.15908
 14 Ag    0.05215   -0.12330    0.04595
 15 Ag   -0.00811   -0.07187   -0.12295
 16 Ag   -0.05793   -0.05663    0.05935
 17 Pt    0.03081    0.22365   -0.59281
 18 Pt   -0.00029   -0.02394   -0.02513
 19 Pt    0.00461   -0.01059   -0.05110
 20 Ru    0.03239   -0.02435   -0.03700
 21 Pt    0.02397    0.00648    0.00019
 22 Pd    0.00212    0.01546   -0.01778
 23 Pt    0.01692    0.01981   -0.05735
 24 Ag   -0.00435    0.00104    0.11865
 25 Pt   -0.02064   -0.01763   -0.04175
 26 Ag    0.05384   -0.00360   -0.03188
 27 Pt   -0.01147   -0.05822   -0.07882
 28 Pd    0.06364   -0.09429    0.09227
 29 Pd   -0.05621   -0.06133    0.07469
 30 Ir    0.03863    0.01818   -0.17086
 31 Pt    0.01620   -0.00676   -0.04275
 32 Pd   -0.06174    0.00249   -0.04717
 33 Pd   -0.00030    0.03367   -0.02516
 34 Ag    0.01546   -0.02464    0.02893
 35 Pt    0.02350    0.03379    0.09806
 36 Pt    0.04838    0.07011    0.03583
 37 Pt   -0.71557   -0.19653   -0.20382
 38 Pt    0.59130   -0.33483   -0.24584
 39 Pt    0.04565   -0.03373   -0.03150
 40 Pd   -0.09282    0.24589   -0.14686
 41 Pd   -0.06602   -0.01981   -0.03335
 42 Pt   -0.03280    0.07306    0.05773
 43 Ag    0.03913    0.03415    0.05826
 44 Pt   -0.01505    0.05733   -0.07726
 45 O     0.16761    0.11299    0.23824

System changes: positions 

Initializing position-dependent things.

Density initialized from wave functions
                                             
                                             
                                             
                                             
                                             
                                             
                        Ag                   
                 Pt            Pt            
            Pt    OPd    APd    Pt           
                                             
       Pt    IPt    PPt    Pd                
                                             
        Pt     Pd    APd    Pt     Ag        
                Pt     Pd     Pt             
                                             
           Pt    APt    ARu    Pt            
                                             
            Pd    PPt    PAg    Ru           
       Pd    PPt    PPd    Pt                
                                             
        Pd     Pt     Pt                     
                                             
                                             
                                             
                                             
                                             

Positions:
   0 Pd     0.000000    1.639149   10.000000    ( 0.0000,  0.0000,  0.0000)
   1 Pt     2.839089    1.639149   10.000000    ( 0.0000,  0.0000,  0.0000)
   2 Pt     5.678177    1.639149   10.000000    ( 0.0000,  0.0000,  0.0000)
   3 Pd     1.419544    4.097872   10.000000    ( 0.0000,  0.0000,  0.0000)
   4 Pd     4.258633    4.097872   10.000000    ( 0.0000,  0.0000,  0.0000)
   5 Pt     7.097722    4.097872   10.000000    ( 0.0000,  0.0000,  0.0000)
   6 Pd     2.839089    6.556595   10.000000    ( 0.0000,  0.0000,  0.0000)
   7 Pt     5.678177    6.556595   10.000000    ( 0.0000,  0.0000,  0.0000)
   8 Ru     8.517266    6.556595   10.000000    ( 0.0000,  0.0000,  0.0000)
   9 Pd     0.000000    0.000000   12.317643    ( 0.0000,  0.0000,  0.0000)
  10 Pt     2.839089    0.000000   12.317643    ( 0.0000,  0.0000,  0.0000)
  11 Pd     5.678177    0.000000   12.317643    ( 0.0000,  0.0000,  0.0000)
  12 Pd     1.419544    2.458723   12.317643    ( 0.0000,  0.0000,  0.0000)
  13 Pt     4.258633    2.458723   12.317643    ( 0.0000,  0.0000,  0.0000)
  14 Ag     7.097722    2.458723   12.317643    ( 0.0000,  0.0000,  0.0000)
  15 Ag     2.839089    4.917446   12.317643    ( 0.0000,  0.0000,  0.0000)
  16 Ag     5.678177    4.917446   12.317643    ( 0.0000,  0.0000,  0.0000)
  17 Pt     8.517266    4.917446   12.317643    ( 0.0000,  0.0000,  0.0000)
  18 Pt     1.383397    0.802173   14.578461    ( 0.0000,  0.0000,  0.0000)
  19 Pt     4.324336    0.818783   14.611621    ( 0.0000,  0.0000,  0.0000)
  20 Ru     7.145889    0.911465   14.687289    ( 0.0000,  0.0000,  0.0000)
  21 Pt     2.837646    3.226503   14.672119    ( 0.0000,  0.0000,  0.0000)
  22 Pd     5.674522    3.255523   14.665900    ( 0.0000,  0.0000,  0.0000)
  23 Pt     8.529171    3.278083   14.646535    ( 0.0000,  0.0000,  0.0000)
  24 Ag     4.278991    5.721415   14.646798    ( 0.0000,  0.0000,  0.0000)
  25 Pt     7.158797    5.767085   14.619524    ( 0.0000,  0.0000,  0.0000)
  26 Ag     9.992605    5.740304   14.636425    ( 0.0000,  0.0000,  0.0000)
  27 Pt    -0.005595    1.659243   16.850687    ( 0.0000,  0.0000,  0.0000)
  28 Pd     2.843332    1.582993   16.897149    ( 0.0000,  0.0000,  0.0000)
  29 Pd     5.682243    1.620713   16.909986    ( 0.0000,  0.0000,  0.0000)
  30 Ir     1.436091    4.056944   16.966204    ( 0.0000,  0.0000,  0.0000)
  31 Pt     4.202778    4.025355   17.002258    ( 0.0000,  0.0000,  0.0000)
  32 Pd     7.074941    4.092485   16.929280    ( 0.0000,  0.0000,  0.0000)
  33 Pd     2.817440    6.596445   16.943585    ( 0.0000,  0.0000,  0.0000)
  34 Ag     5.683952    6.523277   16.992330    ( 0.0000,  0.0000,  0.0000)
  35 Pt     8.527717    6.522597   16.919125    ( 0.0000,  0.0000,  0.0000)
  36 Pt    -0.014235    0.040634   19.225965    ( 0.0000,  0.0000,  0.0000)
  37 Pt     2.809578    0.027875   19.356472    ( 0.0000,  0.0000,  0.0000)
  38 Pt     5.703338   -0.014837   19.329344    ( 0.0000,  0.0000,  0.0000)
  39 Pt     1.363265    2.449713   19.153639    ( 0.0000,  0.0000,  0.0000)
  40 Pd     4.245442    2.504229   19.298723    ( 0.0000,  0.0000,  0.0000)
  41 Pd     7.133564    2.443446   19.239151    ( 0.0000,  0.0000,  0.0000)
  42 Pt     2.794684    4.971748   19.150697    ( 0.0000,  0.0000,  0.0000)
  43 Ag     5.679057    4.929907   19.431751    ( 0.0000,  0.0000,  0.0000)
  44 Pt     8.561634    4.883503   19.170412    ( 0.0000,  0.0000,  0.0000)
  45 O      4.285761    0.767911   20.506681    ( 0.0000,  0.0000,  0.0000)

Unit cell:
           periodic     x           y           z      points  spacing
  1. axis:    yes    8.517266    0.000000    0.000000    40     0.1844
  2. axis:    yes    4.258633    7.376169    0.000000    40     0.1844
  3. axis:    no     0.000000    0.000000   29.270571   140     0.2091

  Lengths:   8.517266   8.517266  29.270571
  Angles:   90.000000  90.000000  60.000000

Effective grid spacing dv^(1/3) = 0.2017

     iter     time        total  log10-change:
                         energy  eigst   dens
iter:   1 13:52:47  -202.606732  -4.02
iter:   2 13:53:48  -253.419101  -2.72  -2.10
iter:   3 13:54:49  -204.035894  -3.08  -1.41
iter:   4 13:55:50  -201.463577  -4.07  -2.01
iter:   5 13:56:51  -200.997892  -4.90  -2.37
iter:   6 13:57:52  -200.909593  -5.15  -2.74
iter:   7 13:58:52  -200.902845c -5.72  -3.25
iter:   8 13:59:53  -200.897152c -5.89  -3.44
iter:   9 14:00:53  -200.900452c -6.32  -3.58
iter:  10 14:01:54  -200.896985c -6.62  -3.43
iter:  11 14:02:54  -200.896051c -6.64  -3.77
iter:  12 14:03:54  -200.896381c -6.71  -3.92
iter:  13 14:04:54  -200.895944c -7.08  -4.03c
iter:  14 14:05:54  -200.895441c -7.53c -3.79
iter:  15 14:06:54  -200.895725c -7.74c -4.06c

Converged after 15 iterations.

Dipole moment: (30.425253, 11.027478, -0.089950) |e|*Ang

Energy contributions relative to reference atoms: (reference = -14174778.458134)

Kinetic:       -320.712002
Potential:     +176.239062
External:        +0.000000
XC:             -44.154997
Entropy (-ST):   -2.285609
Local:          -11.124984
--------------------------
Free energy:   -202.038529
Extrapolated:  -200.895725

Showing only first 2 kpts
 Kpt  Band  Eigenvalues  Occupancy
  0   364      0.65524    1.04172
  0   365      0.68663    0.88527
  0   366      0.71761    0.73626
  0   367      0.75486    0.57286

  1   364      0.55346    1.50101
  1   365      0.59325    1.33788
  1   366      0.60801    1.27094
  1   367      0.63039    1.16449


Fermi level: 0.66359

No gap

Forces in eV/Ang:
  0 Pd    0.01096   -0.00752   -0.26332
  1 Pt    0.30643   -0.52348    0.37576
  2 Pt   -0.34324   -0.14772    0.01020
  3 Pd   -0.41103    0.18420   -0.08601
  4 Pd    0.21793   -0.22044   -0.24025
  5 Pt    0.22753    0.31670   -0.19738
  6 Pd   -0.21879    0.22398   -0.09755
  7 Pt    0.55056    0.16573    0.07487
  8 Ru   -0.48521    0.05782    1.32865
  9 Pd   -0.21742    0.17185    0.17776
 10 Pt    0.28944    0.01223   -0.21182
 11 Pd    0.03729    0.04719   -0.08899
 12 Pd    0.08109    0.09910   -0.01191
 13 Pt   -0.18435   -0.17267    0.16022
 14 Ag    0.04944   -0.12141    0.04647
 15 Ag   -0.00194   -0.07187   -0.11803
 16 Ag   -0.06247   -0.05580    0.06629
 17 Pt    0.03018    0.22345   -0.59352
 18 Pt    0.00518   -0.02022   -0.01961
 19 Pt    0.00342   -0.01217   -0.03237
 20 Ru    0.02421   -0.01596   -0.02770
 21 Pt    0.02242   -0.00700    0.00641
 22 Pd    0.00348    0.00416   -0.01398
 23 Pt    0.01251    0.01562   -0.04560
 24 Ag   -0.00113    0.00099    0.10469
 25 Pt   -0.01316   -0.01263   -0.03112
 26 Ag    0.04291    0.00407   -0.02816
 27 Pt   -0.01372   -0.04068   -0.07123
 28 Pd    0.07266   -0.06752    0.08596
 29 Pd   -0.06846   -0.04513    0.07200
 30 Ir    0.03387    0.00448   -0.13656
 31 Pt   -0.00155   -0.00441   -0.05780
 32 Pd   -0.03803   -0.01135   -0.05019
 33 Pd    0.01234    0.02019   -0.05936
 34 Ag    0.00825   -0.02458   -0.00645
 35 Pt    0.02855    0.04225    0.10324
 36 Pt    0.03392    0.09407    0.03316
 37 Pt   -0.41335   -0.05202   -0.12809
 38 Pt    0.33073   -0.22821   -0.20460
 39 Pt    0.06828   -0.02531   -0.04678
 40 Pd   -0.09816    0.03109   -0.13037
 41 Pd   -0.07021   -0.03129   -0.04618
 42 Pt   -0.03239    0.01825    0.03846
 43 Ag    0.02870    0.00973    0.05382
 44 Pt    0.00191    0.09511   -0.07738
 45 O     0.14885    0.07383    0.09759

System changes: positions 

Initializing position-dependent things.

Density initialized from wave functions
                                             
                                             
                                             
                                             
                                             
                                             
                        Ag                   
                 Pt            Pt            
            Pt    OPd    APd    Pt           
                                             
       Pt    IPt    PPt    Pd                
                                             
        Pt     Pd    APd    Pt     Ag        
                Pt     Pd     Pt             
                                             
           Pt    APt    ARu    Pt            
                                             
            Pd    PPt    PAg    Ru           
       Pd    PPt    PPd    Pt                
                                             
        Pd     Pt     Pt                     
                                             
                                             
                                             
                                             
                                             

Positions:
   0 Pd     0.000000    1.639149   10.000000    ( 0.0000,  0.0000,  0.0000)
   1 Pt     2.839089    1.639149   10.000000    ( 0.0000,  0.0000,  0.0000)
   2 Pt     5.678177    1.639149   10.000000    ( 0.0000,  0.0000,  0.0000)
   3 Pd     1.419544    4.097872   10.000000    ( 0.0000,  0.0000,  0.0000)
   4 Pd     4.258633    4.097872   10.000000    ( 0.0000,  0.0000,  0.0000)
   5 Pt     7.097722    4.097872   10.000000    ( 0.0000,  0.0000,  0.0000)
   6 Pd     2.839089    6.556595   10.000000    ( 0.0000,  0.0000,  0.0000)
   7 Pt     5.678177    6.556595   10.000000    ( 0.0000,  0.0000,  0.0000)
   8 Ru     8.517266    6.556595   10.000000    ( 0.0000,  0.0000,  0.0000)
   9 Pd     0.000000    0.000000   12.317643    ( 0.0000,  0.0000,  0.0000)
  10 Pt     2.839089    0.000000   12.317643    ( 0.0000,  0.0000,  0.0000)
  11 Pd     5.678177    0.000000   12.317643    ( 0.0000,  0.0000,  0.0000)
  12 Pd     1.419544    2.458723   12.317643    ( 0.0000,  0.0000,  0.0000)
  13 Pt     4.258633    2.458723   12.317643    ( 0.0000,  0.0000,  0.0000)
  14 Ag     7.097722    2.458723   12.317643    ( 0.0000,  0.0000,  0.0000)
  15 Ag     2.839089    4.917446   12.317643    ( 0.0000,  0.0000,  0.0000)
  16 Ag     5.678177    4.917446   12.317643    ( 0.0000,  0.0000,  0.0000)
  17 Pt     8.517266    4.917446   12.317643    ( 0.0000,  0.0000,  0.0000)
  18 Pt     1.383616    0.801355   14.577811    ( 0.0000,  0.0000,  0.0000)
  19 Pt     4.324830    0.818423   14.609970    ( 0.0000,  0.0000,  0.0000)
  20 Ru     7.147038    0.910298   14.684819    ( 0.0000,  0.0000,  0.0000)
  21 Pt     2.839093    3.226410   14.672122    ( 0.0000,  0.0000,  0.0000)
  22 Pd     5.675070    3.255926   14.665150    ( 0.0000,  0.0000,  0.0000)
  23 Pt     8.529437    3.278456   14.644494    ( 0.0000,  0.0000,  0.0000)
  24 Ag     4.279240    5.721341   14.651227    ( 0.0000,  0.0000,  0.0000)
  25 Pt     7.157907    5.766155   14.618084    ( 0.0000,  0.0000,  0.0000)
  26 Ag     9.994823    5.740583   14.634756    ( 0.0000,  0.0000,  0.0000)
  27 Pt    -0.005799    1.658585   16.847104    ( 0.0000,  0.0000,  0.0000)
  28 Pd     2.845823    1.579299   16.899608    ( 0.0000,  0.0000,  0.0000)
  29 Pd     5.680215    1.618432   16.911393    ( 0.0000,  0.0000,  0.0000)
  30 Ir     1.437302    4.057172   16.959848    ( 0.0000,  0.0000,  0.0000)
  31 Pt     4.202638    4.023652   17.002173    ( 0.0000,  0.0000,  0.0000)
  32 Pd     7.073032    4.091658   16.927342    ( 0.0000,  0.0000,  0.0000)
  33 Pd     2.816444    6.598163   16.944462    ( 0.0000,  0.0000,  0.0000)
  34 Ag     5.685016    6.522102   16.994053    ( 0.0000,  0.0000,  0.0000)
  35 Pt     8.529001    6.522669   16.920213    ( 0.0000,  0.0000,  0.0000)
  36 Pt    -0.012499    0.043122   19.226258    ( 0.0000,  0.0000,  0.0000)
  37 Pt     2.786367    0.023004   19.357256    ( 0.0000,  0.0000,  0.0000)
  38 Pt     5.722184   -0.024980   19.328354    ( 0.0000,  0.0000,  0.0000)
  39 Pt     1.362925    2.451864   19.150213    ( 0.0000,  0.0000,  0.0000)
  40 Pd     4.241314    2.513146   19.294818    ( 0.0000,  0.0000,  0.0000)
  41 Pd     7.132081    2.443827   19.236622    ( 0.0000,  0.0000,  0.0000)
  42 Pt     2.793245    4.973898   19.151567    ( 0.0000,  0.0000,  0.0000)
  43 Ag     5.680268    4.930953   19.434518    ( 0.0000,  0.0000,  0.0000)
  44 Pt     8.561871    4.882830   19.165854    ( 0.0000,  0.0000,  0.0000)
  45 O      4.294833    0.767188   20.496232    ( 0.0000,  0.0000,  0.0000)

Unit cell:
           periodic     x           y           z      points  spacing
  1. axis:    yes    8.517266    0.000000    0.000000    40     0.1844
  2. axis:    yes    4.258633    7.376169    0.000000    40     0.1844
  3. axis:    no     0.000000    0.000000   29.270571   140     0.2091

  Lengths:   8.517266   8.517266  29.270571
  Angles:   90.000000  90.000000  60.000000

Effective grid spacing dv^(1/3) = 0.2017

     iter     time        total  log10-change:
                         energy  eigst   dens
iter:   1 14:08:15  -202.479527  -3.88
iter:   2 14:09:16  -248.400168  -2.74  -2.11
iter:   3 14:10:18  -204.435117  -3.15  -1.43
iter:   4 14:11:19  -201.677921  -4.02  -1.99
iter:   5 14:12:21  -201.021470  -4.82  -2.30
iter:   6 14:13:22  -200.933551  -5.12  -2.73
iter:   7 14:14:24  -200.923491c -5.70  -3.16
iter:   8 14:15:25  -200.919902c -5.99  -3.48
iter:   9 14:16:27  -200.923999c -6.23  -3.54
iter:  10 14:17:28  -200.918728c -6.45  -3.35
iter:  11 14:18:30  -200.917750c -6.61  -3.73
iter:  12 14:19:32  -200.919471c -6.75  -3.81
iter:  13 14:20:33  -200.918219c -6.87  -3.69
iter:  14 14:21:35  -200.917580c -7.44c -3.84
iter:  15 14:22:36  -200.917833c -7.62c -3.91
iter:  16 14:23:38  -200.917911c -7.46c -3.99
iter:  17 14:24:39  -200.917467c -7.66c -4.27c

Converged after 17 iterations.

Dipole moment: (30.943422, 11.552288, -0.096018) |e|*Ang

Energy contributions relative to reference atoms: (reference = -14174778.458134)

Kinetic:       -321.750372
Potential:     +177.182865
External:        +0.000000
XC:             -44.082403
Entropy (-ST):   -2.287643
Local:          -11.123736
--------------------------
Free energy:   -202.061289
Extrapolated:  -200.917467

Showing only first 2 kpts
 Kpt  Band  Eigenvalues  Occupancy
  0   364      0.65112    1.04124
  0   365      0.68148    0.88989
  0   366      0.71246    0.74060
  0   367      0.75038    0.57394

  1   364      0.55031    1.49700
  1   365      0.59015    1.33291
  1   366      0.60579    1.26165
  1   367      0.62574    1.16657


Fermi level: 0.65937

No gap

Forces in eV/Ang:
  0 Pd    0.01127   -0.00838   -0.26430
  1 Pt    0.30631   -0.52221    0.37474
  2 Pt   -0.34346   -0.14666    0.00663
  3 Pd   -0.41171    0.18320   -0.08785
  4 Pd    0.21872   -0.22145   -0.24349
  5 Pt    0.22766    0.31569   -0.20080
  6 Pd   -0.21816    0.22550   -0.09998
  7 Pt    0.54905    0.16747    0.07237
  8 Ru   -0.48536    0.05679    1.32616
  9 Pd   -0.21733    0.16616    0.17619
 10 Pt    0.29059    0.01428   -0.21867
 11 Pd    0.03848    0.04758   -0.09726
 12 Pd    0.08542    0.09764   -0.01703
 13 Pt   -0.18464   -0.17228    0.15492
 14 Ag    0.04731   -0.12106    0.03551
 15 Ag    0.00491   -0.07251   -0.11893
 16 Ag   -0.06987   -0.05370    0.06499
 17 Pt    0.03347    0.22446   -0.60225
 18 Pt    0.01738   -0.01680   -0.01561
 19 Pt    0.00004   -0.01839   -0.02000
 20 Ru    0.01519   -0.00846   -0.02461
 21 Pt    0.01628   -0.02253    0.00161
 22 Pd    0.00446   -0.00783   -0.01379
 23 Pt    0.01582    0.01982   -0.04023
 24 Ag    0.00477    0.00077    0.08343
 25 Pt    0.00384   -0.00282   -0.01160
 26 Ag    0.01990    0.01090   -0.02415
 27 Pt   -0.00701   -0.02279   -0.06539
 28 Pd    0.05832   -0.06065    0.05268
 29 Pd   -0.05956   -0.02916    0.05747
 30 Ir    0.01613   -0.00755   -0.10824
 31 Pt    0.00224    0.03200   -0.05107
 32 Pd   -0.02880   -0.00872   -0.04264
 33 Pd    0.04954    0.00153   -0.08675
 34 Ag   -0.01090   -0.04127   -0.03602
 35 Pt    0.01738    0.03092    0.08272
 36 Pt    0.03437    0.06938    0.04670
 37 Pt   -0.14379    0.05332    0.01417
 38 Pt    0.11153   -0.11576   -0.09326
 39 Pt    0.05377   -0.00284   -0.02985
 40 Pd   -0.07776   -0.07324   -0.06612
 41 Pd   -0.07639   -0.00834   -0.03532
 42 Pt    0.01884   -0.03325    0.03544
 43 Ag    0.01091   -0.02424    0.06434
 44 Pt   -0.02615    0.10131   -0.05429
 45 O     0.04713   -0.01306   -0.12367

System changes: positions 

Initializing position-dependent things.

Density initialized from wave functions
                                             
                                             
                                             
                                             
                                             
                                             
                        Ag                   
                 Pt            Pt            
            Pt    OPd    APd    Pt           
                                             
       Pt    IPt    PPt    Pd                
                                             
        Pt     Pd    APd    Pt     Ag        
                Pt     Pd     Pt             
                                             
           Pt    APt    ARu    Pt            
                                             
            Pd    PPt    PAg    Ru           
       Pd    PPt    PPd    Pt                
                                             
        Pd     Pt     Pt                     
                                             
                                             
                                             
                                             
                                             

Positions:
   0 Pd     0.000000    1.639149   10.000000    ( 0.0000,  0.0000,  0.0000)
   1 Pt     2.839089    1.639149   10.000000    ( 0.0000,  0.0000,  0.0000)
   2 Pt     5.678177    1.639149   10.000000    ( 0.0000,  0.0000,  0.0000)
   3 Pd     1.419544    4.097872   10.000000    ( 0.0000,  0.0000,  0.0000)
   4 Pd     4.258633    4.097872   10.000000    ( 0.0000,  0.0000,  0.0000)
   5 Pt     7.097722    4.097872   10.000000    ( 0.0000,  0.0000,  0.0000)
   6 Pd     2.839089    6.556595   10.000000    ( 0.0000,  0.0000,  0.0000)
   7 Pt     5.678177    6.556595   10.000000    ( 0.0000,  0.0000,  0.0000)
   8 Ru     8.517266    6.556595   10.000000    ( 0.0000,  0.0000,  0.0000)
   9 Pd     0.000000    0.000000   12.317643    ( 0.0000,  0.0000,  0.0000)
  10 Pt     2.839089    0.000000   12.317643    ( 0.0000,  0.0000,  0.0000)
  11 Pd     5.678177    0.000000   12.317643    ( 0.0000,  0.0000,  0.0000)
  12 Pd     1.419544    2.458723   12.317643    ( 0.0000,  0.0000,  0.0000)
  13 Pt     4.258633    2.458723   12.317643    ( 0.0000,  0.0000,  0.0000)
  14 Ag     7.097722    2.458723   12.317643    ( 0.0000,  0.0000,  0.0000)
  15 Ag     2.839089    4.917446   12.317643    ( 0.0000,  0.0000,  0.0000)
  16 Ag     5.678177    4.917446   12.317643    ( 0.0000,  0.0000,  0.0000)
  17 Pt     8.517266    4.917446   12.317643    ( 0.0000,  0.0000,  0.0000)
  18 Pt     1.384275    0.800237   14.577041    ( 0.0000,  0.0000,  0.0000)
  19 Pt     4.325472    0.817772   14.607905    ( 0.0000,  0.0000,  0.0000)
  20 Ru     7.148506    0.908717   14.681234    ( 0.0000,  0.0000,  0.0000)
  21 Pt     2.841083    3.225893   14.672009    ( 0.0000,  0.0000,  0.0000)
  22 Pd     5.675921    3.256211   14.664101    ( 0.0000,  0.0000,  0.0000)
  23 Pt     8.529929    3.279070   14.641620    ( 0.0000,  0.0000,  0.0000)
  24 Ag     4.279812    5.721214   14.657167    ( 0.0000,  0.0000,  0.0000)
  25 Pt     7.156976    5.765030   14.616455    ( 0.0000,  0.0000,  0.0000)
  26 Ag     9.997523    5.741164   14.632346    ( 0.0000,  0.0000,  0.0000)
  27 Pt    -0.005891    1.657985   16.841894    ( 0.0000,  0.0000,  0.0000)
  28 Pd     2.849155    1.573833   16.902375    ( 0.0000,  0.0000,  0.0000)
  29 Pd     5.677454    1.615298   16.913053    ( 0.0000,  0.0000,  0.0000)
  30 Ir     1.438767    4.057320   16.951084    ( 0.0000,  0.0000,  0.0000)
  31 Pt     4.202491    4.021941   17.002284    ( 0.0000,  0.0000,  0.0000)
  32 Pd     7.070329    4.090540   16.924640    ( 0.0000,  0.0000,  0.0000)
  33 Pd     2.815764    6.600338   16.945204    ( 0.0000,  0.0000,  0.0000)
  34 Ag     5.686214    6.520001   16.995886    ( 0.0000,  0.0000,  0.0000)
  35 Pt     8.530626    6.522594   16.921360    ( 0.0000,  0.0000,  0.0000)
  36 Pt    -0.009908    0.046143   19.226962    ( 0.0000,  0.0000,  0.0000)
  37 Pt     2.759405    0.018773   19.362947    ( 0.0000,  0.0000,  0.0000)
  38 Pt     5.744223   -0.036916   19.330344    ( 0.0000,  0.0000,  0.0000)
  39 Pt     1.362086    2.455574   19.145591    ( 0.0000,  0.0000,  0.0000)
  40 Pd     4.235687    2.523723   19.291161    ( 0.0000,  0.0000,  0.0000)
  41 Pd     7.129686    2.444961   19.233132    ( 0.0000,  0.0000,  0.0000)
  42 Pt     2.792464    4.975700   19.152767    ( 0.0000,  0.0000,  0.0000)
  43 Ag     5.681573    4.931561   19.438967    ( 0.0000,  0.0000,  0.0000)
  44 Pt     8.561461    4.882042   19.159524    ( 0.0000,  0.0000,  0.0000)
  45 O      4.305392    0.763473   20.473066    ( 0.0000,  0.0000,  0.0000)

Unit cell:
           periodic     x           y           z      points  spacing
  1. axis:    yes    8.517266    0.000000    0.000000    40     0.1844
  2. axis:    yes    4.258633    7.376169    0.000000    40     0.1844
  3. axis:    no     0.000000    0.000000   29.270571   140     0.2091

  Lengths:   8.517266   8.517266  29.270571
  Angles:   90.000000  90.000000  60.000000

Effective grid spacing dv^(1/3) = 0.2017

     iter     time        total  log10-change:
                         energy  eigst   dens
iter:   1 14:26:00  -204.592063  -3.68
iter:   2 14:27:01  -292.045450  -2.40  -1.96
iter:   3 14:28:02  -207.188868  -2.80  -1.29
iter:   4 14:29:03  -202.211385  -3.78  -1.88
iter:   5 14:30:04  -201.131256  -4.56  -2.20
iter:   6 14:31:05  -200.959989  -4.87  -2.62
iter:   7 14:32:06  -200.951346c -5.37  -3.11
iter:   8 14:33:07  -200.934559c -5.45  -3.15
iter:   9 14:34:08  -200.948096c -5.89  -3.36
iter:  10 14:35:10  -200.935032c -6.26  -3.11
iter:  11 14:36:13  -200.932959c -6.39  -3.51
iter:  12 14:37:16  -200.932300c -6.18  -3.60
iter:  13 14:38:20  -200.931677c -6.78  -3.77
iter:  14 14:39:24  -200.931188c -6.95  -3.87
iter:  15 14:40:28  -200.934661c -6.91  -3.86
iter:  16 14:41:31  -200.931121c -7.12  -3.50
iter:  17 14:42:35  -200.931107c -7.68c -4.20c

Converged after 17 iterations.

Dipole moment: (31.486405, 12.057615, -0.096526) |e|*Ang

Energy contributions relative to reference atoms: (reference = -14174778.458134)

Kinetic:       -320.311332
Potential:     +175.827280
External:        +0.000000
XC:             -44.194244
Entropy (-ST):   -2.285707
Local:          -11.109957
--------------------------
Free energy:   -202.073960
Extrapolated:  -200.931107

Showing only first 2 kpts
 Kpt  Band  Eigenvalues  Occupancy
  0   364      0.65074    1.04075
  0   365      0.67979    0.89590
  0   366      0.71135    0.74359
  0   367      0.74938    0.57611

  1   364      0.55077    1.49347
  1   365      0.59009    1.33107
  1   366      0.60772    1.25046
  1   367      0.62451    1.17025


Fermi level: 0.65890

No gap

Forces in eV/Ang:
  0 Pd    0.01137   -0.00790   -0.26446
  1 Pt    0.30727   -0.52508    0.37518
  2 Pt   -0.34429   -0.14911    0.00692
  3 Pd   -0.41229    0.18553   -0.08799
  4 Pd    0.21807   -0.22062   -0.24173
  5 Pt    0.22850    0.31733   -0.20001
  6 Pd   -0.22041    0.22520   -0.09898
  7 Pt    0.55027    0.16756    0.07348
  8 Ru   -0.48572    0.05656    1.32499
  9 Pd   -0.21819    0.15978    0.17836
 10 Pt    0.29241    0.01460   -0.22675
 11 Pd    0.04012    0.04923   -0.11003
 12 Pd    0.08846    0.09554   -0.02307
 13 Pt   -0.18277   -0.17267    0.14840
 14 Ag    0.04537   -0.12154    0.02517
 15 Ag    0.01420   -0.07217   -0.11999
 16 Ag   -0.07722   -0.05097    0.06495
 17 Pt    0.03445    0.22632   -0.61146
 18 Pt    0.02081   -0.01095   -0.01381
 19 Pt    0.00021   -0.01894   -0.00158
 20 Ru    0.00530    0.00104   -0.01476
 21 Pt    0.00980   -0.03415    0.00451
 22 Pd    0.00249   -0.02573   -0.00856
 23 Pt    0.01551    0.01685   -0.03103
 24 Ag    0.00801   -0.00053    0.04871
 25 Pt    0.02122    0.00561    0.00124
 26 Ag   -0.00093    0.01674   -0.01594
 27 Pt   -0.00455   -0.01741   -0.04116
 28 Pd    0.03425   -0.03493    0.02667
 29 Pd   -0.04163   -0.00856    0.03905
 30 Ir    0.01249   -0.01072   -0.06814
 31 Pt   -0.00733    0.05151   -0.06922
 32 Pd   -0.00868   -0.01020   -0.03551
 33 Pd    0.07484   -0.01940   -0.11335
 34 Ag   -0.02262   -0.03857   -0.05315
 35 Pt    0.01558    0.02198    0.07258
 36 Pt    0.02356    0.06429    0.03892
 37 Pt    0.04663    0.14046    0.06111
 38 Pt   -0.04527   -0.03010   -0.06749
 39 Pt    0.04755   -0.01142   -0.02830
 40 Pd   -0.05284   -0.19801   -0.02085
 41 Pd   -0.07420   -0.02139   -0.03457
 42 Pt    0.04289   -0.08076    0.00857
 43 Ag   -0.00886   -0.04277    0.05504
 44 Pt   -0.02694    0.11953   -0.04927
 45 O     0.00982   -0.00322   -0.07185

System changes: positions 

Initializing position-dependent things.

Density initialized from wave functions
                                             
                                             
                                             
                                             
                                             
                                             
                        Ag                   
                 Pt            Pt            
            Pt    OPd    APd    Pt           
                                             
       Pt    IPt    PPt    Pd                
                                             
        Pt     Pd    APd    Pt     Ag        
                Pt     Pd     Pt             
                                             
           Pt    APt    ARu    Pt            
                                             
            Pd    PPt    PAg    Ru           
       Pd    PPt    PPd    Pt                
                                             
        Pd     Pt     Pt                     
                                             
                                             
                                             
                                             
                                             

Positions:
   0 Pd     0.000000    1.639149   10.000000    ( 0.0000,  0.0000,  0.0000)
   1 Pt     2.839089    1.639149   10.000000    ( 0.0000,  0.0000,  0.0000)
   2 Pt     5.678177    1.639149   10.000000    ( 0.0000,  0.0000,  0.0000)
   3 Pd     1.419544    4.097872   10.000000    ( 0.0000,  0.0000,  0.0000)
   4 Pd     4.258633    4.097872   10.000000    ( 0.0000,  0.0000,  0.0000)
   5 Pt     7.097722    4.097872   10.000000    ( 0.0000,  0.0000,  0.0000)
   6 Pd     2.839089    6.556595   10.000000    ( 0.0000,  0.0000,  0.0000)
   7 Pt     5.678177    6.556595   10.000000    ( 0.0000,  0.0000,  0.0000)
   8 Ru     8.517266    6.556595   10.000000    ( 0.0000,  0.0000,  0.0000)
   9 Pd     0.000000    0.000000   12.317643    ( 0.0000,  0.0000,  0.0000)
  10 Pt     2.839089    0.000000   12.317643    ( 0.0000,  0.0000,  0.0000)
  11 Pd     5.678177    0.000000   12.317643    ( 0.0000,  0.0000,  0.0000)
  12 Pd     1.419544    2.458723   12.317643    ( 0.0000,  0.0000,  0.0000)
  13 Pt     4.258633    2.458723   12.317643    ( 0.0000,  0.0000,  0.0000)
  14 Ag     7.097722    2.458723   12.317643    ( 0.0000,  0.0000,  0.0000)
  15 Ag     2.839089    4.917446   12.317643    ( 0.0000,  0.0000,  0.0000)
  16 Ag     5.678177    4.917446   12.317643    ( 0.0000,  0.0000,  0.0000)
  17 Pt     8.517266    4.917446   12.317643    ( 0.0000,  0.0000,  0.0000)
  18 Pt     1.384672    0.799899   14.576612    ( 0.0000,  0.0000,  0.0000)
  19 Pt     4.325472    0.817321   14.607598    ( 0.0000,  0.0000,  0.0000)
  20 Ru     7.148766    0.908664   14.680839    ( 0.0000,  0.0000,  0.0000)
  21 Pt     2.841368    3.225247   14.672104    ( 0.0000,  0.0000,  0.0000)
  22 Pd     5.675962    3.255815   14.663820    ( 0.0000,  0.0000,  0.0000)
  23 Pt     8.530307    3.279532   14.640755    ( 0.0000,  0.0000,  0.0000)
  24 Ag     4.279902    5.721227   14.658779    ( 0.0000,  0.0000,  0.0000)
  25 Pt     7.157294    5.765064   14.616284    ( 0.0000,  0.0000,  0.0000)
  26 Ag     9.997765    5.741466   14.631920    ( 0.0000,  0.0000,  0.0000)
  27 Pt    -0.006080    1.657408   16.840721    ( 0.0000,  0.0000,  0.0000)
  28 Pd     2.850240    1.572829   16.903444    ( 0.0000,  0.0000,  0.0000)
  29 Pd     5.676247    1.614930   16.914317    ( 0.0000,  0.0000,  0.0000)
  30 Ir     1.439113    4.057100   16.949003    ( 0.0000,  0.0000,  0.0000)
  31 Pt     4.202453    4.023010   17.000644    ( 0.0000,  0.0000,  0.0000)
  32 Pd     7.069934    4.090332   16.923715    ( 0.0000,  0.0000,  0.0000)
  33 Pd     2.817328    6.600052   16.942652    ( 0.0000,  0.0000,  0.0000)
  34 Ag     5.685764    6.519090   16.994824    ( 0.0000,  0.0000,  0.0000)
  35 Pt     8.531029    6.523252   16.923380    ( 0.0000,  0.0000,  0.0000)
  36 Pt    -0.009242    0.047847   19.228020    ( 0.0000,  0.0000,  0.0000)
  37 Pt     2.757238    0.020635   19.362498    ( 0.0000,  0.0000,  0.0000)
  38 Pt     5.745772   -0.039115   19.327276    ( 0.0000,  0.0000,  0.0000)
  39 Pt     1.363433    2.455128   19.144953    ( 0.0000,  0.0000,  0.0000)
  40 Pd     4.234169    2.520528   19.289662    ( 0.0000,  0.0000,  0.0000)
  41 Pd     7.127871    2.444430   19.232341    ( 0.0000,  0.0000,  0.0000)
  42 Pt     2.793074    4.974463   19.153313    ( 0.0000,  0.0000,  0.0000)
  43 Ag     5.681642    4.930885   19.440261    ( 0.0000,  0.0000,  0.0000)
  44 Pt     8.560900    4.884849   19.158393    ( 0.0000,  0.0000,  0.0000)
  45 O      4.306338    0.764151   20.473891    ( 0.0000,  0.0000,  0.0000)

Unit cell:
           periodic     x           y           z      points  spacing
  1. axis:    yes    8.517266    0.000000    0.000000    40     0.1844
  2. axis:    yes    4.258633    7.376169    0.000000    40     0.1844
  3. axis:    no     0.000000    0.000000   29.270571   140     0.2091

  Lengths:   8.517266   8.517266  29.270571
  Angles:   90.000000  90.000000  60.000000

Effective grid spacing dv^(1/3) = 0.2017

     iter     time        total  log10-change:
                         energy  eigst   dens
iter:   1 14:43:58  -203.057935  -4.26
iter:   2 14:45:01  -263.523374  -2.61  -2.06
iter:   3 14:46:03  -204.941553  -3.00  -1.37
iter:   4 14:47:06  -201.731269  -3.99  -1.96
iter:   5 14:48:09  -201.095083  -4.83  -2.29
iter:   6 14:49:12  -200.945583  -5.07  -2.63
iter:   7 14:50:16  -200.940464c -5.63  -3.47
iter:   8 14:51:19  -200.935317c -5.82  -3.53
iter:   9 14:52:23  -200.938737c -6.23  -3.69
iter:  10 14:53:26  -200.936346c -6.59  -3.47
iter:  11 14:54:30  -200.934927c -6.79  -3.74
iter:  12 14:55:32  -200.934701c -6.97  -3.98
iter:  13 14:56:35  -200.934200c -7.27  -4.19c
iter:  14 14:57:37  -200.934055c -7.67c -4.08c

Converged after 14 iterations.

Dipole moment: (31.383891, 11.980486, -0.099891) |e|*Ang

Energy contributions relative to reference atoms: (reference = -14174778.458134)

Kinetic:       -320.699517
Potential:     +176.173005
External:        +0.000000
XC:             -44.142605
Entropy (-ST):   -2.285760
Local:          -11.122058
--------------------------
Free energy:   -202.076935
Extrapolated:  -200.934055

Showing only first 2 kpts
 Kpt  Band  Eigenvalues  Occupancy
  0   364      0.64949    1.04165
  0   365      0.67868    0.89611
  0   366      0.71021    0.74388
  0   367      0.74772    0.57853

  1   364      0.55007    1.49208
  1   365      0.58902    1.33105
  1   366      0.60704    1.24862
  1   367      0.62328    1.17103


Fermi level: 0.65782

No gap

Forces in eV/Ang:
  0 Pd    0.01131   -0.00808   -0.26728
  1 Pt    0.30427   -0.52052    0.37109
  2 Pt   -0.34159   -0.14546    0.00528
  3 Pd   -0.40933    0.18291   -0.09000
  4 Pd    0.21760   -0.22026   -0.24163
  5 Pt    0.22508    0.31416   -0.20197
  6 Pd   -0.21617    0.22395   -0.10129
  7 Pt    0.54393    0.16516    0.07131
  8 Ru   -0.48300    0.05539    1.31566
  9 Pd   -0.22024    0.15748    0.17881
 10 Pt    0.29131    0.01178   -0.22560
 11 Pd    0.04261    0.04897   -0.10856
 12 Pd    0.08820    0.09716   -0.02457
 13 Pt   -0.18080   -0.16939    0.14771
 14 Ag    0.04449   -0.11929    0.02570
 15 Ag    0.01701   -0.07186   -0.11710
 16 Ag   -0.07815   -0.05216    0.06964
 17 Pt    0.03189    0.22409   -0.60968
 18 Pt    0.01784   -0.00746   -0.00406
 19 Pt    0.00251   -0.01494    0.00870
 20 Ru    0.00493    0.00421   -0.01211
 21 Pt    0.00800   -0.02816    0.01462
 22 Pd    0.00503   -0.02091   -0.00271
 23 Pt    0.01255    0.01483   -0.01923
 24 Ag    0.00843   -0.00675    0.02946
 25 Pt    0.02030   -0.00045    0.00538
 26 Ag   -0.00148    0.01159   -0.00890
 27 Pt    0.00182   -0.00617   -0.01149
 28 Pd    0.01035   -0.01732    0.01722
 29 Pd   -0.01969   -0.00077    0.02311
 30 Ir    0.00780   -0.00612   -0.03434
 31 Pt   -0.01081    0.03243   -0.03718
 32 Pd   -0.00034   -0.01026   -0.01130
 33 Pd    0.05448   -0.01948   -0.05069
 34 Ag   -0.02123   -0.03449   -0.02356
 35 Pt    0.02176   -0.00544    0.04477
 36 Pt    0.02899    0.03634    0.02844
 37 Pt   -0.00473    0.10786    0.06582
 38 Pt   -0.01577   -0.01546   -0.01605
 39 Pt    0.00092    0.00837   -0.03769
 40 Pd   -0.02972   -0.12504   -0.01652
 41 Pd   -0.04186   -0.01264   -0.02970
 42 Pt    0.03123   -0.05220   -0.00130
 43 Ag   -0.01623   -0.02290    0.05107
 44 Pt   -0.01342    0.05854   -0.04751
 45 O     0.03466    0.01257   -0.12124

System changes: positions 

Initializing position-dependent things.

Density initialized from wave functions
                                             
                                             
                                             
                                             
                                             
                                             
                 Pt     Ag                   
                               Pt            
            Pt    OPd    APd    Pt           
              Pt                             
       Pt    Ir     PPt    Pd                
                      Pd                     
        Pt     Pd    Ag     Pt     Ag        
                Pt     Pd     Pt             
                                             
           Pt    APt    ARu    Pt            
                                             
            Pd    PPt    PAg    Ru           
       Pd    PPt    PPd    Pt                
                                             
        Pd     Pt     Pt                     
                                             
                                             
                                             
                                             
                                             

Positions:
   0 Pd     0.000000    1.639149   10.000000    ( 0.0000,  0.0000,  0.0000)
   1 Pt     2.839089    1.639149   10.000000    ( 0.0000,  0.0000,  0.0000)
   2 Pt     5.678177    1.639149   10.000000    ( 0.0000,  0.0000,  0.0000)
   3 Pd     1.419544    4.097872   10.000000    ( 0.0000,  0.0000,  0.0000)
   4 Pd     4.258633    4.097872   10.000000    ( 0.0000,  0.0000,  0.0000)
   5 Pt     7.097722    4.097872   10.000000    ( 0.0000,  0.0000,  0.0000)
[...]
  17 Pt     8.517266    4.917446   12.317643    ( 0.0000,  0.0000,  0.0000)
  18 Pt     1.386281    0.798877   14.575587    ( 0.0000,  0.0000,  0.0000)
  19 Pt     4.325827    0.815898   14.607068    ( 0.0000,  0.0000,  0.0000)
  20 Ru     7.149697    0.908337   14.678488    ( 0.0000,  0.0000,  0.0000)
  21 Pt     2.842777    3.222869   14.672425    ( 0.0000,  0.0000,  0.0000)
  22 Pd     5.676590    3.254301   14.662943    ( 0.0000,  0.0000,  0.0000)
  23 Pt     8.531407    3.280809   14.637921    ( 0.0000,  0.0000,  0.0000)
  24 Ag     4.280738    5.720839   14.663393    ( 0.0000,  0.0000,  0.0000)
  25 Pt     7.158407    5.764778   14.615837    ( 0.0000,  0.0000,  0.0000)
  26 Ag     9.998740    5.742654   14.630062    ( 0.0000,  0.0000,  0.0000)
  27 Pt    -0.006295    1.656497   16.836978    ( 0.0000,  0.0000,  0.0000)
  28 Pd     2.853015    1.568829   16.905920    ( 0.0000,  0.0000,  0.0000)
  29 Pd     5.673228    1.613428   16.916985    ( 0.0000,  0.0000,  0.0000)
  30 Ir     1.440212    4.056551   16.942360    ( 0.0000,  0.0000,  0.0000)
  31 Pt     4.201939    4.024862   16.997452    ( 0.0000,  0.0000,  0.0000)
  32 Pd     7.068656    4.089132   16.921191    ( 0.0000,  0.0000,  0.0000)
  33 Pd     2.821317    6.599645   16.937858    ( 0.0000,  0.0000,  0.0000)
  34 Ag     5.685028    6.515840   16.993407    ( 0.0000,  0.0000,  0.0000)
  35 Pt     8.532831    6.523813   16.927673    ( 0.0000,  0.0000,  0.0000)
  36 Pt    -0.006699    0.052278   19.230397    ( 0.0000,  0.0000,  0.0000)
  37 Pt     2.746129    0.026015   19.367743    ( 0.0000,  0.0000,  0.0000)
  38 Pt     5.753877   -0.046232   19.324217    ( 0.0000,  0.0000,  0.0000)
  39 Pt     1.364151    2.457117   19.140802    ( 0.0000,  0.0000,  0.0000)
  40 Pd     4.229396    2.515210   19.285966    ( 0.0000,  0.0000,  0.0000)
  41 Pd     7.123247    2.443927   19.228632    ( 0.0000,  0.0000,  0.0000)
  42 Pt     2.795108    4.970801   19.153830    ( 0.0000,  0.0000,  0.0000)
  43 Ag     5.681413    4.929013   19.445607    ( 0.0000,  0.0000,  0.0000)
  44 Pt     8.559389    4.890177   19.152689    ( 0.0000,  0.0000,  0.0000)
  45 O      4.312636    0.763256   20.460996    ( 0.0000,  0.0000,  0.0000)

Unit cell:
           periodic     x           y           z      points  spacing
  1. axis:    yes    8.517266    0.000000    0.000000    40     0.1844
  2. axis:    yes    4.258633    7.376169    0.000000    40     0.1844
  3. axis:    no     0.000000    0.000000   29.270571   140     0.2091

  Lengths:   8.517266   8.517266  29.270571
  Angles:   90.000000  90.000000  60.000000

Effective grid spacing dv^(1/3) = 0.2017

     iter     time        total  log10-change:
                         energy  eigst   dens
iter:   1 15:11:43  -205.060231  -3.93
iter:   2 15:12:45  -299.373482  -2.35  -1.94
iter:   3 15:13:47  -207.642105  -2.77  -1.27
iter:   4 15:14:48  -202.261025  -3.75  -1.87
iter:   5 15:15:50  -201.168158  -4.56  -2.19
iter:   6 15:16:50  -200.972397  -4.87  -2.59
iter:   7 15:17:51  -200.966018c -5.32  -3.19
iter:   8 15:18:52  -200.944527c -5.35  -3.14
iter:   9 15:19:54  -200.959536c -5.82  -3.39
iter:  10 15:20:55  -200.945783c -6.26  -3.10
iter:  11 15:21:56  -200.943887c -6.55  -3.55
iter:  12 15:22:57  -200.942823c -6.59  -3.66
iter:  13 15:23:59  -200.942362c -6.95  -3.95
iter:  14 15:25:00  -200.942305c -6.99  -3.81
iter:  15 15:26:02  -200.942784c -7.18  -3.89
iter:  16 15:27:03  -200.941686c -7.22  -3.95
iter:  17 15:28:04  -200.941548c -7.91c -4.15c

Converged after 17 iterations.

Dipole moment: (31.276471, 11.766059, -0.094681) |e|*Ang

Energy contributions relative to reference atoms: (reference = -14174778.458134)

Kinetic:       -319.217082
Potential:     +174.818706
External:        +0.000000
XC:             -44.296933
Entropy (-ST):   -2.283968
Local:          -11.104255
--------------------------
Free energy:   -202.083532
Extrapolated:  -200.941548

Showing only first 2 kpts
 Kpt  Band  Eigenvalues  Occupancy
  0   364      0.65166    1.04105
  0   365      0.68036    0.89792
  0   366      0.71209    0.74470
  0   367      0.74946    0.57978

  1   364      0.55207    1.49222
  1   365      0.59051    1.33355
  1   366      0.61059    1.24152
  1   367      0.62502    1.17253


Fermi level: 0.65987

No gap

Forces in eV/Ang:
  0 Pd    0.01121   -0.00724   -0.26693
  1 Pt    0.30729   -0.52505    0.37285
  2 Pt   -0.34476   -0.14954    0.00566
  3 Pd   -0.41200    0.18630   -0.08961
  4 Pd    0.21787   -0.21997   -0.24222
  5 Pt    0.22820    0.31884   -0.20106
  6 Pd   -0.22157    0.22472   -0.10016
  7 Pt    0.55088    0.16640    0.07268
  8 Ru   -0.48670    0.05551    1.32091
  9 Pd   -0.21998    0.15451    0.18393
 10 Pt    0.29648    0.01193   -0.23258
 11 Pd    0.04272    0.05195   -0.11706
 12 Pd    0.09073    0.09371   -0.02976
 13 Pt   -0.18168   -0.17607    0.14609
 14 Ag    0.04610   -0.11981    0.01707
 15 Ag    0.02186   -0.07165   -0.11586
 16 Ag   -0.08044   -0.04854    0.07125
 17 Pt    0.03323    0.22701   -0.61854
 18 Pt    0.01228   -0.00694   -0.00717
 19 Pt    0.00353   -0.01140    0.01213
 20 Ru    0.00651   -0.00159   -0.01698
 21 Pt    0.00279   -0.01972    0.00682
 22 Pd    0.00306   -0.02160   -0.00418
 23 Pt    0.01490    0.00760   -0.01747
 24 Ag    0.01229   -0.00947   -0.01894
 25 Pt    0.01710    0.00100    0.00272
 26 Ag   -0.00126    0.00509   -0.00579
 27 Pt    0.00743   -0.00998   -0.02304
 28 Pd   -0.00736   -0.01585   -0.01399
 29 Pd   -0.00115   -0.00433   -0.01057
 30 Ir    0.01187    0.00104   -0.02984
 31 Pt   -0.01142    0.01220   -0.03702
 32 Pd   -0.00145   -0.00615   -0.02274
 33 Pd    0.05166   -0.02262   -0.04290
 34 Ag   -0.01183   -0.01692   -0.00881
 35 Pt    0.01945   -0.01058   -0.00020
 36 Pt    0.02936    0.00998   -0.00203
 37 Pt   -0.02589    0.08424    0.05402
 38 Pt   -0.00159   -0.01450   -0.01830
 39 Pt   -0.01871    0.01111   -0.03169
 40 Pd   -0.01378   -0.08303   -0.02518
 41 Pd   -0.03473   -0.02112   -0.03796
 42 Pt    0.02977   -0.04109   -0.03882
 43 Ag   -0.02728   -0.00781    0.02664
 44 Pt   -0.00548    0.03977   -0.04777
 45 O     0.03924   -0.03310   -0.05432

System changes: positions 

Initializing position-dependent things.

Density initialized from wave functions
                                             
                                             
                                             
                                             
                                             
                                             
                 Pt     Ag                   
                               Pt            
            Pt    OPd    APd    Pt           
              Pt                             
       Pt    Ir     PPt    Pd                
                      Pd                     
        Pt     Pd    Ag     Pt     Ag        
                Pt     Pd     Pt             
                                             
           Pt    APt    ARu    Pt            
                                             
            Pd    PPt    PAg    Ru           
       Pd    PPt    PPd    Pt                
                                             
        Pd     Pt     Pt                     
                                             
                                             
                                             
                                             
                                             

Positions:
   0 Pd     0.000000    1.639149   10.000000    ( 0.0000,  0.0000,  0.0000)
   1 Pt     2.839089    1.639149   10.000000    ( 0.0000,  0.0000,  0.0000)
   2 Pt     5.678177    1.639149   10.000000    ( 0.0000,  0.0000,  0.0000)
   3 Pd     1.419544    4.097872   10.000000    ( 0.0000,  0.0000,  0.0000)
   4 Pd     4.258633    4.097872   10.000000    ( 0.0000,  0.0000,  0.0000)
   5 Pt     7.097722    4.097872   10.000000    ( 0.0000,  0.0000,  0.0000)
   6 Pd     2.839089    6.556595   10.000000    ( 0.0000,  0.0000,  0.0000)
   7 Pt     5.678177    6.556595   10.000000    ( 0.0000,  0.0000,  0.0000)
   8 Ru     8.517266    6.556595   10.000000    ( 0.0000,  0.0000,  0.0000)
   9 Pd     0.000000    0.000000   12.317643    ( 0.0000,  0.0000,  0.0000)
  10 Pt     2.839089    0.000000   12.317643    ( 0.0000,  0.0000,  0.0000)
  11 Pd     5.678177    0.000000   12.317643    ( 0.0000,  0.0000,  0.0000)
  12 Pd     1.419544    2.458723   12.317643    ( 0.0000,  0.0000,  0.0000)
  13 Pt     4.258633    2.458723   12.317643    ( 0.0000,  0.0000,  0.0000)
  14 Ag     7.097722    2.458723   12.317643    ( 0.0000,  0.0000,  0.0000)
  15 Ag     2.839089    4.917446   12.317643    ( 0.0000,  0.0000,  0.0000)
  16 Ag     5.678177    4.917446   12.317643    ( 0.0000,  0.0000,  0.0000)
  17 Pt     8.517266    4.917446   12.317643    ( 0.0000,  0.0000,  0.0000)
  18 Pt     1.387095    0.798508   14.575141    ( 0.0000,  0.0000,  0.0000)
  19 Pt     4.325996    0.815244   14.607216    ( 0.0000,  0.0000,  0.0000)
  20 Ru     7.150011    0.908318   14.677467    ( 0.0000,  0.0000,  0.0000)
  21 Pt     2.843289    3.221637   14.672444    ( 0.0000,  0.0000,  0.0000)
  22 Pd     5.676884    3.253343   14.662579    ( 0.0000,  0.0000,  0.0000)
  23 Pt     8.531935    3.281287   14.636797    ( 0.0000,  0.0000,  0.0000)
  24 Ag     4.281278    5.720535   14.664318    ( 0.0000,  0.0000,  0.0000)
  25 Pt     7.159160    5.764757   14.615835    ( 0.0000,  0.0000,  0.0000)
  26 Ag     9.998884    5.743208   14.629319    ( 0.0000,  0.0000,  0.0000)
  27 Pt    -0.006284    1.656256   16.835513    ( 0.0000,  0.0000,  0.0000)
  28 Pd     2.853757    1.567278   16.906282    ( 0.0000,  0.0000,  0.0000)
  29 Pd     5.672328    1.612976   16.917544    ( 0.0000,  0.0000,  0.0000)
  30 Ir     1.440600    4.056301   16.940105    ( 0.0000,  0.0000,  0.0000)
  31 Pt     4.201628    4.025608   16.996091    ( 0.0000,  0.0000,  0.0000)
  32 Pd     7.068360    4.088569   16.920126    ( 0.0000,  0.0000,  0.0000)
  33 Pd     2.823421    6.599157   16.935752    ( 0.0000,  0.0000,  0.0000)
  34 Ag     5.684726    6.514506   16.992859    ( 0.0000,  0.0000,  0.0000)
  35 Pt     8.533594    6.523858   16.928928    ( 0.0000,  0.0000,  0.0000)
  36 Pt    -0.005691    0.053776   19.231044    ( 0.0000,  0.0000,  0.0000)
  37 Pt     2.743408    0.029261   19.370947    ( 0.0000,  0.0000,  0.0000)
  38 Pt     5.755506   -0.048318   19.323433    ( 0.0000,  0.0000,  0.0000)
  39 Pt     1.363774    2.458447   19.138907    ( 0.0000,  0.0000,  0.0000)
  40 Pd     4.227819    2.511985   19.284521    ( 0.0000,  0.0000,  0.0000)
  41 Pd     7.121345    2.443660   19.226769    ( 0.0000,  0.0000,  0.0000)
  42 Pt     2.796381    4.968579   19.153243    ( 0.0000,  0.0000,  0.0000)
  43 Ag     5.680900    4.928041   19.447830    ( 0.0000,  0.0000,  0.0000)
  44 Pt     8.558722    4.892392   19.150148    ( 0.0000,  0.0000,  0.0000)
  45 O      4.315086    0.762007   20.455246    ( 0.0000,  0.0000,  0.0000)

Unit cell:
           periodic     x           y           z      points  spacing
  1. axis:    yes    8.517266    0.000000    0.000000    40     0.1844
  2. axis:    yes    4.258633    7.376169    0.000000    40     0.1844
  3. axis:    no     0.000000    0.000000   29.270571   140     0.2091

  Lengths:   8.517266   8.517266  29.270571
  Angles:   90.000000  90.000000  60.000000

Effective grid spacing dv^(1/3) = 0.2017

     iter     time        total  log10-change:
                         energy  eigst   dens
iter:   1 15:29:26  -202.000762  -4.47
iter:   2 15:30:28  -236.809572  -2.93  -2.21
iter:   3 15:31:29  -202.076957  -3.23  -1.48
iter:   4 15:32:31  -201.076864  -4.43  -2.23
iter:   5 15:33:33  -201.002852  -5.33  -2.71
iter:   6 15:34:35  -200.956097c -5.47  -2.89
iter:   7 15:35:37  -200.951825c -6.04  -3.42
iter:   8 15:36:38  -200.945008c -5.98  -3.51
iter:   9 15:37:40  -200.945538c -6.64  -3.80
iter:  10 15:38:42  -200.945333c -6.99  -3.91
iter:  11 15:39:44  -200.945035c -6.95  -3.96
iter:  12 15:40:45  -200.944428c -7.29  -4.20c
iter:  13 15:41:46  -200.944524c -7.76c -4.14c

Converged after 13 iterations.

Dipole moment: (31.201295, 11.598332, -0.094618) |e|*Ang

Energy contributions relative to reference atoms: (reference = -14174778.458134)

Kinetic:       -319.884413
Potential:     +175.506677
External:        +0.000000
XC:             -44.319774
Entropy (-ST):   -2.281655
Local:          -11.106187
--------------------------
Free energy:   -202.085352
Extrapolated:  -200.944524

Showing only first 2 kpts
 Kpt  Band  Eigenvalues  Occupancy
  0   364      0.65333    1.04134
  0   365      0.68191    0.89883
  0   366      0.71413    0.74323
  0   367      0.75070    0.58182

  1   364      0.55379    1.49227
  1   365      0.59185    1.33529
  1   366      0.61238    1.24126
  1   367      0.62658    1.17334


Fermi level: 0.66160

No gap

Forces in eV/Ang:
  0 Pd    0.01002   -0.00809   -0.26155
  1 Pt    0.30636   -0.52365    0.37854
  2 Pt   -0.34298   -0.14806    0.01182
  3 Pd   -0.41067    0.18553   -0.08429
  4 Pd    0.21883   -0.21860   -0.23463
  5 Pt    0.22579    0.31678   -0.19332
  6 Pd   -0.21908    0.22481   -0.09586
  7 Pt    0.54692    0.16516    0.07971
  8 Ru   -0.48526    0.05638    1.32844
  9 Pd   -0.22019    0.14927    0.18741
 10 Pt    0.29474    0.00882   -0.22762
 11 Pd    0.04539    0.05301   -0.11388
 12 Pd    0.09128    0.09525   -0.02572
 13 Pt   -0.17897   -0.17164    0.14941
 14 Ag    0.04379   -0.11791    0.01715
 15 Ag    0.02642   -0.07260   -0.10769
 16 Ag   -0.08308   -0.04922    0.07929
 17 Pt    0.03223    0.22549   -0.61530
 18 Pt    0.00588   -0.00322    0.00399
 19 Pt    0.00616   -0.00648    0.02215
 20 Ru    0.00258    0.00263   -0.00439
 21 Pt    0.00118   -0.01133    0.00181
 22 Pd    0.00330   -0.01617    0.00210
 23 Pt    0.00706   -0.00064   -0.00127
 24 Ag    0.01359   -0.01338   -0.03716
 25 Pt    0.01407   -0.00125    0.01233
 26 Ag   -0.00012    0.00207    0.00122
 27 Pt    0.00608   -0.00250   -0.00495
 28 Pd   -0.01987   -0.00235   -0.02064
 29 Pd    0.01527    0.00133   -0.02281
 30 Ir    0.00394    0.00322   -0.00174
 31 Pt   -0.00314   -0.00531   -0.01206
 32 Pd    0.00944   -0.00548   -0.00923
 33 Pd    0.02541   -0.01664   -0.00171
 34 Ag    0.00529   -0.00695    0.01609
 35 Pt    0.01188   -0.00962   -0.01713
 36 Pt    0.00678   -0.00138   -0.00984
 37 Pt   -0.00968    0.03948    0.03530
 38 Pt   -0.00329   -0.01137   -0.02781
 39 Pt   -0.04394    0.02846   -0.02187
 40 Pd    0.01501   -0.03192   -0.03205
 41 Pd   -0.00707   -0.00795   -0.02774
 42 Pt    0.01676   -0.03176   -0.03922
 43 Ag   -0.02160   -0.00592    0.02175
 44 Pt   -0.00333    0.00990   -0.02583
 45 O     0.02333   -0.03134   -0.01490

Timing:                                      incl.     excl.
-------------------------------------------------------------------
Density initialized from wave functions:    28.220    28.219   0.2% |
 Symmetrize density:                         0.000     0.000   0.0% |
Forces:                                    140.417   140.417   1.1% |
Hamiltonian:                                14.942     0.087   0.0% |
 Atomic:                                     1.274     0.478   0.0% |
  XC Correction:                             0.796     0.796   0.0% |
 Calculate atomic Hamiltonians:              9.866     9.866   0.1% |
 Communicate:                                1.234     1.234   0.0% |
 Initialize Hamiltonian:                     0.000     0.000   0.0% |
 Poisson:                                    0.060     0.060   0.0% |
 XC 3D grid:                                 2.421     2.421   0.0% |
LCAO initialization:                       127.482     2.632   0.0% |
 LCAO eigensolver:                          13.940     0.001   0.0% |
  Blacs Orbital Layouts:                     0.293     0.000   0.0% |
   General diagonalize:                      0.288     0.288   0.0% |
   Redistribute coefs:                       0.003     0.003   0.0% |
   Send coefs to domains:                    0.002     0.002   0.0% |
  Calculate projections:                     0.003     0.003   0.0% |
  Distribute overlap matrix:                12.838     0.000   0.0% |
   Scalapack redistribute:                   0.006     0.006   0.0% |
   blocked summation:                       12.831    12.831   0.1% |
  Potential matrix:                          0.756     0.756   0.0% |
  SparseAtomicCorrection:                    0.008     0.008   0.0% |
  Sum over cells:                            0.041     0.041   0.0% |
 LCAO to grid:                             107.876   107.876   0.9% |
 Set positions (LCAO WFS):                   3.034     0.005   0.0% |
  Basic WFS set positions:                   0.003     0.003   0.0% |
  Basis functions set positions:             0.000     0.000   0.0% |
  P tci:                                     0.000     0.000   0.0% |
  ST tci:                                    0.285     0.285   0.0% |
  Scalapack redistribute:                    0.010     0.010   0.0% |
  blocked summation:                         2.619     2.619   0.0% |
  mktci:                                     0.112     0.112   0.0% |
PWDescriptor:                                0.587     0.587   0.0% |
Redistribute:                                0.011     0.011   0.0% |
SCF-cycle:                               12029.933   121.829   1.0% |
 Davidson:                               11063.310  2493.277  20.1% |-------|
  Apply H:                                1206.941  1182.765   9.5% |---|
   HMM T:                                   24.176    24.176   0.2% |
  Subspace diag:                          1280.245     0.040   0.0% |
   calc_h_matrix:                          846.801   237.414   1.9% ||
    Apply H:                               609.386   595.959   4.8% |-|
     HMM T:                                 13.427    13.427   0.1% |
   diagonalize:                             42.779    42.779   0.3% |
   rotate_psi:                             390.625   390.625   3.2% ||
  calc. matrices:                         4262.880  2496.217  20.1% |-------|
   Apply H:                               1766.664  1730.452  14.0% |-----|
    HMM T:                                  36.212    36.212   0.3% |
  diagonalize:                             615.739   615.739   5.0% |-|
  rotate_psi:                             1204.227  1204.227   9.7% |---|
 Density:                                  537.240     0.009   0.0% |
  Atomic density matrices:                   3.798     3.798   0.0% |
  Mix:                                     197.260   197.260   1.6% ||
  Multipole moments:                         0.466     0.466   0.0% |
  Pseudo density:                          335.707   335.698   2.7% ||
   Symmetrize density:                       0.009     0.009   0.0% |
 Hamiltonian:                              266.845     1.553   0.0% |
  Atomic:                                   16.309     3.054   0.0% |
   XC Correction:                           13.255    13.255   0.1% |
  Calculate atomic Hamiltonians:           171.638   171.638   1.4% ||
  Communicate:                              32.113    32.113   0.3% |
  Poisson:                                   0.995     0.995   0.0% |
  XC 3D grid:                               44.236    44.236   0.4% |
 Orthonormalize:                            40.710     0.004   0.0% |
  calc_s_matrix:                             6.553     6.553   0.1% |
  inverse-cholesky:                          2.042     2.042   0.0% |
  projections:                              21.063    21.063   0.2% |
  rotate_psi_s:                             11.047    11.047   0.1% |
Set symmetry:                                0.002     0.002   0.0% |
Other:                                      50.946    50.946   0.4% |
-------------------------------------------------------------------
Total:                                             12392.540 100.0%

Memory usage: 864.18 MiB
Date: Fri Jun 14 15:42:02 2024
