
  ___ ___ ___ _ _ _  
 |   |   |_  | | | | 
 | | | | | . | | | | 
 |__ |  _|___|_____|  22.1.0
 |___|_|             

User:   clausen@node489.cluster
Date:   Thu Jun 13 20:19:02 2024
Arch:   x86_64
Pid:    10193
Python: 3.10.4
gpaw:   /groups/kemi/clausen/miniconda3/envs/gpaw22/lib/python3.10/site-packages/gpaw
_gpaw:  /groups/kemi/clausen/miniconda3/envs/gpaw22/lib/python3.10/site-packages/
        _gpaw.cpython-310-x86_64-linux-gnu.so
ase:    /groups/kemi/clausen/miniconda3/envs/gpaw22/lib/python3.10/site-packages/ase (version 3.22.1)
numpy:  /groups/kemi/clausen/miniconda3/envs/gpaw22/lib/python3.10/site-packages/numpy (version 1.23.1)
scipy:  /groups/kemi/clausen/miniconda3/envs/gpaw22/lib/python3.10/site-packages/scipy (version 1.8.1)
libxc:  5.2.3
units:  Angstrom and eV
cores: 24
OpenMP: True
OMP_NUM_THREADS: 1

Input parameters:
  eigensolver: {name: dav,
                niter: 3}
  kpts: [4 4 1]
  mixer: {backend: pulay,
          beta: 0.05,
          method: difference,
          nmaxold: 5,
          weight: 50.0}
  mode: {ecut: 400.0,
         name: pw}
  xc: RPBE

System changes: positions, numbers, cell, pbc, initial_charges, initial_magmoms 

Initialize ...

Pd-setup:
  name: Palladium
  id: 6da19bfba079f22767af9506641940b9
  Z: 46.0
  valence: 16
  core: 30
  charge: 0.0
  file: /groups/kemi/clausen/miniconda3/envs/gpaw22/share/gpaw/Pd.RPBE.gz
  compensation charges: gauss, rc=0.38, lmax=2
  cutoffs: 2.38(filt), 2.28(core),
  valence states:
                energy  radius
    5s(0.00)    -3.225   1.228
    4p(6.00)   -51.131   1.360
    5p(0.00)    -0.373   1.360
    4d(10.00)    -3.964   1.228
    *s          23.987   1.228
    *d          23.247   1.228

  Using partial waves for Pd as LCAO basis

Pt-setup:
  name: Platinum
  id: f04f522592575c47ad794f6b4a415b4b
  Z: 78.0
  valence: 16
  core: 62
  charge: 0.0
  file: /groups/kemi/clausen/miniconda3/envs/gpaw22/share/gpaw/Pt.RPBE.gz
  compensation charges: gauss, rc=0.41, lmax=2
  cutoffs: 2.26(filt), 2.26(core),
  valence states:
                energy  radius
    6s(1.00)    -5.516   1.307
    5p(6.00)   -55.971   1.371
    6p(0.00)    -0.856   1.371
    5d(9.00)    -6.087   1.307
    *s          21.695   1.307
    *d          21.125   1.307

  Using partial waves for Pt as LCAO basis

Ru-setup:
  name: Ruthenium
  id: 76477906e28f51dc1b29884d53556fe9
  Z: 44.0
  valence: 16
  core: 28
  charge: 0.0
  file: /groups/kemi/clausen/miniconda3/envs/gpaw22/share/gpaw/Ru.RPBE.gz
  compensation charges: gauss, rc=0.39, lmax=2
  cutoffs: 2.16(filt), 1.30(core),
  valence states:
                energy  radius
    4s(2.00)   -76.255   1.281
    5s(1.00)    -4.126   1.281
    4p(6.00)   -46.371   1.286
    5p(0.00)    -0.913   1.286
    4d(7.00)    -5.146   1.254
    *d          22.066   1.254

  Using partial waves for Ru as LCAO basis

Ag-setup:
  name: Silver
  id: c05e55bab2c3858b3f9398f6d75cb77c
  Z: 47.0
  valence: 17
  core: 30
  charge: 0.0
  file: /groups/kemi/clausen/miniconda3/envs/gpaw22/share/gpaw/Ag.RPBE.gz
  compensation charges: gauss, rc=0.40, lmax=2
  cutoffs: 2.35(filt), 2.19(core),
  valence states:
                energy  radius
    5s(1.00)    -4.277   1.286
    4p(6.00)   -58.523   1.328
    5p(0.00)    -0.755   1.328
    4d(10.00)    -7.386   1.180
    *s          22.934   1.286
    *d          19.826   1.180

  Using partial waves for Ag as LCAO basis

Ir-setup:
  name: Iridium
  id: 73b603359d1d5397a85ae3c2440f9033
  Z: 77.0
  valence: 15
  core: 62
  charge: 0.0
  file: /groups/kemi/clausen/miniconda3/envs/gpaw22/share/gpaw/Ir.RPBE.gz
  compensation charges: gauss, rc=0.40, lmax=2
  cutoffs: 2.40(filt), 2.36(core),
  valence states:
                energy  radius
    6s(2.00)    -6.219   1.296
    5p(6.00)   -54.684   1.328
    6p(0.00)    -1.215   1.328
    5d(7.00)    -7.118   1.286
    *s          20.992   1.296
    *d          20.093   1.286

  Using partial waves for Ir as LCAO basis

O-setup:
  name: Oxygen
  id: 08071ca1eed670e7821b24b7eb4d558c
  Z: 8.0
  valence: 6
  core: 2
  charge: 0.0
  file: /groups/kemi/clausen/miniconda3/envs/gpaw22/share/gpaw/O.RPBE.gz
  compensation charges: gauss, rc=0.21, lmax=2
  cutoffs: 1.17(filt), 0.83(core),
  valence states:
                energy  radius
    2s(2.00)   -24.041   0.688
    2p(4.00)    -8.984   0.598
    *s           3.170   0.688
    *p          18.228   0.598
    *d           0.000   0.619

  Using partial waves for O as LCAO basis

H-setup:
  name: Hydrogen
  id: ea3f9156a1dc40d47a60fdce8f8bd75d
  Z: 1.0
  valence: 1
  core: 0
  charge: 0.0
  file: /groups/kemi/clausen/miniconda3/envs/gpaw22/share/gpaw/H.RPBE.gz
  compensation charges: gauss, rc=0.15, lmax=2
  cutoffs: 0.85(filt), 0.53(core),
  valence states:
                energy  radius
    1s(1.00)    -6.572   0.476
    *s          20.639   0.476
    *p           0.000   0.476

  Using partial waves for H as LCAO basis

Reference energy: -14174791.127075

Spin-paired calculation

Convergence criteria:
 Maximum [total energy] change in last 3 cyles: 0.0005 eV / electron
 Maximum integral of absolute [dens]ity change: 0.0001 electrons / valence electron
 Maximum integral of absolute [eigenst]ate change: 4e-08 eV^2 / valence electron
 Maximum number of scf [iter]ations: 333
 (Square brackets indicate name in SCF output, whereas a 'c' in
 the SCF output indicates the quantity has converged.)

Symmetries present (total): 1

  ( 1  0  0)
  ( 0  1  0)
  ( 0  0  1)

16 k-points: 4 x 4 x 1 Monkhorst-Pack grid
8 k-points in the irreducible part of the Brillouin zone
       k-points in crystal coordinates                weights
   0:     0.12500000   -0.37500000    0.00000000          2/16
   1:     0.12500000   -0.12500000    0.00000000          2/16
   2:     0.12500000    0.12500000    0.00000000          2/16
   3:     0.12500000    0.37500000    0.00000000          2/16
   4:     0.37500000   -0.37500000    0.00000000          2/16
   5:     0.37500000   -0.12500000    0.00000000          2/16
   6:     0.37500000    0.12500000    0.00000000          2/16
   7:     0.37500000    0.37500000    0.00000000          2/16

Wave functions: Plane wave expansion
  Cutoff energy: 400.000 eV
  Number of coefficients (min, max): 33332, 33436
  Pulay-stress correction: 0.000000 eV/Ang^3 (de/decut=0.000000)
  Using FFTW library
  ScaLapack parameters: grid=3x1, blocksize=64
  Wavefunction extrapolation:
    Improved wavefunction reuse through dual PAW basis 

Occupation numbers: Fermi-Dirac: width=0.1000 eV
 

Eigensolver
   Davidson(niter=3) 

Densities:
  Coarse grid: 40*40*140 grid
  Fine grid: 80*80*280 grid
  Total Charge: 0.000000 

Density mixing:
  Method: separate
  Backend: pulay
  Linear mixing parameter: 0.05
  Mixing with 5 old densities
  Damping of long wave oscillations: 50 

Hamiltonian:
  XC and Coulomb potentials evaluated on a 80*80*280 grid
  Using the RPBE Exchange-Correlation functional
  External potential:
    NoExternalPotential
 

XC parameters: RPBE with 2 nearest neighbor stencil

Memory estimate:
  Process memory now: 192.84 MiB
  Calculator: 561.53 MiB
    Density: 50.45 MiB
      Arrays: 14.92 MiB
      Localized functions: 29.79 MiB
      Mixer: 5.74 MiB
    Hamiltonian: 10.71 MiB
      Arrays: 9.75 MiB
      XC: 0.00 MiB
      Poisson: 0.00 MiB
      vbar: 0.96 MiB
    Wavefunctions: 500.36 MiB
      Arrays psit_nG: 226.53 MiB
      Eigensolver: 259.17 MiB
      Projections: 1.87 MiB
      Projectors: 4.00 MiB
      PW-descriptor: 8.80 MiB

Total number of cores used: 24
Parallelization over k-points: 8
Domain decomposition: 1 x 1 x 3
                      2 x 2 x 6 (xc only)

Number of atoms: 47
Number of atomic orbitals: 547
Number of bands in calculation: 444
Number of valence electrons: 733
Bands to converge: occupied

... initialized

Initializing position-dependent things.

Density initialized from atomic densities
Creating initial wave functions:
  444 bands from LCAO basis set

                                             
                                             
                                             
                                             
                                             
                                             
                     H                       
                   O                         
                 Pt     Ag     Pt            
                                             
            Pt    PPd    APd    Pt           
       Pt    IPt    PPt    Pd                
                                             
        Pt     Pd    APd    Pt     Ag        
                                             
                Pt     Pd     Pt             
           Pt    APt    ARu    Pt            
                                             
            Pd    PPt    PAg    Ru           
       Pd     Pt     Pd                      
             Pd     Pd     Pt                
        Pd     Pt     Pt                     
                                             
                                             
                                             
                                             
                                             

Positions:
   0 Pd     0.000000    1.639149   10.000000    ( 0.0000,  0.0000,  0.0000)
   1 Pt     2.839089    1.639149   10.000000    ( 0.0000,  0.0000,  0.0000)
   2 Pt     5.678177    1.639149   10.000000    ( 0.0000,  0.0000,  0.0000)
   3 Pd     1.419544    4.097872   10.000000    ( 0.0000,  0.0000,  0.0000)
   4 Pd     4.258633    4.097872   10.000000    ( 0.0000,  0.0000,  0.0000)
   5 Pt     7.097722    4.097872   10.000000    ( 0.0000,  0.0000,  0.0000)
   6 Pd     2.839089    6.556595   10.000000    ( 0.0000,  0.0000,  0.0000)
   7 Pt     5.678177    6.556595   10.000000    ( 0.0000,  0.0000,  0.0000)
   8 Ru     8.517266    6.556595   10.000000    ( 0.0000,  0.0000,  0.0000)
   9 Pd     0.000000    0.000000   12.317643    ( 0.0000,  0.0000,  0.0000)
  10 Pt     2.839089    0.000000   12.317643    ( 0.0000,  0.0000,  0.0000)
  11 Pd     5.678177    0.000000   12.317643    ( 0.0000,  0.0000,  0.0000)
  12 Pd     1.419544    2.458723   12.317643    ( 0.0000,  0.0000,  0.0000)
  13 Pt     4.258633    2.458723   12.317643    ( 0.0000,  0.0000,  0.0000)
  14 Ag     7.097722    2.458723   12.317643    ( 0.0000,  0.0000,  0.0000)
  15 Ag     2.839089    4.917446   12.317643    ( 0.0000,  0.0000,  0.0000)
  16 Ag     5.678177    4.917446   12.317643    ( 0.0000,  0.0000,  0.0000)
  17 Pt     8.517266    4.917446   12.317643    ( 0.0000,  0.0000,  0.0000)
  18 Pt     1.382601    0.802015   14.574458    ( 0.0000,  0.0000,  0.0000)
  19 Pt     4.320375    0.816336   14.613039    ( 0.0000,  0.0000,  0.0000)
  20 Ru     7.144265    0.918131   14.702206    ( 0.0000,  0.0000,  0.0000)
  21 Pt     2.831254    3.224549   14.674209    ( 0.0000,  0.0000,  0.0000)
  22 Pd     5.669505    3.253449   14.666412    ( 0.0000,  0.0000,  0.0000)
  23 Pt     8.531860    3.282380   14.648110    ( 0.0000,  0.0000,  0.0000)
  24 Ag     4.274318    5.722991   14.646070    ( 0.0000,  0.0000,  0.0000)
  25 Pt     7.164045    5.771726   14.621475    ( 0.0000,  0.0000,  0.0000)
  26 Ag     9.986908    5.738787   14.643456    ( 0.0000,  0.0000,  0.0000)
  27 Pt    -0.010030    1.649760   16.860047    ( 0.0000,  0.0000,  0.0000)
  28 Pd     2.846447    1.596866   16.907942    ( 0.0000,  0.0000,  0.0000)
  29 Pd     5.675289    1.629573   16.927321    ( 0.0000,  0.0000,  0.0000)
  30 Ir     1.434330    4.054121   16.976739    ( 0.0000,  0.0000,  0.0000)
  31 Pt     4.206017    4.046333   16.977057    ( 0.0000,  0.0000,  0.0000)
  32 Pd     7.080668    4.096815   16.929692    ( 0.0000,  0.0000,  0.0000)
  33 Pd     2.838049    6.583929   16.905471    ( 0.0000,  0.0000,  0.0000)
  34 Ag     5.672922    6.523405   16.970943    ( 0.0000,  0.0000,  0.0000)
  35 Pt     8.525101    6.536969   16.950374    ( 0.0000,  0.0000,  0.0000)
  36 Pt    -0.017716    0.053004   19.239954    ( 0.0000,  0.0000,  0.0000)
  37 Pt     2.857597    0.044181   19.266473    ( 0.0000,  0.0000,  0.0000)
  38 Pt     5.659519   -0.012970   19.233800    ( 0.0000,  0.0000,  0.0000)
  39 Pt     1.394642    2.415452   19.172426    ( 0.0000,  0.0000,  0.0000)
  40 Pd     4.249890    2.430035   19.273035    ( 0.0000,  0.0000,  0.0000)
  41 Pd     7.120027    2.427105   19.248801    ( 0.0000,  0.0000,  0.0000)
  42 Pt     2.796750    4.960022   19.159701    ( 0.0000,  0.0000,  0.0000)
  43 Ag     5.679377    4.925181   19.423236    ( 0.0000,  0.0000,  0.0000)
  44 Pt     8.558870    4.929592   19.192007    ( 0.0000,  0.0000,  0.0000)
  45 O      4.249890    2.430035   21.423236    ( 0.0000,  0.0000,  0.0000)
  46 H      4.899890    3.080035   21.823236    ( 0.0000,  0.0000,  0.0000)

Unit cell:
           periodic     x           y           z      points  spacing
  1. axis:    yes    8.517266    0.000000    0.000000    40     0.1844
  2. axis:    yes    4.258633    7.376169    0.000000    40     0.1844
  3. axis:    no     0.000000    0.000000   29.270571   140     0.2091

  Lengths:   8.517266   8.517266  29.270571
  Angles:   90.000000  90.000000  60.000000

Effective grid spacing dv^(1/3) = 0.2017

     iter     time        total  log10-change:
                         energy  eigst   dens
iter:   1 20:22:43  -261.633026
iter:   2 20:23:49  -226.387583  -1.64  -1.20
iter:   3 20:24:57  -259.132415  -2.15  -1.36
iter:   4 20:26:04  -230.388264  -2.33  -1.25
iter:   5 20:27:12  -230.177363  -2.21  -1.37
iter:   6 20:28:20  -211.966278  -2.71  -1.42
iter:   7 20:29:28  -207.040934  -2.92  -1.58
iter:   8 20:30:36  -206.034821  -3.47  -1.74
iter:   9 20:31:44  -208.733246  -2.99  -1.77
iter:  10 20:32:54  -208.666944  -3.76  -1.76
iter:  11 20:34:02  -207.817308  -2.93  -1.75
iter:  12 20:35:10  -204.965895  -3.51  -1.88
iter:  13 20:36:19  -204.752177  -3.80  -2.10
iter:  14 20:37:27  -204.667461c -4.31  -2.21
iter:  15 20:38:35  -204.682573c -4.15  -2.26
iter:  16 20:39:43  -204.506723c -4.09  -2.29
iter:  17 20:40:52  -205.556634  -3.96  -2.41
iter:  18 20:42:01  -204.589457  -4.01  -2.14
iter:  19 20:43:10  -204.376261  -4.28  -2.42
iter:  20 20:44:19  -204.343709c -4.44  -2.72
iter:  21 20:45:28  -204.321152c -5.31  -2.82
iter:  22 20:46:37  -204.327729c -5.55  -2.95
iter:  23 20:47:46  -204.317223c -5.35  -2.95
iter:  24 20:48:55  -204.317993c -5.63  -3.10
iter:  25 20:50:05  -204.317453c -5.91  -3.13
iter:  26 20:51:14  -204.315555c -5.54  -3.23
iter:  27 20:52:24  -204.317920c -5.76  -3.37
iter:  28 20:53:33  -204.316037c -6.47  -3.37
iter:  29 20:54:42  -204.315773c -6.89  -3.56
iter:  30 20:55:49  -204.315411c -6.50  -3.58
iter:  31 20:56:57  -204.316540c -6.71  -3.72
iter:  32 20:58:06  -204.315674c -7.27  -3.75
iter:  33 20:59:15  -204.315881c -7.15  -3.91
iter:  34 21:00:24  -204.315359c -6.90  -4.03c
iter:  35 21:01:33  -204.315728c -7.28  -4.18c
iter:  36 21:02:42  -204.315492c -7.69c -4.26c

Converged after 36 iterations.

Dipole moment: (28.692670, 11.143874, -0.257827) |e|*Ang

Energy contributions relative to reference atoms: (reference = -14174791.127075)

Kinetic:       -332.976510
Potential:     +186.327507
External:        +0.000000
XC:             -45.445423
Entropy (-ST):   -2.360278
Local:          -11.040926
--------------------------
Free energy:   -205.495631
Extrapolated:  -204.315492

Showing only first 2 kpts
 Kpt  Band  Eigenvalues  Occupancy
  0   364      0.56170    1.09251
  0   365      0.59912    0.90596
  0   366      0.64388    0.69220
  0   367      0.64805    0.67341

  1   364      0.46195    1.53098
  1   365      0.49408    1.40603
  1   366      0.51233    1.32715
  1   367      0.53988    1.19915


Fermi level: 0.58025

No gap

Forces in eV/Ang:
  0 Pd    0.01354   -0.00472   -0.26508
  1 Pt    0.30689   -0.53011    0.38488
  2 Pt   -0.34385   -0.14294    0.02050
  3 Pd   -0.41448    0.17825   -0.08968
  4 Pd    0.22139   -0.22607   -0.24524
  5 Pt    0.22725    0.31679   -0.19196
  6 Pd   -0.21659    0.23073   -0.10419
  7 Pt    0.55300    0.16871    0.07985
  8 Ru   -0.49153    0.06096    1.31902
  9 Pd   -0.22946    0.15758    0.14743
 10 Pt    0.29699    0.01407   -0.24436
 11 Pd    0.02436    0.04315   -0.07093
 12 Pd    0.08389    0.10341    0.00727
 13 Pt   -0.18716   -0.17808    0.15054
 14 Ag    0.04818   -0.12488    0.07530
 15 Ag   -0.01193   -0.06747   -0.10604
 16 Ag   -0.05994   -0.05745    0.07765
 17 Pt    0.03319    0.23398   -0.57117
 18 Pt    0.00572    0.02237    0.00279
 19 Pt    0.02850    0.02761    0.00987
 20 Ru    0.02811   -0.06521   -0.13358
 21 Pt    0.03421   -0.03637    0.00320
 22 Pd    0.06361   -0.02068    0.01453
 23 Pt   -0.03703   -0.04671    0.01771
 24 Ag    0.03445   -0.00372   -0.01781
 25 Pt   -0.01232   -0.02622    0.00748
 26 Ag    0.01132    0.01909   -0.04851
 27 Pt    0.02814    0.09555   -0.03052
 28 Pd    0.08363    0.03961    0.04360
 29 Pd    0.00427   -0.00633    0.01012
 30 Ir    0.01927    0.02712   -0.04959
 31 Pt   -0.06615   -0.05953   -0.08034
 32 Pd   -0.00192   -0.05505   -0.01994
 33 Pd   -0.03402   -0.00275   -0.00294
 34 Ag   -0.00196   -0.04835    0.02387
 35 Pt    0.06339   -0.06126   -0.02331
 36 Pt   -0.02000   -0.04732   -0.00440
 37 Pt   -0.09473   -0.19524   -0.10643
 38 Pt    0.03969   -0.16818   -0.06956
 39 Pt   -0.12587    0.03364   -0.10986
 40 Pd    0.07996    0.32093    1.22486
 41 Pd    0.04891    0.02847   -0.03337
 42 Pt   -0.06794    0.08942   -0.03983
 43 Ag    0.02590    0.08253    0.04492
 44 Pt    0.03104    0.01005   -0.03827
 45 O     0.30389    0.22370   -0.56176
 46 H    -0.31279   -0.34137   -0.46648

System changes: positions 

Initializing position-dependent things.

Density initialized from wave functions
                                             
                                             
                                             
                                             
                                             
                                             
                     H                       
                   O                         
                 Pt     Ag     Pt            
                   Pd                        
            Pt    Pd     APd    Pt           
       Pt    IPt    PPt    Pd                
                                             
        Pt     Pd    APd    Pt     Ag        
                                             
                Pt     Pd     Pt             
           Pt    APt    ARu    Pt            
                                             
            Pd    PPt    PAg    Ru           
       Pd     Pt     Pd                      
             Pd     Pd     Pt                
        Pd     Pt     Pt                     
                                             
                                             
                                             
                                             
                                             

Positions:
   0 Pd     0.000000    1.639149   10.000000    ( 0.0000,  0.0000,  0.0000)
   1 Pt     2.839089    1.639149   10.000000    ( 0.0000,  0.0000,  0.0000)
   2 Pt     5.678177    1.639149   10.000000    ( 0.0000,  0.0000,  0.0000)
   3 Pd     1.419544    4.097872   10.000000    ( 0.0000,  0.0000,  0.0000)
   4 Pd     4.258633    4.097872   10.000000    ( 0.0000,  0.0000,  0.0000)
   5 Pt     7.097722    4.097872   10.000000    ( 0.0000,  0.0000,  0.0000)
   6 Pd     2.839089    6.556595   10.000000    ( 0.0000,  0.0000,  0.0000)
   7 Pt     5.678177    6.556595   10.000000    ( 0.0000,  0.0000,  0.0000)
   8 Ru     8.517266    6.556595   10.000000    ( 0.0000,  0.0000,  0.0000)
   9 Pd     0.000000    0.000000   12.317643    ( 0.0000,  0.0000,  0.0000)
  10 Pt     2.839089    0.000000   12.317643    ( 0.0000,  0.0000,  0.0000)
  11 Pd     5.678177    0.000000   12.317643    ( 0.0000,  0.0000,  0.0000)
  12 Pd     1.419544    2.458723   12.317643    ( 0.0000,  0.0000,  0.0000)
  13 Pt     4.258633    2.458723   12.317643    ( 0.0000,  0.0000,  0.0000)
  14 Ag     7.097722    2.458723   12.317643    ( 0.0000,  0.0000,  0.0000)
  15 Ag     2.839089    4.917446   12.317643    ( 0.0000,  0.0000,  0.0000)
  16 Ag     5.678177    4.917446   12.317643    ( 0.0000,  0.0000,  0.0000)
  17 Pt     8.517266    4.917446   12.317643    ( 0.0000,  0.0000,  0.0000)
  18 Pt     1.382682    0.802335   14.574497    ( 0.0000,  0.0000,  0.0000)
  19 Pt     4.320782    0.816730   14.613180    ( 0.0000,  0.0000,  0.0000)
  20 Ru     7.144667    0.917200   14.700298    ( 0.0000,  0.0000,  0.0000)
  21 Pt     2.831742    3.224029   14.674255    ( 0.0000,  0.0000,  0.0000)
  22 Pd     5.670414    3.253153   14.666620    ( 0.0000,  0.0000,  0.0000)
  23 Pt     8.531331    3.281713   14.648363    ( 0.0000,  0.0000,  0.0000)
  24 Ag     4.274810    5.722938   14.645816    ( 0.0000,  0.0000,  0.0000)
  25 Pt     7.163869    5.771352   14.621582    ( 0.0000,  0.0000,  0.0000)
  26 Ag     9.987070    5.739059   14.642763    ( 0.0000,  0.0000,  0.0000)
  27 Pt    -0.009628    1.651125   16.859611    ( 0.0000,  0.0000,  0.0000)
  28 Pd     2.847642    1.597431   16.908565    ( 0.0000,  0.0000,  0.0000)
  29 Pd     5.675350    1.629483   16.927465    ( 0.0000,  0.0000,  0.0000)
  30 Ir     1.434606    4.054508   16.976031    ( 0.0000,  0.0000,  0.0000)
  31 Pt     4.205072    4.045483   16.975909    ( 0.0000,  0.0000,  0.0000)
  32 Pd     7.080641    4.096028   16.929408    ( 0.0000,  0.0000,  0.0000)
  33 Pd     2.837563    6.583890   16.905429    ( 0.0000,  0.0000,  0.0000)
  34 Ag     5.672894    6.522715   16.971284    ( 0.0000,  0.0000,  0.0000)
  35 Pt     8.526007    6.536094   16.950041    ( 0.0000,  0.0000,  0.0000)
  36 Pt    -0.018001    0.052328   19.239891    ( 0.0000,  0.0000,  0.0000)
  37 Pt     2.856243    0.041392   19.264952    ( 0.0000,  0.0000,  0.0000)
  38 Pt     5.660086   -0.015373   19.232807    ( 0.0000,  0.0000,  0.0000)
  39 Pt     1.392844    2.415933   19.170856    ( 0.0000,  0.0000,  0.0000)
  40 Pd     4.251032    2.434619   19.290533    ( 0.0000,  0.0000,  0.0000)
  41 Pd     7.120726    2.427512   19.248325    ( 0.0000,  0.0000,  0.0000)
  42 Pt     2.795779    4.961299   19.159132    ( 0.0000,  0.0000,  0.0000)
  43 Ag     5.679747    4.926360   19.423877    ( 0.0000,  0.0000,  0.0000)
  44 Pt     8.559314    4.929736   19.191460    ( 0.0000,  0.0000,  0.0000)
  45 O      4.254231    2.433230   21.415211    ( 0.0000,  0.0000,  0.0000)
  46 H      4.895421    3.075158   21.816572    ( 0.0000,  0.0000,  0.0000)

Unit cell:
           periodic     x           y           z      points  spacing
  1. axis:    yes    8.517266    0.000000    0.000000    40     0.1844
  2. axis:    yes    4.258633    7.376169    0.000000    40     0.1844
  3. axis:    no     0.000000    0.000000   29.270571   140     0.2091

  Lengths:   8.517266   8.517266  29.270571
  Angles:   90.000000  90.000000  60.000000

Effective grid spacing dv^(1/3) = 0.2017

     iter     time        total  log10-change:
                         energy  eigst   dens
iter:   1 21:04:16  -205.241027  -4.14
iter:   2 21:05:26  -236.590201  -2.99  -2.22
iter:   3 21:06:35  -205.410704  -3.22  -1.51
iter:   4 21:07:44  -204.404357  -4.23  -2.26
iter:   5 21:08:54  -204.376688  -5.18  -3.01
iter:   6 21:10:05  -204.384230c -5.33  -3.09
iter:   7 21:11:16  -204.360982c -5.77  -2.93
iter:   8 21:12:26  -204.353618c -6.17  -3.41
iter:   9 21:13:36  -204.353148c -6.72  -3.66
iter:  10 21:14:47  -204.352585c -6.70  -3.88
iter:  11 21:15:58  -204.352585c -6.67  -3.87
iter:  12 21:17:09  -204.352162c -7.29  -3.64
iter:  13 21:18:20  -204.351621c -7.60c -3.95
iter:  14 21:19:31  -204.351850c -7.82c -4.16c

Converged after 14 iterations.

Dipole moment: (28.990869, 11.377597, -0.242019) |e|*Ang

Energy contributions relative to reference atoms: (reference = -14174791.127075)

Kinetic:       -330.513858
Potential:     +184.098450
External:        +0.000000
XC:             -45.709715
Entropy (-ST):   -2.357926
Local:          -11.047765
--------------------------
Free energy:   -205.530813
Extrapolated:  -204.351850

Showing only first 2 kpts
 Kpt  Band  Eigenvalues  Occupancy
  0   364      0.57045    1.08761
  0   365      0.60688    0.90597
  0   366      0.65205    0.69036
  0   367      0.65626    0.67143

  1   364      0.46886    1.53405
  1   365      0.50199    1.40543
  1   366      0.52062    1.32480
  1   367      0.54768    1.19900


Fermi level: 0.58802

No gap

Forces in eV/Ang:
  0 Pd    0.01274   -0.00391   -0.26398
  1 Pt    0.30685   -0.53081    0.38504
  2 Pt   -0.34370   -0.14909    0.02183
  3 Pd   -0.41464    0.18406   -0.08569
  4 Pd    0.21790   -0.22191   -0.23612
  5 Pt    0.23237    0.32039   -0.19121
  6 Pd   -0.21993    0.22626   -0.09372
  7 Pt    0.55204    0.16627    0.08402
  8 Ru   -0.48909    0.05871    1.32835
  9 Pd   -0.23181    0.15480    0.14686
 10 Pt    0.29522    0.00828   -0.23610
 11 Pd    0.02792    0.04217   -0.07552
 12 Pd    0.08209    0.10991    0.00524
 13 Pt   -0.18515   -0.16702    0.15408
 14 Ag    0.04975   -0.12323    0.06711
 15 Ag   -0.00977   -0.06777   -0.11157
 16 Ag   -0.06242   -0.05913    0.07264
 17 Pt    0.03393    0.22906   -0.56894
 18 Pt    0.00136    0.01258    0.00425
 19 Pt    0.02971    0.01800    0.01861
 20 Ru    0.03520   -0.06283   -0.10159
 21 Pt    0.02654   -0.02422    0.00360
 22 Pd    0.05265   -0.01957    0.01608
 23 Pt   -0.02563   -0.03675    0.00770
 24 Ag    0.03155   -0.00452   -0.01397
 25 Pt   -0.00822   -0.01887    0.00425
 26 Ag    0.01053    0.01308   -0.04706
 27 Pt    0.01830    0.06561   -0.04128
 28 Pd    0.09290    0.03461    0.07282
 29 Pd   -0.01296   -0.00056    0.04459
 30 Ir    0.03321    0.01604   -0.05017
 31 Pt   -0.06335   -0.07484   -0.03896
 32 Pd   -0.01184   -0.05088   -0.01816
 33 Pd   -0.01782    0.01110   -0.01568
 34 Ag   -0.00403   -0.03804    0.01113
 35 Pt    0.04586   -0.03682   -0.02671
 36 Pt   -0.01509   -0.02432   -0.02365
 37 Pt   -0.06873   -0.13208   -0.12306
 38 Pt    0.01588   -0.12253   -0.08998
 39 Pt   -0.09423    0.01396   -0.12112
 40 Pd    0.04900    0.26184    0.96080
 41 Pd    0.04354    0.01191   -0.07933
 42 Pt   -0.04774    0.06309   -0.06964
 43 Ag    0.02569    0.08066   -0.01954
 44 Pt    0.02316    0.00372   -0.04619
 45 O     0.01042   -0.06509   -0.67119
 46 H    -0.03886   -0.06929   -0.31942

System changes: positions 

Initializing position-dependent things.

Density initialized from wave functions
                                             
                                             
                                             
                                             
                                             
                                             
                     H                       
                   O                         
                 Pt     Ag     Pt            
                   Pd                        
            Pt    Pd     APd    Pt           
       Pt    IPt    PPt    Pd                
                                             
        Pt     Pd    APd    Pt     Ag        
                       Pd     Pt             
                Pt                           
           Pt    APt    ARu    Pt            
                                             
            Pd    PPt    PAg    Ru           
       Pd     Pt     Pd                      
             Pd     Pd     Pt                
        Pd     Pt     Pt                     
                                             
                                             
                                             
                                             
                                             

Positions:
   0 Pd     0.000000    1.639149   10.000000    ( 0.0000,  0.0000,  0.0000)
   1 Pt     2.839089    1.639149   10.000000    ( 0.0000,  0.0000,  0.0000)
   2 Pt     5.678177    1.639149   10.000000    ( 0.0000,  0.0000,  0.0000)
   3 Pd     1.419544    4.097872   10.000000    ( 0.0000,  0.0000,  0.0000)
   4 Pd     4.258633    4.097872   10.000000    ( 0.0000,  0.0000,  0.0000)
   5 Pt     7.097722    4.097872   10.000000    ( 0.0000,  0.0000,  0.0000)
   6 Pd     2.839089    6.556595   10.000000    ( 0.0000,  0.0000,  0.0000)
   7 Pt     5.678177    6.556595   10.000000    ( 0.0000,  0.0000,  0.0000)
   8 Ru     8.517266    6.556595   10.000000    ( 0.0000,  0.0000,  0.0000)
   9 Pd     0.000000    0.000000   12.317643    ( 0.0000,  0.0000,  0.0000)
  10 Pt     2.839089    0.000000   12.317643    ( 0.0000,  0.0000,  0.0000)
  11 Pd     5.678177    0.000000   12.317643    ( 0.0000,  0.0000,  0.0000)
  12 Pd     1.419544    2.458723   12.317643    ( 0.0000,  0.0000,  0.0000)
  13 Pt     4.258633    2.458723   12.317643    ( 0.0000,  0.0000,  0.0000)
  14 Ag     7.097722    2.458723   12.317643    ( 0.0000,  0.0000,  0.0000)
  15 Ag     2.839089    4.917446   12.317643    ( 0.0000,  0.0000,  0.0000)
  16 Ag     5.678177    4.917446   12.317643    ( 0.0000,  0.0000,  0.0000)
  17 Pt     8.517266    4.917446   12.317643    ( 0.0000,  0.0000,  0.0000)
  18 Pt     1.382867    0.803447   14.574781    ( 0.0000,  0.0000,  0.0000)
  19 Pt     4.322937    0.818236   14.614374    ( 0.0000,  0.0000,  0.0000)
  20 Ru     7.147110    0.912547   14.692228    ( 0.0000,  0.0000,  0.0000)
  21 Pt     2.833837    3.222018   14.674511    ( 0.0000,  0.0000,  0.0000)
  22 Pd     5.674487    3.251697   14.667769    ( 0.0000,  0.0000,  0.0000)
  23 Pt     8.529230    3.278825   14.649122    ( 0.0000,  0.0000,  0.0000)
  24 Ag     4.277180    5.722622   14.644717    ( 0.0000,  0.0000,  0.0000)
  25 Pt     7.163186    5.769826   14.621956    ( 0.0000,  0.0000,  0.0000)
  26 Ag     9.987857    5.740135   14.639284    ( 0.0000,  0.0000,  0.0000)
  27 Pt    -0.008095    1.656517   16.856792    ( 0.0000,  0.0000,  0.0000)
  28 Pd     2.854274    1.600066   16.913337    ( 0.0000,  0.0000,  0.0000)
  29 Pd     5.674734    1.629330   16.930066    ( 0.0000,  0.0000,  0.0000)
  30 Ir     1.436770    4.055899   16.972363    ( 0.0000,  0.0000,  0.0000)
  31 Pt     4.200373    4.040292   16.972250    ( 0.0000,  0.0000,  0.0000)
  32 Pd     7.079965    4.092216   16.928042    ( 0.0000,  0.0000,  0.0000)
  33 Pd     2.835942    6.584436   16.904526    ( 0.0000,  0.0000,  0.0000)
  34 Ag     5.672639    6.519725   16.972347    ( 0.0000,  0.0000,  0.0000)
  35 Pt     8.529710    6.532920   16.948149    ( 0.0000,  0.0000,  0.0000)
  36 Pt    -0.019203    0.050099   19.238531    ( 0.0000,  0.0000,  0.0000)
  37 Pt     2.850700    0.030482   19.256251    ( 0.0000,  0.0000,  0.0000)
  38 Pt     5.661712   -0.025243   19.226605    ( 0.0000,  0.0000,  0.0000)
  39 Pt     1.385321    2.417338   19.162194    ( 0.0000,  0.0000,  0.0000)
  40 Pd     4.255226    2.454965   19.366106    ( 0.0000,  0.0000,  0.0000)
  41 Pd     7.124022    2.428706   19.243400    ( 0.0000,  0.0000,  0.0000)
  42 Pt     2.791887    4.966436   19.154604    ( 0.0000,  0.0000,  0.0000)
  43 Ag     5.681635    4.932310   19.423695    ( 0.0000,  0.0000,  0.0000)
  44 Pt     8.561165    4.930132   19.188227    ( 0.0000,  0.0000,  0.0000)
  45 O      4.260689    2.434062   21.368120    ( 0.0000,  0.0000,  0.0000)
  46 H      4.887257    3.064798   21.790297    ( 0.0000,  0.0000,  0.0000)

Unit cell:
           periodic     x           y           z      points  spacing
  1. axis:    yes    8.517266    0.000000    0.000000    40     0.1844
  2. axis:    yes    4.258633    7.376169    0.000000    40     0.1844
  3. axis:    no     0.000000    0.000000   29.270571   140     0.2091

  Lengths:   8.517266   8.517266  29.270571
  Angles:   90.000000  90.000000  60.000000

Effective grid spacing dv^(1/3) = 0.2017

     iter     time        total  log10-change:
                         energy  eigst   dens
iter:   1 21:21:05  -204.924474  -3.03
iter:   2 21:22:16  -216.735180  -3.30  -2.36
iter:   3 21:23:27  -208.289614  -3.26  -1.72
iter:   4 21:24:38  -204.606487  -4.09  -1.97
iter:   5 21:25:49  -204.470327  -4.93  -2.66
iter:   6 21:27:00  -204.465012c -5.40  -3.03
iter:   7 21:28:11  -204.499280c -5.32  -2.97
iter:   8 21:29:21  -204.441451c -5.32  -2.87
iter:   9 21:30:31  -204.440774c -5.85  -3.24
iter:  10 21:31:40  -204.463449c -5.76  -3.25
iter:  11 21:32:50  -204.435101c -5.90  -2.97
iter:  12 21:34:01  -204.435660c -6.04  -3.61
iter:  13 21:35:12  -204.434457c -6.48  -3.44
iter:  14 21:36:22  -204.433366c -6.80  -3.72
iter:  15 21:37:32  -204.433439c -7.01  -3.87
iter:  16 21:38:43  -204.433954c -6.93  -3.92
iter:  17 21:39:53  -204.433397c -7.02  -3.78
iter:  18 21:41:03  -204.433423c -7.24  -3.77
iter:  19 21:42:14  -204.432776c -7.10  -4.07c
iter:  20 21:43:24  -204.433176c -7.34  -4.23c
iter:  21 21:44:34  -204.432731c -7.51c -4.12c

Converged after 21 iterations.

Dipole moment: (30.180408, 12.263109, -0.170511) |e|*Ang

Energy contributions relative to reference atoms: (reference = -14174791.127075)

Kinetic:       -328.418979
Potential:     +182.461637
External:        +0.000000
XC:             -46.219223
Entropy (-ST):   -2.348990
Local:          -11.081670
--------------------------
Free energy:   -205.607226
Extrapolated:  -204.432731

Showing only first 2 kpts
 Kpt  Band  Eigenvalues  Occupancy
  0   364      0.60805    1.06700
  0   365      0.64048    0.90523
  0   366      0.68723    0.68257
  0   367      0.69002    0.67010

  1   364      0.49735    1.55155
  1   365      0.53651    1.40097
  1   366      0.55676    1.31274
  1   367      0.58191    1.19526


Fermi level: 0.62147

No gap

Forces in eV/Ang:
  0 Pd    0.01422   -0.00542   -0.26016
  1 Pt    0.30448   -0.52719    0.38952
  2 Pt   -0.34277   -0.14407    0.02327
  3 Pd   -0.41534    0.17953   -0.08425
  4 Pd    0.21885   -0.22614   -0.24139
  5 Pt    0.23268    0.31417   -0.19244
  6 Pd   -0.21398    0.22959   -0.09428
  7 Pt    0.54251    0.17266    0.08255
  8 Ru   -0.48817    0.06129    1.33588
  9 Pd   -0.23318    0.16244    0.15110
 10 Pt    0.29833    0.01183   -0.23077
 11 Pd    0.03030    0.05265   -0.07472
 12 Pd    0.08208    0.10573    0.00529
 13 Pt   -0.18183   -0.17485    0.15976
 14 Ag    0.04949   -0.12439    0.05472
 15 Ag   -0.00668   -0.06951   -0.11497
 16 Ag   -0.06024   -0.06245    0.07334
 17 Pt    0.02978    0.22620   -0.57371
 18 Pt    0.00961    0.00112   -0.01160
 19 Pt    0.02468    0.00388   -0.00127
 20 Ru    0.03768   -0.04253   -0.08531
 21 Pt    0.01218   -0.02343   -0.01136
 22 Pd    0.03280   -0.02003   -0.00529
 23 Pt   -0.00185   -0.00490   -0.02191
 24 Ag    0.02192   -0.01412   -0.00897
 25 Pt    0.00737   -0.01367    0.00474
 26 Ag    0.00822   -0.00401   -0.03443
 27 Pt    0.01746    0.00429   -0.05453
 28 Pd    0.06356    0.01765    0.09604
 29 Pd   -0.01540    0.00308    0.08331
 30 Ir   -0.00043    0.02116   -0.07325
 31 Pt   -0.03125   -0.05504    0.04792
 32 Pd    0.00118    0.00085   -0.00990
 33 Pd    0.01023    0.01355   -0.05336
 34 Ag   -0.01284   -0.03037   -0.01900
 35 Pt    0.01475   -0.06258   -0.05547
 36 Pt   -0.02130   -0.02610   -0.01737
 37 Pt   -0.02742   -0.08293   -0.07127
 38 Pt    0.01161   -0.05484   -0.02370
 39 Pt   -0.07518    0.00348   -0.07137
 40 Pd    0.07940    0.24049   -0.10757
 41 Pd   -0.00908    0.03324    0.00374
 42 Pt    0.02776    0.04694   -0.01415
 43 Ag    0.01557    0.03698    0.02841
 44 Pt   -0.02767   -0.01343   -0.03375
 45 O    -0.23007   -0.31385    0.14732
 46 H     0.18977    0.16212   -0.18364

System changes: positions 

Initializing position-dependent things.

Density initialized from wave functions
                                             
                                             
                                             
                                             
                                             
                                             
                     H                       
                   O                         
                 Pt     Ag     Pt            
                   Pd                        
            Pt    Pd     APd    Pt           
       Pt    IPt    PPt    Pd                
                                             
        Pt     Pd    APd    Pt     Ag        
                       Pd     Pt             
                Pt                           
           Pt    APt    ARu    Pt            
                                             
            Pd    PPt    PAg    Ru           
       Pd     Pt     Pd                      
             Pd     Pd     Pt                
        Pd     Pt     Pt                     
                                             
                                             
                                             
                                             
                                             

Positions:
   0 Pd     0.000000    1.639149   10.000000    ( 0.0000,  0.0000,  0.0000)
   1 Pt     2.839089    1.639149   10.000000    ( 0.0000,  0.0000,  0.0000)
   2 Pt     5.678177    1.639149   10.000000    ( 0.0000,  0.0000,  0.0000)
   3 Pd     1.419544    4.097872   10.000000    ( 0.0000,  0.0000,  0.0000)
   4 Pd     4.258633    4.097872   10.000000    ( 0.0000,  0.0000,  0.0000)
   5 Pt     7.097722    4.097872   10.000000    ( 0.0000,  0.0000,  0.0000)
   6 Pd     2.839089    6.556595   10.000000    ( 0.0000,  0.0000,  0.0000)
   7 Pt     5.678177    6.556595   10.000000    ( 0.0000,  0.0000,  0.0000)
   8 Ru     8.517266    6.556595   10.000000    ( 0.0000,  0.0000,  0.0000)
   9 Pd     0.000000    0.000000   12.317643    ( 0.0000,  0.0000,  0.0000)
  10 Pt     2.839089    0.000000   12.317643    ( 0.0000,  0.0000,  0.0000)
  11 Pd     5.678177    0.000000   12.317643    ( 0.0000,  0.0000,  0.0000)
  12 Pd     1.419544    2.458723   12.317643    ( 0.0000,  0.0000,  0.0000)
  13 Pt     4.258633    2.458723   12.317643    ( 0.0000,  0.0000,  0.0000)
  14 Ag     7.097722    2.458723   12.317643    ( 0.0000,  0.0000,  0.0000)
  15 Ag     2.839089    4.917446   12.317643    ( 0.0000,  0.0000,  0.0000)
  16 Ag     5.678177    4.917446   12.317643    ( 0.0000,  0.0000,  0.0000)
  17 Pt     8.517266    4.917446   12.317643    ( 0.0000,  0.0000,  0.0000)
  18 Pt     1.383016    0.803509   14.574620    ( 0.0000,  0.0000,  0.0000)
  19 Pt     4.323325    0.818344   14.614360    ( 0.0000,  0.0000,  0.0000)
  20 Ru     7.147673    0.911849   14.690788    ( 0.0000,  0.0000,  0.0000)
  21 Pt     2.834069    3.221618   14.674356    ( 0.0000,  0.0000,  0.0000)
  22 Pd     5.675057    3.251383   14.667714    ( 0.0000,  0.0000,  0.0000)
  23 Pt     8.529135    3.278674   14.648853    ( 0.0000,  0.0000,  0.0000)
  24 Ag     4.277543    5.722419   14.644559    ( 0.0000,  0.0000,  0.0000)
  25 Pt     7.163267    5.769585   14.622038    ( 0.0000,  0.0000,  0.0000)
  26 Ag     9.987991    5.740115   14.638726    ( 0.0000,  0.0000,  0.0000)
  27 Pt    -0.007795    1.656757   16.855994    ( 0.0000,  0.0000,  0.0000)
  28 Pd     2.855280    1.600380   16.914716    ( 0.0000,  0.0000,  0.0000)
  29 Pd     5.674546    1.629356   16.931209    ( 0.0000,  0.0000,  0.0000)
  30 Ir     1.436774    4.056251   16.971259    ( 0.0000,  0.0000,  0.0000)
  31 Pt     4.199832    4.039449   16.972753    ( 0.0000,  0.0000,  0.0000)
  32 Pd     7.079991    4.092142   16.927871    ( 0.0000,  0.0000,  0.0000)
  33 Pd     2.836015    6.584604   16.903787    ( 0.0000,  0.0000,  0.0000)
  34 Ag     5.672458    6.519213   16.972131    ( 0.0000,  0.0000,  0.0000)
  35 Pt     8.530033    6.531917   16.947338    ( 0.0000,  0.0000,  0.0000)
  36 Pt    -0.019539    0.049632   19.238304    ( 0.0000,  0.0000,  0.0000)
  37 Pt     2.850140    0.028945   19.255112    ( 0.0000,  0.0000,  0.0000)
  38 Pt     5.661965   -0.026322   19.226195    ( 0.0000,  0.0000,  0.0000)
  39 Pt     1.384035    2.417462   19.161042    ( 0.0000,  0.0000,  0.0000)
  40 Pd     4.256502    2.458901   19.366742    ( 0.0000,  0.0000,  0.0000)
  41 Pd     7.123974    2.429238   19.243463    ( 0.0000,  0.0000,  0.0000)
  42 Pt     2.792151    4.967263   19.154385    ( 0.0000,  0.0000,  0.0000)
  43 Ag     5.681893    4.932955   19.424245    ( 0.0000,  0.0000,  0.0000)
  44 Pt     8.560831    4.929966   19.187705    ( 0.0000,  0.0000,  0.0000)
  45 O      4.258278    2.430346   21.369505    ( 0.0000,  0.0000,  0.0000)
  46 H      4.889113    3.066225   21.786833    ( 0.0000,  0.0000,  0.0000)

Unit cell:
           periodic     x           y           z      points  spacing
  1. axis:    yes    8.517266    0.000000    0.000000    40     0.1844
  2. axis:    yes    4.258633    7.376169    0.000000    40     0.1844
  3. axis:    no     0.000000    0.000000   29.270571   140     0.2091

  Lengths:   8.517266   8.517266  29.270571
  Angles:   90.000000  90.000000  60.000000

Effective grid spacing dv^(1/3) = 0.2017

     iter     time        total  log10-change:
                         energy  eigst   dens
iter:   1 21:46:07  -205.200933  -4.63
iter:   2 21:47:17  -232.400095  -3.07  -2.27
iter:   3 21:48:27  -205.094696  -3.33  -1.54
iter:   4 21:49:36  -204.505004  -4.61  -2.34
iter:   5 21:50:46  -204.518367  -5.39  -2.88
iter:   6 21:51:56  -204.440837c -5.50  -2.76
iter:   7 21:53:06  -204.440039c -6.21  -3.89
iter:   8 21:54:16  -204.438794c -6.55  -3.88
iter:   9 21:55:25  -204.439226c -6.88  -4.03c
iter:  10 21:56:35  -204.438658c -7.05  -3.96
iter:  11 21:57:45  -204.438461c -7.38  -4.00c
iter:  12 21:58:55  -204.438184c -7.49c -4.14c

Converged after 12 iterations.

Dipole moment: (30.337002, 12.377843, -0.175277) |e|*Ang

Energy contributions relative to reference atoms: (reference = -14174791.127075)

Kinetic:       -328.613097
Potential:     +182.612676
External:        +0.000000
XC:             -46.145482
Entropy (-ST):   -2.348099
Local:          -11.118231
--------------------------
Free energy:   -205.612234
Extrapolated:  -204.438184

Showing only first 2 kpts
 Kpt  Band  Eigenvalues  Occupancy
  0   364      0.60754    1.06370
  0   365      0.63914    0.90603
  0   366      0.68564    0.68442
  0   367      0.68905    0.66914

  1   364      0.49657    1.55017
  1   365      0.53524    1.40137
  1   366      0.55564    1.31247
  1   367      0.58075    1.19521


Fermi level: 0.62030

No gap

Forces in eV/Ang:
  0 Pd    0.01432   -0.00476   -0.26291
  1 Pt    0.30488   -0.52974    0.38625
  2 Pt   -0.34332   -0.14584    0.02152
  3 Pd   -0.41566    0.18060   -0.08509
  4 Pd    0.21963   -0.22488   -0.23943
  5 Pt    0.23196    0.31699   -0.19276
  6 Pd   -0.21483    0.22878   -0.09681
  7 Pt    0.54478    0.17034    0.08221
  8 Ru   -0.48954    0.06215    1.33264
  9 Pd   -0.22731    0.15848    0.14811
 10 Pt    0.30077    0.00794   -0.22540
 11 Pd    0.02285    0.05006   -0.07746
 12 Pd    0.08485    0.11066    0.00761
 13 Pt   -0.18279   -0.17283    0.16110
 14 Ag    0.04788   -0.11807    0.05268
 15 Ag   -0.00686   -0.07345   -0.11391
 16 Ag   -0.05875   -0.06297    0.07337
 17 Pt    0.02826    0.22674   -0.57043
 18 Pt    0.01825   -0.00477    0.00801
 19 Pt    0.01702    0.00006    0.01944
 20 Ru    0.03379   -0.03555   -0.05076
 21 Pt    0.01061   -0.02261   -0.00201
 22 Pd    0.02875   -0.01911    0.01105
 23 Pt    0.00014   -0.00331   -0.01598
 24 Ag    0.02322   -0.01561   -0.00063
 25 Pt    0.00453   -0.00480    0.00704
 26 Ag    0.00852   -0.00659   -0.03192
 27 Pt    0.00705   -0.00921   -0.04675
 28 Pd    0.06333    0.00478    0.09848
 29 Pd   -0.01397   -0.00056    0.08478
 30 Ir    0.01587    0.00702   -0.06234
 31 Pt   -0.02353   -0.05779    0.05399
 32 Pd   -0.01518   -0.01502   -0.00665
 33 Pd    0.01414    0.02574   -0.05364
 34 Ag   -0.01227   -0.01952   -0.02608
 35 Pt    0.00745   -0.02356   -0.04697
 36 Pt   -0.01878   -0.00080   -0.00533
 37 Pt   -0.00661   -0.02887   -0.06003
 38 Pt   -0.00693   -0.02235   -0.01909
 39 Pt   -0.04233   -0.00462   -0.05035
 40 Pd    0.03901    0.17506   -0.09455
 41 Pd   -0.00635    0.01213   -0.00210
 42 Pt    0.02278    0.01730   -0.00300
 43 Ag    0.01196    0.03614    0.02332
 44 Pt   -0.01603   -0.01638   -0.00759
 45 O    -0.14331   -0.22860    0.17652
 46 H     0.07749    0.04824   -0.24664

System changes: positions 

Initializing position-dependent things.

Density initialized from wave functions
                                             
                                             
                                             
                                             
                                             
                                             
                     H                       
                   O                         
                 Pt     Ag     Pt            
                   Pd                        
            Pt    Pd     APd    Pt           
       Pt    IPt    PPt    Pd                
                                             
        Pt     Pd    APd    Pt     Ag        
                Pt     Pd     Pt             
                                             
           Pt    APt    ARu    Pt            
                                             
            Pd    PPt    PAg    Ru           
       Pd     Pt     Pd                      
             Pd     Pd     Pt                
        Pd     Pt     Pt                     
                                             
                                             
                                             
                                             
                                             

Positions:
   0 Pd     0.000000    1.639149   10.000000    ( 0.0000,  0.0000,  0.0000)
   1 Pt     2.839089    1.639149   10.000000    ( 0.0000,  0.0000,  0.0000)
   2 Pt     5.678177    1.639149   10.000000    ( 0.0000,  0.0000,  0.0000)
   3 Pd     1.419544    4.097872   10.000000    ( 0.0000,  0.0000,  0.0000)
   4 Pd     4.258633    4.097872   10.000000    ( 0.0000,  0.0000,  0.0000)
   5 Pt     7.097722    4.097872   10.000000    ( 0.0000,  0.0000,  0.0000)
   6 Pd     2.839089    6.556595   10.000000    ( 0.0000,  0.0000,  0.0000)
   7 Pt     5.678177    6.556595   10.000000    ( 0.0000,  0.0000,  0.0000)
   8 Ru     8.517266    6.556595   10.000000    ( 0.0000,  0.0000,  0.0000)
   9 Pd     0.000000    0.000000   12.317643    ( 0.0000,  0.0000,  0.0000)
  10 Pt     2.839089    0.000000   12.317643    ( 0.0000,  0.0000,  0.0000)
  11 Pd     5.678177    0.000000   12.317643    ( 0.0000,  0.0000,  0.0000)
  12 Pd     1.419544    2.458723   12.317643    ( 0.0000,  0.0000,  0.0000)
  13 Pt     4.258633    2.458723   12.317643    ( 0.0000,  0.0000,  0.0000)
  14 Ag     7.097722    2.458723   12.317643    ( 0.0000,  0.0000,  0.0000)
  15 Ag     2.839089    4.917446   12.317643    ( 0.0000,  0.0000,  0.0000)
  16 Ag     5.678177    4.917446   12.317643    ( 0.0000,  0.0000,  0.0000)
  17 Pt     8.517266    4.917446   12.317643    ( 0.0000,  0.0000,  0.0000)
  18 Pt     1.384338    0.803428   14.574879    ( 0.0000,  0.0000,  0.0000)
  19 Pt     4.325006    0.818637   14.615524    ( 0.0000,  0.0000,  0.0000)
  20 Ru     7.150582    0.908464   14.685111    ( 0.0000,  0.0000,  0.0000)
  21 Pt     2.835189    3.219538   14.674032    ( 0.0000,  0.0000,  0.0000)
  22 Pd     5.677863    3.249715   14.668355    ( 0.0000,  0.0000,  0.0000)
  23 Pt     8.528825    3.278041   14.647622    ( 0.0000,  0.0000,  0.0000)
  24 Ag     4.279589    5.721194   14.644215    ( 0.0000,  0.0000,  0.0000)
  25 Pt     7.163586    5.768834   14.622608    ( 0.0000,  0.0000,  0.0000)
  26 Ag     9.988735    5.739790   14.635829    ( 0.0000,  0.0000,  0.0000)
  27 Pt    -0.006815    1.657023   16.851979    ( 0.0000,  0.0000,  0.0000)
  28 Pd     2.860811    1.601290   16.922643    ( 0.0000,  0.0000,  0.0000)
  29 Pd     5.673496    1.629324   16.937835    ( 0.0000,  0.0000,  0.0000)
  30 Ir     1.437789    4.057299   16.965794    ( 0.0000,  0.0000,  0.0000)
  31 Pt     4.197374    4.034593   16.976234    ( 0.0000,  0.0000,  0.0000)
  32 Pd     7.079134    4.090892   16.927144    ( 0.0000,  0.0000,  0.0000)
  33 Pd     2.836778    6.586335   16.899577    ( 0.0000,  0.0000,  0.0000)
  34 Ag     5.671471    6.517104   16.970409    ( 0.0000,  0.0000,  0.0000)
  35 Pt     8.531241    6.528803   16.943317    ( 0.0000,  0.0000,  0.0000)
  36 Pt    -0.021220    0.048683   19.237676    ( 0.0000,  0.0000,  0.0000)
  37 Pt     2.848498    0.024105   19.249496    ( 0.0000,  0.0000,  0.0000)
  38 Pt     5.662122   -0.029987   19.224199    ( 0.0000,  0.0000,  0.0000)
  39 Pt     1.379110    2.417542   19.155957    ( 0.0000,  0.0000,  0.0000)
  40 Pd     4.261007    2.476330   19.367967    ( 0.0000,  0.0000,  0.0000)
  41 Pd     7.123760    2.430853   19.243335    ( 0.0000,  0.0000,  0.0000)
  42 Pt     2.793535    4.969891   19.153756    ( 0.0000,  0.0000,  0.0000)
  43 Ag     5.683081    4.936379   19.426686    ( 0.0000,  0.0000,  0.0000)
  44 Pt     8.559566    4.928817   19.186360    ( 0.0000,  0.0000,  0.0000)
  45 O      4.248178    2.412995   21.379482    ( 0.0000,  0.0000,  0.0000)
  46 H      4.894522    3.069171   21.765050    ( 0.0000,  0.0000,  0.0000)

Unit cell:
           periodic     x           y           z      points  spacing
  1. axis:    yes    8.517266    0.000000    0.000000    40     0.1844
  2. axis:    yes    4.258633    7.376169    0.000000    40     0.1844
  3. axis:    no     0.000000    0.000000   29.270571   140     0.2091

  Lengths:   8.517266   8.517266  29.270571
  Angles:   90.000000  90.000000  60.000000

Effective grid spacing dv^(1/3) = 0.2017

     iter     time        total  log10-change:
                         energy  eigst   dens
iter:   1 22:00:28  -206.829774  -3.73
iter:   2 22:01:38  -265.949221  -2.60  -2.04
iter:   3 22:02:48  -207.747949  -2.94  -1.39
iter:   4 22:03:59  -204.645795  -4.04  -2.01
iter:   5 22:05:08  -204.485049  -4.82  -2.60
iter:   6 22:06:18  -204.467916c -5.28  -3.08
iter:   7 22:07:29  -204.471133c -5.69  -3.11
iter:   8 22:08:39  -204.456912c -5.82  -3.13
iter:   9 22:09:50  -204.456334c -6.21  -3.43
iter:  10 22:11:00  -204.455004c -6.39  -3.41
iter:  11 22:12:10  -204.457688c -6.28  -3.55
iter:  12 22:13:20  -204.452976c -6.52  -3.41
iter:  13 22:14:31  -204.453425c -6.76  -3.89
iter:  14 22:15:41  -204.453593c -7.23  -3.78
iter:  15 22:16:51  -204.453346c -7.16  -3.77
iter:  16 22:18:02  -204.452767c -7.81c -4.06c

Converged after 16 iterations.

Dipole moment: (30.930026, 12.711425, -0.193367) |e|*Ang

Energy contributions relative to reference atoms: (reference = -14174791.127075)

Kinetic:       -327.276262
Potential:     +181.225348
External:        +0.000000
XC:             -46.112833
Entropy (-ST):   -2.347238
Local:          -11.115402
--------------------------
Free energy:   -205.626386
Extrapolated:  -204.452767

Showing only first 2 kpts
 Kpt  Band  Eigenvalues  Occupancy
  0   364      0.60213    1.05988
  0   365      0.63324    0.90471
  0   366      0.67933    0.68504
  0   367      0.68159    0.67490

  1   364      0.48968    1.55266
  1   365      0.52908    1.40130
  1   366      0.54903    1.31445
  1   367      0.57665    1.18519


Fermi level: 0.61412

No gap

Forces in eV/Ang:
  0 Pd    0.01396   -0.00531   -0.24951
  1 Pt    0.30526   -0.52692    0.40216
  2 Pt   -0.34329   -0.14095    0.03482
  3 Pd   -0.41579    0.17791   -0.06793
  4 Pd    0.22378   -0.22608   -0.22644
  5 Pt    0.22921    0.31550   -0.17754
  6 Pd   -0.21150    0.22969   -0.08144
  7 Pt    0.54197    0.16974    0.09827
  8 Ru   -0.49289    0.06242    1.34941
  9 Pd   -0.21813    0.15649    0.14578
 10 Pt    0.30784    0.00660   -0.21905
 11 Pd    0.01395    0.05153   -0.08253
 12 Pd    0.08911    0.11042    0.00585
 13 Pt   -0.18278   -0.17558    0.16621
 14 Ag    0.04490   -0.11096    0.03888
 15 Ag   -0.00359   -0.07910   -0.11622
 16 Ag   -0.05758   -0.06448    0.07220
 17 Pt    0.02736    0.22885   -0.57447
 18 Pt    0.03526   -0.00987    0.00633
 19 Pt    0.01195   -0.00080    0.01751
 20 Ru    0.01503   -0.01571   -0.01134
 21 Pt    0.01460   -0.02100    0.00300
 22 Pd    0.00911   -0.02489    0.01506
 23 Pt    0.00742    0.00439   -0.02384
 24 Ag    0.01851   -0.03218    0.00429
 25 Pt    0.00518    0.00192   -0.01089
 26 Ag    0.01238   -0.00997   -0.03356
 27 Pt   -0.00100   -0.02036   -0.03101
 28 Pd    0.00921   -0.03339    0.03080
 29 Pd    0.01813   -0.01953    0.03352
 30 Ir    0.00632   -0.00132   -0.03093
 31 Pt    0.00142   -0.00147    0.01271
 32 Pd   -0.01127   -0.01712   -0.00631
 33 Pd    0.01286    0.01939   -0.04242
 34 Ag   -0.01219   -0.00605   -0.02461
 35 Pt    0.00745   -0.00449   -0.02786
 36 Pt   -0.01162    0.02145   -0.02641
 37 Pt    0.03157    0.04244   -0.05339
 38 Pt   -0.03446    0.01462   -0.02153
 39 Pt    0.00263   -0.00324   -0.03682
 40 Pd   -0.03879    0.04002    0.03017
 41 Pd   -0.01652   -0.00323    0.00765
 42 Pt    0.00062   -0.00448   -0.00840
 43 Ag    0.01092    0.02997    0.02543
 44 Pt    0.01082   -0.01077   -0.01870
 45 O     0.24036    0.17259    0.17482
 46 H    -0.22443   -0.25814   -0.33693

System changes: positions 

Initializing position-dependent things.

Density initialized from wave functions
                                             
                                             
                                             
                                             
                                             
                                             
                     H                       
                   O                         
                 Pt     Ag     Pt            
                   Pd     Pd                 
            Pt    Pd     Ag     Pt           
       Pt    IPt    PPt    Pd                
                                             
        Pt     Pd    APd    Pt     Ag        
                Pt     Pd     Pt             
                                             
           Pt    APt    ARu    Pt            
                                             
            Pd    PPt    PAg    Ru           
       Pd     Pt     Pd                      
             Pd     Pd     Pt                
        Pd     Pt     Pt                     
                                             
                                             
                                             
                                             
                                             

Positions:
   0 Pd     0.000000    1.639149   10.000000    ( 0.0000,  0.0000,  0.0000)
   1 Pt     2.839089    1.639149   10.000000    ( 0.0000,  0.0000,  0.0000)
   2 Pt     5.678177    1.639149   10.000000    ( 0.0000,  0.0000,  0.0000)
   3 Pd     1.419544    4.097872   10.000000    ( 0.0000,  0.0000,  0.0000)
   4 Pd     4.258633    4.097872   10.000000    ( 0.0000,  0.0000,  0.0000)
   5 Pt     7.097722    4.097872   10.000000    ( 0.0000,  0.0000,  0.0000)
   6 Pd     2.839089    6.556595   10.000000    ( 0.0000,  0.0000,  0.0000)
   7 Pt     5.678177    6.556595   10.000000    ( 0.0000,  0.0000,  0.0000)
   8 Ru     8.517266    6.556595   10.000000    ( 0.0000,  0.0000,  0.0000)
   9 Pd     0.000000    0.000000   12.317643    ( 0.0000,  0.0000,  0.0000)
  10 Pt     2.839089    0.000000   12.317643    ( 0.0000,  0.0000,  0.0000)
  11 Pd     5.678177    0.000000   12.317643    ( 0.0000,  0.0000,  0.0000)
  12 Pd     1.419544    2.458723   12.317643    ( 0.0000,  0.0000,  0.0000)
  13 Pt     4.258633    2.458723   12.317643    ( 0.0000,  0.0000,  0.0000)
  14 Ag     7.097722    2.458723   12.317643    ( 0.0000,  0.0000,  0.0000)
  15 Ag     2.839089    4.917446   12.317643    ( 0.0000,  0.0000,  0.0000)
  16 Ag     5.678177    4.917446   12.317643    ( 0.0000,  0.0000,  0.0000)
  17 Pt     8.517266    4.917446   12.317643    ( 0.0000,  0.0000,  0.0000)
  18 Pt     1.385520    0.803373   14.574905    ( 0.0000,  0.0000,  0.0000)
  19 Pt     4.326372    0.818945   14.616297    ( 0.0000,  0.0000,  0.0000)
  20 Ru     7.152608    0.905950   14.680926    ( 0.0000,  0.0000,  0.0000)
  21 Pt     2.836218    3.217951   14.673836    ( 0.0000,  0.0000,  0.0000)
  22 Pd     5.679852    3.248287   14.668857    ( 0.0000,  0.0000,  0.0000)
  23 Pt     8.528595    3.277516   14.646563    ( 0.0000,  0.0000,  0.0000)
  24 Ag     4.281150    5.719996   14.643913    ( 0.0000,  0.0000,  0.0000)
  25 Pt     7.163813    5.768248   14.622694    ( 0.0000,  0.0000,  0.0000)
  26 Ag     9.989400    5.739579   14.633412    ( 0.0000,  0.0000,  0.0000)
  27 Pt    -0.006087    1.657434   16.849023    ( 0.0000,  0.0000,  0.0000)
  28 Pd     2.864418    1.601561   16.927647    ( 0.0000,  0.0000,  0.0000)
  29 Pd     5.673175    1.629004   16.942049    ( 0.0000,  0.0000,  0.0000)
  30 Ir     1.438459    4.058084   16.962025    ( 0.0000,  0.0000,  0.0000)
  31 Pt     4.195611    4.031628   16.977838    ( 0.0000,  0.0000,  0.0000)
  32 Pd     7.078619    4.089787   16.926494    ( 0.0000,  0.0000,  0.0000)
  33 Pd     2.837213    6.587476   16.896615    ( 0.0000,  0.0000,  0.0000)
  34 Ag     5.670727    6.515538   16.969283    ( 0.0000,  0.0000,  0.0000)
  35 Pt     8.532396    6.526432   16.940522    ( 0.0000,  0.0000,  0.0000)
  36 Pt    -0.022399    0.048114   19.236546    ( 0.0000,  0.0000,  0.0000)
  37 Pt     2.847490    0.020843   19.244680    ( 0.0000,  0.0000,  0.0000)
  38 Pt     5.661917   -0.032836   19.222072    ( 0.0000,  0.0000,  0.0000)
  39 Pt     1.375623    2.417717   19.151596    ( 0.0000,  0.0000,  0.0000)
  40 Pd     4.263391    2.488410   19.376023    ( 0.0000,  0.0000,  0.0000)
  41 Pd     7.123649    2.431937   19.242846    ( 0.0000,  0.0000,  0.0000)
  42 Pt     2.793945    4.971939   19.152603    ( 0.0000,  0.0000,  0.0000)
  43 Ag     5.684103    4.939225   19.428211    ( 0.0000,  0.0000,  0.0000)
  44 Pt     8.559158    4.928118   19.184673    ( 0.0000,  0.0000,  0.0000)
  45 O      4.246262    2.405737   21.381995    ( 0.0000,  0.0000,  0.0000)
  46 H      4.894504    3.067123   21.746756    ( 0.0000,  0.0000,  0.0000)

Unit cell:
           periodic     x           y           z      points  spacing
  1. axis:    yes    8.517266    0.000000    0.000000    40     0.1844
  2. axis:    yes    4.258633    7.376169    0.000000    40     0.1844
  3. axis:    no     0.000000    0.000000   29.270571   140     0.2091

  Lengths:   8.517266   8.517266  29.270571
  Angles:   90.000000  90.000000  60.000000

Effective grid spacing dv^(1/3) = 0.2017

     iter     time        total  log10-change:
                         energy  eigst   dens
iter:   1 22:19:36  -204.496269  -4.14
iter:   2 22:20:46  -204.756973  -4.69  -3.05
iter:   3 22:21:55  -204.560310c -4.91  -2.44
iter:   4 22:23:04  -204.461464c -5.65  -2.66
iter:   5 22:24:13  -204.461159c -6.59  -3.45
iter:   6 22:25:22  -204.460345c -6.58  -3.63
iter:   7 22:26:32  -204.460459c -6.60  -3.57
iter:   8 22:27:42  -204.459802c -7.05  -4.00c
iter:   9 22:28:52  -204.460092c -6.99  -4.01c
iter:  10 22:30:01  -204.459787c -7.43c -4.17c

Converged after 10 iterations.

Dipole moment: (31.386693, 12.941536, -0.200145) |e|*Ang

Energy contributions relative to reference atoms: (reference = -14174791.127075)

Kinetic:       -328.462802
Potential:     +182.405904
External:        +0.000000
XC:             -46.148523
Entropy (-ST):   -2.345496
Local:          -11.081619
--------------------------
Free energy:   -205.632535
Extrapolated:  -204.459787

Showing only first 2 kpts
 Kpt  Band  Eigenvalues  Occupancy
  0   364      0.60109    1.05456
  0   365      0.63121    0.90432
  0   366      0.67660    0.68784
  0   367      0.67932    0.67561

  1   364      0.48682    1.55525
  1   365      0.52708    1.40083
  1   366      0.54680    1.31496
  1   367      0.57568    1.17968


Fermi level: 0.61201

No gap

Forces in eV/Ang:
  0 Pd    0.01532   -0.00591   -0.25465
  1 Pt    0.30713   -0.52816    0.39835
  2 Pt   -0.34673   -0.14123    0.02977
  3 Pd   -0.41556    0.17835   -0.07349
  4 Pd    0.22370   -0.22741   -0.22871
  5 Pt    0.22855    0.31640   -0.18149
  6 Pd   -0.21118    0.22991   -0.08834
  7 Pt    0.54081    0.17097    0.09532
  8 Ru   -0.49270    0.06423    1.34569
  9 Pd   -0.21136    0.15052    0.14310
 10 Pt    0.31237    0.00547   -0.21667
 11 Pd    0.00794    0.05392   -0.08824
 12 Pd    0.09554    0.11314    0.00382
 13 Pt   -0.18339   -0.17459    0.16766
 14 Ag    0.04168   -0.10462    0.03039
 15 Ag    0.00132   -0.08575   -0.12049
 16 Ag   -0.05753   -0.06656    0.07112
 17 Pt    0.02380    0.22880   -0.57987
 18 Pt    0.04538   -0.01737    0.01512
 19 Pt    0.00358   -0.00417    0.02726
 20 Ru    0.00667    0.00014    0.02661
 21 Pt    0.01603   -0.02045    0.00803
 22 Pd    0.00097   -0.02439    0.02287
 23 Pt    0.01037    0.00758   -0.02566
 24 Ag    0.01848   -0.04221    0.00902
 25 Pt    0.00143    0.00762   -0.01280
 26 Ag    0.01561   -0.01389   -0.02947
 27 Pt   -0.01028   -0.03599   -0.03582
 28 Pd   -0.00278   -0.04819   -0.00753
 29 Pd    0.02072   -0.01688    0.01307
 30 Ir    0.00898   -0.01266   -0.02126
 31 Pt    0.02359    0.01011    0.01085
 32 Pd   -0.02059   -0.01870   -0.01184
 33 Pd    0.01917    0.02195   -0.05400
 34 Ag   -0.01150    0.00033   -0.04032
 35 Pt   -0.00083    0.01872   -0.03239
 36 Pt   -0.01204    0.03923   -0.00679
 37 Pt    0.05482    0.09398   -0.01823
 38 Pt   -0.04455    0.04394   -0.01096
 39 Pt    0.03292   -0.00667   -0.00292
 40 Pd   -0.10341   -0.04751   -0.06900
 41 Pd   -0.01725   -0.01406    0.00268
 42 Pt   -0.00110   -0.02404    0.00532
 43 Ag    0.01134    0.03261    0.02048
 44 Pt    0.01994   -0.01500    0.00721
 45 O     0.16362    0.10272    0.13155
 46 H    -0.15671   -0.18891   -0.21472

System changes: positions 

Initializing position-dependent things.

Density initialized from wave functions
                                             
                                             
                                             
                                             
                                             
                                             
                     H                       
                   O                         
                 Pt     Ag     Pt            
                   Pd     Pd                 
            Pt    Pd     Ag     Pt           
       Pt    IPt    PPt    Pd                
                                             
        Pt     Pd    APd    Pt     Ag        
                Pt     Pd     Pt             
                                             
           Pt    APt    ARu    Pt            
                                             
            Pd    PPt    PAg    Ru           
       Pd     Pt     Pd                      
             Pd     Pd     Pt                
        Pd     Pt     Pt                     
                                             
                                             
                                             
                                             
                                             

Positions:
   0 Pd     0.000000    1.639149   10.000000    ( 0.0000,  0.0000,  0.0000)
   1 Pt     2.839089    1.639149   10.000000    ( 0.0000,  0.0000,  0.0000)
   2 Pt     5.678177    1.639149   10.000000    ( 0.0000,  0.0000,  0.0000)
   3 Pd     1.419544    4.097872   10.000000    ( 0.0000,  0.0000,  0.0000)
   4 Pd     4.258633    4.097872   10.000000    ( 0.0000,  0.0000,  0.0000)
   5 Pt     7.097722    4.097872   10.000000    ( 0.0000,  0.0000,  0.0000)
   6 Pd     2.839089    6.556595   10.000000    ( 0.0000,  0.0000,  0.0000)
   7 Pt     5.678177    6.556595   10.000000    ( 0.0000,  0.0000,  0.0000)
   8 Ru     8.517266    6.556595   10.000000    ( 0.0000,  0.0000,  0.0000)
   9 Pd     0.000000    0.000000   12.317643    ( 0.0000,  0.0000,  0.0000)
  10 Pt     2.839089    0.000000   12.317643    ( 0.0000,  0.0000,  0.0000)
  11 Pd     5.678177    0.000000   12.317643    ( 0.0000,  0.0000,  0.0000)
  12 Pd     1.419544    2.458723   12.317643    ( 0.0000,  0.0000,  0.0000)
  13 Pt     4.258633    2.458723   12.317643    ( 0.0000,  0.0000,  0.0000)
  14 Ag     7.097722    2.458723   12.317643    ( 0.0000,  0.0000,  0.0000)
  15 Ag     2.839089    4.917446   12.317643    ( 0.0000,  0.0000,  0.0000)
  16 Ag     5.678177    4.917446   12.317643    ( 0.0000,  0.0000,  0.0000)
  17 Pt     8.517266    4.917446   12.317643    ( 0.0000,  0.0000,  0.0000)
  18 Pt     1.386986    0.802983   14.575037    ( 0.0000,  0.0000,  0.0000)
  19 Pt     4.327206    0.818984   14.617063    ( 0.0000,  0.0000,  0.0000)
  20 Ru     7.153874    0.904637   14.679109    ( 0.0000,  0.0000,  0.0000)
  21 Pt     2.837026    3.216732   14.673776    ( 0.0000,  0.0000,  0.0000)
  22 Pd     5.680877    3.247051   14.669395    ( 0.0000,  0.0000,  0.0000)
  23 Pt     8.528760    3.277495   14.645342    ( 0.0000,  0.0000,  0.0000)
  24 Ag     4.282299    5.718514   14.643894    ( 0.0000,  0.0000,  0.0000)
  25 Pt     7.164036    5.768055   14.622479    ( 0.0000,  0.0000,  0.0000)
  26 Ag     9.990048    5.739144   14.631581    ( 0.0000,  0.0000,  0.0000)
  27 Pt    -0.005856    1.656774   16.846606    ( 0.0000,  0.0000,  0.0000)
  28 Pd     2.866246    1.600807   16.930295    ( 0.0000,  0.0000,  0.0000)
  29 Pd     5.673324    1.628576   16.944757    ( 0.0000,  0.0000,  0.0000)
  30 Ir     1.438812    4.058340   16.959436    ( 0.0000,  0.0000,  0.0000)
  31 Pt     4.195193    4.030260   16.979263    ( 0.0000,  0.0000,  0.0000)
  32 Pd     7.078065    4.089122   16.925916    ( 0.0000,  0.0000,  0.0000)
  33 Pd     2.837927    6.588472   16.893812    ( 0.0000,  0.0000,  0.0000)
  34 Ag     5.670070    6.514677   16.967801    ( 0.0000,  0.0000,  0.0000)
  35 Pt     8.532898    6.525242   16.938218    ( 0.0000,  0.0000,  0.0000)
  36 Pt    -0.023295    0.048445   19.235740    ( 0.0000,  0.0000,  0.0000)
  37 Pt     2.848062    0.020858   19.241841    ( 0.0000,  0.0000,  0.0000)
  38 Pt     5.661014   -0.033404   19.220865    ( 0.0000,  0.0000,  0.0000)
  39 Pt     1.374306    2.417653   19.149225    ( 0.0000,  0.0000,  0.0000)
  40 Pd     4.262938    2.494181   19.374652    ( 0.0000,  0.0000,  0.0000)
  41 Pd     7.123063    2.432420   19.242813    ( 0.0000,  0.0000,  0.0000)
  42 Pt     2.794480    4.972656   19.152134    ( 0.0000,  0.0000,  0.0000)
  43 Ag     5.684865    4.941251   19.429445    ( 0.0000,  0.0000,  0.0000)
  44 Pt     8.559056    4.927396   19.183787    ( 0.0000,  0.0000,  0.0000)
  45 O      4.245898    2.401333   21.387913    ( 0.0000,  0.0000,  0.0000)
  46 H      4.893995    3.064926   21.734317    ( 0.0000,  0.0000,  0.0000)

Unit cell:
           periodic     x           y           z      points  spacing
  1. axis:    yes    8.517266    0.000000    0.000000    40     0.1844
  2. axis:    yes    4.258633    7.376169    0.000000    40     0.1844
  3. axis:    no     0.000000    0.000000   29.270571   140     0.2091

  Lengths:   8.517266   8.517266  29.270571
  Angles:   90.000000  90.000000  60.000000

Effective grid spacing dv^(1/3) = 0.2017

     iter     time        total  log10-change:
                         energy  eigst   dens
iter:   1 22:31:37  -204.823531  -4.52
iter:   2 22:32:47  -218.792164  -3.39  -2.42
iter:   3 22:33:57  -204.689355  -3.64  -1.69
iter:   4 22:35:06  -204.483922  -5.07  -2.56
iter:   5 22:36:15  -204.466372c -5.73  -3.12
iter:   6 22:37:25  -204.465199c -6.20  -3.65
iter:   7 22:38:34  -204.463600c -6.42  -3.74
iter:   8 22:39:44  -204.463235c -6.63  -3.96
iter:   9 22:40:56  -204.463694c -6.79  -3.97
iter:  10 22:42:08  -204.462995c -7.28  -3.77
iter:  11 22:43:20  -204.462920c -7.53c -4.08c

Converged after 11 iterations.

Dipole moment: (31.566515, 12.915860, -0.210913) |e|*Ang

Energy contributions relative to reference atoms: (reference = -14174791.127075)

Kinetic:       -327.936533
Potential:     +181.937842
External:        +0.000000
XC:             -46.212117
Entropy (-ST):   -2.344780
Local:          -11.079722
--------------------------
Free energy:   -205.635310
Extrapolated:  -204.462920

Showing only first 2 kpts
 Kpt  Band  Eigenvalues  Occupancy
  0   364      0.59597    1.05418
  0   365      0.62602    0.90432
  0   366      0.67085    0.69034
  0   367      0.67397    0.67632

  1   364      0.48167    1.55513
  1   365      0.52194    1.40064
  1   366      0.54110    1.31727
  1   367      0.57135    1.17551


Fermi level: 0.60682

No gap

Forces in eV/Ang:
  0 Pd    0.01663   -0.00618   -0.25418
  1 Pt    0.30591   -0.52902    0.40067
  2 Pt   -0.34706   -0.14300    0.03070
  3 Pd   -0.41637    0.17854   -0.07397
  4 Pd    0.22351   -0.22715   -0.22839
  5 Pt    0.22973    0.31796   -0.18151
  6 Pd   -0.21145    0.22986   -0.08854
  7 Pt    0.54036    0.17185    0.09657
  8 Ru   -0.49200    0.06424    1.34415
  9 Pd   -0.21307    0.15360    0.14342
 10 Pt    0.31524    0.00678   -0.22905
 11 Pd    0.00974    0.05799   -0.09608
 12 Pd    0.09597    0.10755   -0.00508
 13 Pt   -0.18232   -0.18051    0.16196
 14 Ag    0.04170   -0.10850    0.02603
 15 Ag    0.00409   -0.08434   -0.12891
 16 Ag   -0.05498   -0.06698    0.06682
 17 Pt    0.01997    0.23021   -0.59500
 18 Pt    0.02983   -0.01558    0.00074
 19 Pt    0.00850   -0.00353    0.01284
 20 Ru    0.00659    0.00294    0.01242
 21 Pt    0.01503   -0.02124    0.01172
 22 Pd   -0.00088   -0.02373    0.01484
 23 Pt    0.00858    0.00149   -0.02143
 24 Ag    0.01469   -0.03650   -0.00210
 25 Pt    0.00332   -0.00054   -0.02095
 26 Ag    0.01640   -0.01027   -0.02574
 27 Pt   -0.00572   -0.01966   -0.01687
 28 Pd   -0.02143   -0.03638   -0.03635
 29 Pd    0.02498   -0.01016   -0.00581
 30 Ir    0.00131   -0.01150   -0.01197
 31 Pt    0.02392    0.01637    0.00093
 32 Pd   -0.00716   -0.01586   -0.00307
 33 Pd    0.00460    0.00560   -0.02472
 34 Ag   -0.00513    0.00020   -0.02385
 35 Pt    0.00500    0.00200   -0.01816
 36 Pt   -0.01432    0.03406   -0.01771
 37 Pt    0.05313    0.08437    0.00943
 38 Pt   -0.03484    0.02835    0.00141
 39 Pt    0.02285   -0.00073    0.00920
 40 Pd   -0.11158   -0.08854    0.05228
 41 Pd    0.00147   -0.01327    0.00261
 42 Pt   -0.01575    0.00028   -0.00714
 43 Ag    0.01676    0.04393    0.01346
 44 Pt    0.02096   -0.00859   -0.00393
 45 O     0.07673    0.00201   -0.07410
 46 H    -0.02024   -0.05228   -0.08940

System changes: positions 

Initializing position-dependent things.

Density initialized from wave functions
                                             
                                             
                                             
                                             
                                             
                                             
                     H                       
                   O                         
                 Pt     Ag     Pt            
                   Pd     Pd                 
            Pt    Pd     Ag     Pt           
       Pt    IPt    PPt    Pd                
                                             
        Pt     Pd    APd    Pt     Ag        
                Pt     Pd     Pt             
                                             
           Pt    APt    ARu    Pt            
                                             
            Pd    PPt    PAg    Ru           
       Pd     Pt     Pd                      
             Pd     Pd     Pt                
        Pd     Pt     Pt                     
                                             
                                             
                                             
                                             
                                             

Positions:
   0 Pd     0.000000    1.639149   10.000000    ( 0.0000,  0.0000,  0.0000)
   1 Pt     2.839089    1.639149   10.000000    ( 0.0000,  0.0000,  0.0000)
   2 Pt     5.678177    1.639149   10.000000    ( 0.0000,  0.0000,  0.0000)
   3 Pd     1.419544    4.097872   10.000000    ( 0.0000,  0.0000,  0.0000)
   4 Pd     4.258633    4.097872   10.000000    ( 0.0000,  0.0000,  0.0000)
   5 Pt     7.097722    4.097872   10.000000    ( 0.0000,  0.0000,  0.0000)
   6 Pd     2.839089    6.556595   10.000000    ( 0.0000,  0.0000,  0.0000)
   7 Pt     5.678177    6.556595   10.000000    ( 0.0000,  0.0000,  0.0000)
   8 Ru     8.517266    6.556595   10.000000    ( 0.0000,  0.0000,  0.0000)
   9 Pd     0.000000    0.000000   12.317643    ( 0.0000,  0.0000,  0.0000)
  10 Pt     2.839089    0.000000   12.317643    ( 0.0000,  0.0000,  0.0000)
  11 Pd     5.678177    0.000000   12.317643    ( 0.0000,  0.0000,  0.0000)
  12 Pd     1.419544    2.458723   12.317643    ( 0.0000,  0.0000,  0.0000)
  13 Pt     4.258633    2.458723   12.317643    ( 0.0000,  0.0000,  0.0000)
  14 Ag     7.097722    2.458723   12.317643    ( 0.0000,  0.0000,  0.0000)
  15 Ag     2.839089    4.917446   12.317643    ( 0.0000,  0.0000,  0.0000)
  16 Ag     5.678177    4.917446   12.317643    ( 0.0000,  0.0000,  0.0000)
  17 Pt     8.517266    4.917446   12.317643    ( 0.0000,  0.0000,  0.0000)
  18 Pt     1.388010    0.802623   14.575043    ( 0.0000,  0.0000,  0.0000)
  19 Pt     4.327716    0.818997   14.617521    ( 0.0000,  0.0000,  0.0000)
  20 Ru     7.154471    0.904114   14.678429    ( 0.0000,  0.0000,  0.0000)
  21 Pt     2.837646    3.215888   14.673949    ( 0.0000,  0.0000,  0.0000)
  22 Pd     5.681320    3.246163   14.669832    ( 0.0000,  0.0000,  0.0000)
  23 Pt     8.528898    3.277421   14.644551    ( 0.0000,  0.0000,  0.0000)
  24 Ag     4.283010    5.717337   14.643797    ( 0.0000,  0.0000,  0.0000)
  25 Pt     7.164149    5.767915   14.622017    ( 0.0000,  0.0000,  0.0000)
  26 Ag     9.990587    5.738857   14.630392    ( 0.0000,  0.0000,  0.0000)
  27 Pt    -0.005813    1.656412   16.845388    ( 0.0000,  0.0000,  0.0000)
  28 Pd     2.866623    1.599982   16.930542    ( 0.0000,  0.0000,  0.0000)
  29 Pd     5.673830    1.628241   16.945535    ( 0.0000,  0.0000,  0.0000)
  30 Ir     1.438962    4.058296   16.958258    ( 0.0000,  0.0000,  0.0000)
  31 Pt     4.195345    4.030016   16.979534    ( 0.0000,  0.0000,  0.0000)
  32 Pd     7.077780    4.088541   16.925597    ( 0.0000,  0.0000,  0.0000)
  33 Pd     2.838182    6.588872   16.892411    ( 0.0000,  0.0000,  0.0000)
  34 Ag     5.669752    6.514277   16.966932    ( 0.0000,  0.0000,  0.0000)
  35 Pt     8.533298    6.524693   16.937055    ( 0.0000,  0.0000,  0.0000)
  36 Pt    -0.023883    0.049038   19.235067    ( 0.0000,  0.0000,  0.0000)
  37 Pt     2.848996    0.021936   19.240764    ( 0.0000,  0.0000,  0.0000)
  38 Pt     5.660174   -0.033469   19.220250    ( 0.0000,  0.0000,  0.0000)
  39 Pt     1.373994    2.417693   19.148274    ( 0.0000,  0.0000,  0.0000)
  40 Pd     4.260915    2.495185   19.377806    ( 0.0000,  0.0000,  0.0000)
  41 Pd     7.122985    2.432428   19.242684    ( 0.0000,  0.0000,  0.0000)
  42 Pt     2.794226    4.973126   19.151655    ( 0.0000,  0.0000,  0.0000)
  43 Ag     5.685491    4.942903   19.430082    ( 0.0000,  0.0000,  0.0000)
  44 Pt     8.559467    4.927032   19.183232    ( 0.0000,  0.0000,  0.0000)
  45 O      4.247435    2.400073   21.386648    ( 0.0000,  0.0000,  0.0000)
  46 H      4.893290    3.063025   21.728003    ( 0.0000,  0.0000,  0.0000)

Unit cell:
           periodic     x           y           z      points  spacing
  1. axis:    yes    8.517266    0.000000    0.000000    40     0.1844
  2. axis:    yes    4.258633    7.376169    0.000000    40     0.1844
  3. axis:    no     0.000000    0.000000   29.270571   140     0.2091

  Lengths:   8.517266   8.517266  29.270571
  Angles:   90.000000  90.000000  60.000000

Effective grid spacing dv^(1/3) = 0.2017

     iter     time        total  log10-change:
                         energy  eigst   dens
iter:   1 22:44:55  -204.474128  -5.11
iter:   2 22:46:05  -204.619836  -5.27  -3.30
iter:   3 22:47:15  -204.466272c -5.54  -2.60
iter:   4 22:48:25  -204.465826c -6.42  -3.46
iter:   5 22:49:36  -204.464584c -7.13  -3.82
iter:   6 22:50:47  -204.464373c -7.20  -3.85
iter:   7 22:51:57  -204.464654c -7.62c -4.17c

Converged after 7 iterations.

Dipole moment: (31.650603, 12.821635, -0.204060) |e|*Ang

Energy contributions relative to reference atoms: (reference = -14174791.127075)

Kinetic:       -328.491967
Potential:     +182.498716
External:        +0.000000
XC:             -46.245658
Entropy (-ST):   -2.344084
Local:          -11.053704
--------------------------
Free energy:   -205.636696
Extrapolated:  -204.464654

Showing only first 2 kpts
 Kpt  Band  Eigenvalues  Occupancy
  0   364      0.59699    1.05395
  0   365      0.62723    0.90310
  0   366      0.67171    0.69087
  0   367      0.67504    0.67591

  1   364      0.48206    1.55713
  1   365      0.52300    1.40025
  1   366      0.54189    1.31810
  1   367      0.57264    1.17399


Fermi level: 0.60779

No gap

Forces in eV/Ang:
  0 Pd    0.01361   -0.00531   -0.26559
  1 Pt    0.30434   -0.52671    0.37988
  2 Pt   -0.34252   -0.14578    0.01480
  3 Pd   -0.41440    0.18144   -0.09095
  4 Pd    0.21791   -0.22415   -0.24532
  5 Pt    0.23297    0.31386   -0.19885
  6 Pd   -0.21412    0.22823   -0.10195
  7 Pt    0.53664    0.17332    0.07553
  8 Ru   -0.48687    0.06149    1.32565
  9 Pd   -0.22654    0.15681    0.16115
 10 Pt    0.31233    0.00689   -0.22232
 11 Pd    0.02812    0.06002   -0.08211
 12 Pd    0.08667    0.10923    0.00297
 13 Pt   -0.17667   -0.17792    0.17076
 14 Ag    0.04627   -0.11574    0.03222
 15 Ag    0.00252   -0.07865   -0.12454
 16 Ag   -0.05515   -0.07009    0.07331
 17 Pt    0.02419    0.22252   -0.58288
 18 Pt    0.01400   -0.01488   -0.01164
 19 Pt    0.00962   -0.01393    0.00551
 20 Ru    0.00865   -0.00691   -0.01385
 21 Pt    0.00221   -0.00992    0.00833
 22 Pd   -0.00422   -0.01295   -0.00355
 23 Pt    0.01881    0.00834   -0.03223
 24 Ag    0.00593   -0.02756   -0.01468
 25 Pt    0.01502   -0.00233   -0.02015
 26 Ag    0.01280   -0.01183   -0.02439
 27 Pt    0.00807   -0.01482   -0.01402
 28 Pd   -0.01625   -0.01908   -0.03937
 29 Pd    0.00141    0.00022   -0.00252
 30 Ir    0.00229   -0.01164   -0.03241
 31 Pt    0.02761    0.00679    0.01667
 32 Pd   -0.00595    0.00338    0.00690
 33 Pd    0.00235   -0.00756   -0.01823
 34 Ag    0.00025   -0.00464   -0.01441
 35 Pt    0.00190   -0.00439   -0.02679
 36 Pt   -0.01097    0.00880   -0.05709
 37 Pt    0.04064    0.04264   -0.03571
 38 Pt   -0.02626    0.02399   -0.03640
 39 Pt    0.00008   -0.00556   -0.04665
 40 Pd   -0.03946   -0.05553   -0.05977
 41 Pd   -0.01670    0.01532   -0.01807
 42 Pt    0.01305    0.02245   -0.05684
 43 Ag    0.01608    0.02704   -0.00571
 44 Pt   -0.01394   -0.00350   -0.03988
 45 O     0.12115    0.01026   -0.21259
 46 H     0.08855    0.05267   -0.03590

System changes: positions 

Initializing position-dependent things.

Density initialized from wave functions
                                             
                                             
                                             
                                             
                                             
                                             
                     H                       
                   O                         
                 Pt     Ag     Pt            
                   Pd     Pd                 
            Pt    Pd     Ag     Pt           
       Pt    IPt    PPt    Pd                
                                             
        Pt     Pd    APd    Pt     Ag        
                Pt     Pd     Pt             
                                             
           Pt    APt    ARu    Pt            
                                             
            Pd    PPt    PAg    Ru           
       Pd     Pt     Pd                      
             Pd     Pd     Pt                
        Pd     Pt     Pt                     
                                             
                                             
[...]
  28 Pd     2.866855    1.592066   16.922120    ( 0.0000,  0.0000,  0.0000)
  29 Pd     5.678343    1.625634   16.949179    ( 0.0000,  0.0000,  0.0000)
  30 Ir     1.441125    4.055362   16.947460    ( 0.0000,  0.0000,  0.0000)
  31 Pt     4.200720    4.027785   16.984330    ( 0.0000,  0.0000,  0.0000)
  32 Pd     7.076366    4.083764   16.923790    ( 0.0000,  0.0000,  0.0000)
  33 Pd     2.839724    6.588598   16.878924    ( 0.0000,  0.0000,  0.0000)
  34 Ag     5.670424    6.510586   16.961522    ( 0.0000,  0.0000,  0.0000)
  35 Pt     8.536892    6.518547   16.925006    ( 0.0000,  0.0000,  0.0000)
  36 Pt    -0.030082    0.055618   19.220531    ( 0.0000,  0.0000,  0.0000)
  37 Pt     2.859602    0.036569   19.231303    ( 0.0000,  0.0000,  0.0000)
  38 Pt     5.652007   -0.029637   19.212281    ( 0.0000,  0.0000,  0.0000)
  39 Pt     1.371645    2.418671   19.138180    ( 0.0000,  0.0000,  0.0000)
  40 Pd     4.236192    2.493955   19.371661    ( 0.0000,  0.0000,  0.0000)
  41 Pd     7.117340    2.436177   19.240618    ( 0.0000,  0.0000,  0.0000)
  42 Pt     2.794175    4.980373   19.140910    ( 0.0000,  0.0000,  0.0000)
  43 Ag     5.690250    4.957228   19.433302    ( 0.0000,  0.0000,  0.0000)
  44 Pt     8.561244    4.924858   19.172790    ( 0.0000,  0.0000,  0.0000)
  45 O      4.258524    2.370313   21.373397    ( 0.0000,  0.0000,  0.0000)
  46 H      4.901951    3.057340   21.694395    ( 0.0000,  0.0000,  0.0000)

Unit cell:
           periodic     x           y           z      points  spacing
  1. axis:    yes    8.517266    0.000000    0.000000    40     0.1844
  2. axis:    yes    4.258633    7.376169    0.000000    40     0.1844
  3. axis:    no     0.000000    0.000000   29.270571   140     0.2091

  Lengths:   8.517266   8.517266  29.270571
  Angles:   90.000000  90.000000  60.000000

Effective grid spacing dv^(1/3) = 0.2017

     iter     time        total  log10-change:
                         energy  eigst   dens
iter:   1 01:14:51  -224.957798  -2.32
iter:   2 01:15:51  -426.596168  -1.35  -1.58
iter:   3 01:16:50  -239.201824  -1.87  -1.07
iter:   4 01:17:49  -207.350331  -2.58  -1.53
iter:   5 01:18:48  -205.457137  -3.63  -2.09
iter:   6 01:19:47  -204.876818  -4.07  -2.27
iter:   7 01:20:46  -204.778949  -4.49  -2.48
iter:   8 01:21:45  -204.618948c -4.37  -2.54
iter:   9 01:22:45  -204.561321c -4.88  -2.64
iter:  10 01:23:44  -204.553576c -4.43  -2.79
iter:  11 01:24:43  -204.738805c -4.83  -2.77
iter:  12 01:25:42  -204.494794c -5.12  -2.48
iter:  13 01:26:41  -204.509738c -5.60  -2.98
iter:  14 01:27:40  -204.494646c -5.56  -2.88
iter:  15 01:28:40  -204.483018c -5.33  -2.98
iter:  16 01:29:39  -204.484206c -5.74  -3.06
iter:  17 01:30:38  -204.474292c -5.77  -3.19
iter:  18 01:31:37  -204.478548c -6.02  -3.44
iter:  19 01:32:36  -204.479326c -6.22  -3.35
iter:  20 01:33:36  -204.474544c -6.56  -3.37
iter:  21 01:34:35  -204.474512c -6.96  -3.69
iter:  22 01:35:33  -204.476675c -6.88  -3.71
iter:  23 01:36:32  -204.474470c -6.77  -3.54
iter:  24 01:37:31  -204.474792c -7.17  -3.76
iter:  25 01:38:29  -204.475230c -7.52c -3.81
iter:  26 01:39:28  -204.474177c -7.56c -3.86
iter:  27 01:40:27  -204.475096c -7.39  -4.17c
iter:  28 01:41:25  -204.474746c -7.74c -3.77
iter:  29 01:42:24  -204.474749c -7.99c -4.16c

Converged after 29 iterations.

Dipole moment: (32.196990, 11.331057, -0.207745) |e|*Ang

Energy contributions relative to reference atoms: (reference = -14174791.127075)

Kinetic:       -327.417417
Potential:     +181.734730
External:        +0.000000
XC:             -46.510686
Entropy (-ST):   -2.339241
Local:          -11.111756
--------------------------
Free energy:   -205.644369
Extrapolated:  -204.474749

Showing only first 2 kpts
 Kpt  Band  Eigenvalues  Occupancy
  0   364      0.60142    1.04403
  0   365      0.62922    0.90532
  0   366      0.67198    0.70071
  0   367      0.67651    0.68021

  1   364      0.48731    1.54734
  1   365      0.52568    1.39922
  1   366      0.54384    1.32025
  1   367      0.57579    1.17049


Fermi level: 0.61023

No gap

Forces in eV/Ang:
  0 Pd    0.01381   -0.00591   -0.25917
  1 Pt    0.30497   -0.52833    0.39273
  2 Pt   -0.34510   -0.14551    0.02225
  3 Pd   -0.41823    0.18283   -0.08247
  4 Pd    0.22280   -0.22542   -0.23853
  5 Pt    0.23091    0.31730   -0.19113
  6 Pd   -0.21442    0.23153   -0.09870
  7 Pt    0.53673    0.17285    0.08278
  8 Ru   -0.49084    0.06478    1.33279
  9 Pd   -0.22062    0.14605    0.15829
 10 Pt    0.33127    0.00398   -0.24146
 11 Pd    0.02379    0.06571   -0.10134
 12 Pd    0.10292    0.10382   -0.00644
 13 Pt   -0.17227   -0.18557    0.17874
 14 Ag    0.03742   -0.11237    0.01243
 15 Ag    0.01781   -0.09586   -0.14806
 16 Ag   -0.05304   -0.08434    0.05955
 17 Pt    0.02809    0.21817   -0.61756
 18 Pt   -0.01869   -0.00871   -0.00292
 19 Pt    0.00562   -0.01272   -0.01838
 20 Ru    0.00056   -0.00599    0.00469
 21 Pt    0.00346    0.00976   -0.01567
 22 Pd    0.00102    0.01035   -0.01143
 23 Pt   -0.00012   -0.00874    0.01977
 24 Ag    0.00279    0.00200    0.00629
 25 Pt    0.00360   -0.01380    0.01340
 26 Ag    0.00300   -0.00492    0.01426
 27 Pt    0.00077    0.00682    0.01780
 28 Pd    0.00376    0.01500   -0.01245
 29 Pd   -0.00921   -0.00109   -0.02651
 30 Ir    0.00770    0.00120    0.01839
 31 Pt    0.00687   -0.00346   -0.01006
 32 Pd    0.00860    0.01154    0.00062
 33 Pd    0.00058   -0.01576    0.01863
 34 Ag    0.01599   -0.00729    0.01581
 35 Pt   -0.00133   -0.00242    0.01897
 36 Pt    0.00109   -0.00439   -0.00324
 37 Pt   -0.04307   -0.03865   -0.00633
 38 Pt    0.02621   -0.00949   -0.01746
 39 Pt   -0.01359    0.00618   -0.00256
 40 Pd    0.04782    0.02375   -0.07526
 41 Pd   -0.01215    0.01901    0.00367
 42 Pt    0.00226    0.00687    0.00101
 43 Ag   -0.01521   -0.01568    0.00558
 44 Pt   -0.00902    0.00990   -0.00275
 45 O     0.16172    0.09361    0.04754
 46 H    -0.14524   -0.18233   -0.07915

System changes: positions 

Initializing position-dependent things.

Density initialized from wave functions
                                             
                                             
                                             
                                             
                                             
                                             
                     H                       
                   O                         
                 Pt     Ag     Pt            
                   Pd     Pd                 
            Pt    Pd     Ag     Pt           
       Pt    IPt    PPt    Pd                
                                             
        Pt     Pd    APd    Pt     Ag        
                Pt     Pd     Pt             
                                             
           Pt    APt    ARu    Pt            
                                             
            Pd    PPt    PAg    Ru           
       Pd     Pt     Pd                      
             Pd     Pd     Pt                
        Pd     Pt     Pt                     
                                             
                                             
                                             
                                             
                                             

Positions:
   0 Pd     0.000000    1.639149   10.000000    ( 0.0000,  0.0000,  0.0000)
   1 Pt     2.839089    1.639149   10.000000    ( 0.0000,  0.0000,  0.0000)
   2 Pt     5.678177    1.639149   10.000000    ( 0.0000,  0.0000,  0.0000)
   3 Pd     1.419544    4.097872   10.000000    ( 0.0000,  0.0000,  0.0000)
   4 Pd     4.258633    4.097872   10.000000    ( 0.0000,  0.0000,  0.0000)
   5 Pt     7.097722    4.097872   10.000000    ( 0.0000,  0.0000,  0.0000)
   6 Pd     2.839089    6.556595   10.000000    ( 0.0000,  0.0000,  0.0000)
   7 Pt     5.678177    6.556595   10.000000    ( 0.0000,  0.0000,  0.0000)
   8 Ru     8.517266    6.556595   10.000000    ( 0.0000,  0.0000,  0.0000)
   9 Pd     0.000000    0.000000   12.317643    ( 0.0000,  0.0000,  0.0000)
  10 Pt     2.839089    0.000000   12.317643    ( 0.0000,  0.0000,  0.0000)
  11 Pd     5.678177    0.000000   12.317643    ( 0.0000,  0.0000,  0.0000)
  12 Pd     1.419544    2.458723   12.317643    ( 0.0000,  0.0000,  0.0000)
  13 Pt     4.258633    2.458723   12.317643    ( 0.0000,  0.0000,  0.0000)
  14 Ag     7.097722    2.458723   12.317643    ( 0.0000,  0.0000,  0.0000)
  15 Ag     2.839089    4.917446   12.317643    ( 0.0000,  0.0000,  0.0000)
  16 Ag     5.678177    4.917446   12.317643    ( 0.0000,  0.0000,  0.0000)
  17 Pt     8.517266    4.917446   12.317643    ( 0.0000,  0.0000,  0.0000)
  18 Pt     1.394512    0.796279   14.571519    ( 0.0000,  0.0000,  0.0000)
  19 Pt     4.333609    0.814827   14.619161    ( 0.0000,  0.0000,  0.0000)
  20 Ru     7.160094    0.899339   14.672963    ( 0.0000,  0.0000,  0.0000)
  21 Pt     2.842460    3.209595   14.675812    ( 0.0000,  0.0000,  0.0000)
  22 Pd     5.685109    3.237159   14.672089    ( 0.0000,  0.0000,  0.0000)
  23 Pt     8.533144    3.276281   14.638132    ( 0.0000,  0.0000,  0.0000)
  24 Ag     4.288668    5.706029   14.640779    ( 0.0000,  0.0000,  0.0000)
  25 Pt     7.168142    5.764610   14.617100    ( 0.0000,  0.0000,  0.0000)
  26 Ag     9.996808    5.734425   14.621305    ( 0.0000,  0.0000,  0.0000)
  27 Pt    -0.003975    1.653666   16.836745    ( 0.0000,  0.0000,  0.0000)
  28 Pd     2.866944    1.592903   16.922651    ( 0.0000,  0.0000,  0.0000)
  29 Pd     5.677826    1.625908   16.948702    ( 0.0000,  0.0000,  0.0000)
  30 Ir     1.441023    4.055619   16.948577    ( 0.0000,  0.0000,  0.0000)
  31 Pt     4.200334    4.027836   16.983991    ( 0.0000,  0.0000,  0.0000)
  32 Pd     7.076567    4.084293   16.923962    ( 0.0000,  0.0000,  0.0000)
  33 Pd     2.839671    6.588413   16.880085    ( 0.0000,  0.0000,  0.0000)
  34 Ag     5.670612    6.510772   16.962286    ( 0.0000,  0.0000,  0.0000)
  35 Pt     8.536517    6.518973   16.926174    ( 0.0000,  0.0000,  0.0000)
  36 Pt    -0.029385    0.054796   19.221824    ( 0.0000,  0.0000,  0.0000)
  37 Pt     2.857947    0.034552   19.232112    ( 0.0000,  0.0000,  0.0000)
  38 Pt     5.653074   -0.030169   19.212760    ( 0.0000,  0.0000,  0.0000)
  39 Pt     1.371640    2.418676   19.139152    ( 0.0000,  0.0000,  0.0000)
  40 Pd     4.238700    2.494742   19.371521    ( 0.0000,  0.0000,  0.0000)
  41 Pd     7.117611    2.436307   19.240654    ( 0.0000,  0.0000,  0.0000)
  42 Pt     2.794461    4.979813   19.141904    ( 0.0000,  0.0000,  0.0000)
  43 Ag     5.689635    4.955783   19.432802    ( 0.0000,  0.0000,  0.0000)
  44 Pt     8.560748    4.925182   19.173716    ( 0.0000,  0.0000,  0.0000)
  45 O      4.259344    2.374487   21.376154    ( 0.0000,  0.0000,  0.0000)
  46 H      4.899973    3.056723   21.698279    ( 0.0000,  0.0000,  0.0000)

Unit cell:
           periodic     x           y           z      points  spacing
  1. axis:    yes    8.517266    0.000000    0.000000    40     0.1844
  2. axis:    yes    4.258633    7.376169    0.000000    40     0.1844
  3. axis:    no     0.000000    0.000000   29.270571   140     0.2091

  Lengths:   8.517266   8.517266  29.270571
  Angles:   90.000000  90.000000  60.000000

Effective grid spacing dv^(1/3) = 0.2017

     iter     time        total  log10-change:
                         energy  eigst   dens
iter:   1 01:43:43  -206.178827  -4.34
iter:   2 01:44:41  -254.226513  -2.71  -2.10
iter:   3 01:45:40  -208.047666  -3.10  -1.43
iter:   4 01:46:39  -204.864319  -4.12  -1.99
iter:   5 01:47:38  -204.502393  -4.87  -2.42
iter:   6 01:48:37  -204.483706  -5.43  -3.13
iter:   7 01:49:35  -204.480802c -5.79  -3.50
iter:   8 01:50:35  -204.476526c -6.10  -3.43
iter:   9 01:51:34  -204.476640c -6.42  -3.71
iter:  10 01:52:33  -204.475919c -6.71  -3.84
iter:  11 01:53:32  -204.475520c -6.66  -4.01c
iter:  12 01:54:31  -204.475386c -7.16  -4.19c
iter:  13 01:55:30  -204.474994c -7.51c -4.29c

Converged after 13 iterations.

Dipole moment: (32.162277, 11.501475, -0.210487) |e|*Ang

Energy contributions relative to reference atoms: (reference = -14174791.127075)

Kinetic:       -324.992415
Potential:     +179.385561
External:        +0.000000
XC:             -46.619164
Entropy (-ST):   -2.339790
Local:          -11.079080
--------------------------
Free energy:   -205.644889
Extrapolated:  -204.474994

Showing only first 2 kpts
 Kpt  Band  Eigenvalues  Occupancy
  0   364      0.59844    1.04667
  0   365      0.62702    0.90413
  0   366      0.67006    0.69833
  0   367      0.67414    0.67988

  1   364      0.48413    1.54991
  1   365      0.52321    1.39936
  1   366      0.54141    1.32021
  1   367      0.57344    1.17006


Fermi level: 0.60778

No gap

Forces in eV/Ang:
  0 Pd    0.01436   -0.00491   -0.25658
  1 Pt    0.30305   -0.52702    0.39611
  2 Pt   -0.34394   -0.14332    0.02670
  3 Pd   -0.41684    0.17962   -0.07644
  4 Pd    0.22219   -0.22537   -0.23326
  5 Pt    0.22946    0.31611   -0.18566
  6 Pd   -0.21278    0.23001   -0.09018
  7 Pt    0.53593    0.17184    0.08792
  8 Ru   -0.49195    0.06436    1.33511
  9 Pd   -0.21910    0.15000    0.15019
 10 Pt    0.32981    0.00518   -0.24936
 11 Pd    0.02312    0.06295   -0.10941
 12 Pd    0.10128    0.10073   -0.01572
 13 Pt   -0.17552   -0.18940    0.16780
 14 Ag    0.04053   -0.11249    0.00897
 15 Ag    0.01466   -0.09435   -0.14905
 16 Ag   -0.05086   -0.08158    0.05626
 17 Pt    0.02780    0.21984   -0.61966
 18 Pt   -0.00486   -0.01273   -0.01038
 19 Pt    0.00776   -0.01500   -0.01512
 20 Ru    0.00518   -0.01292   -0.01029
 21 Pt    0.00583   -0.00181   -0.01036
 22 Pd    0.00481   -0.00713   -0.00817
 23 Pt    0.01015   -0.00515    0.00212
 24 Ag    0.00820   -0.00555   -0.00135
 25 Pt    0.00936   -0.01187   -0.00119
 26 Ag    0.00391   -0.00876   -0.00194
 27 Pt    0.00726   -0.00028    0.00179
 28 Pd    0.00095   -0.00197   -0.02596
 29 Pd   -0.00289   -0.00656   -0.01476
 30 Ir    0.00766   -0.00406   -0.00394
 31 Pt    0.00417   -0.00967   -0.01152
 32 Pd    0.00695   -0.00332   -0.00656
 33 Pd    0.00291   -0.00976   -0.00975
 34 Ag    0.01247   -0.00309    0.00088
 35 Pt    0.00443   -0.00335   -0.01034
 36 Pt   -0.01103    0.01078   -0.02884
 37 Pt   -0.00540    0.00225   -0.01284
 38 Pt    0.00173    0.00721   -0.01691
 39 Pt   -0.01271    0.00219   -0.01751
 40 Pd   -0.00896   -0.01255   -0.03948
 41 Pd   -0.01679    0.00894   -0.01484
 42 Pt   -0.00430    0.01884   -0.02546
 43 Ag   -0.00657   -0.00339   -0.02398
 44 Pt   -0.00054    0.00672   -0.01571
 45 O     0.07714    0.01287   -0.01722
 46 H    -0.02811   -0.04536    0.01573

Timing:                                      incl.     excl.
-------------------------------------------------------------------
Density initialized from wave functions:    59.738    59.737   0.3% |
 Symmetrize density:                         0.001     0.001   0.0% |
Forces:                                    282.322   282.322   1.4% ||
Hamiltonian:                                31.559     0.170   0.0% |
 Atomic:                                     3.520     2.149   0.0% |
  XC Correction:                             1.371     1.371   0.0% |
 Calculate atomic Hamiltonians:             23.104    23.104   0.1% |
 Communicate:                                0.541     0.541   0.0% |
 Initialize Hamiltonian:                     0.001     0.001   0.0% |
 Poisson:                                    0.084     0.084   0.0% |
 XC 3D grid:                                 4.139     4.139   0.0% |
LCAO initialization:                       140.044     2.791   0.0% |
 LCAO eigensolver:                          14.833     0.002   0.0% |
  Blacs Orbital Layouts:                     0.378     0.001   0.0% |
   General diagonalize:                      0.367     0.367   0.0% |
   Redistribute coefs:                       0.007     0.007   0.0% |
   Send coefs to domains:                    0.003     0.003   0.0% |
  Calculate projections:                     0.005     0.005   0.0% |
  Distribute overlap matrix:                13.658     0.001   0.0% |
   Scalapack redistribute:                   0.014     0.014   0.0% |
   blocked summation:                       13.643    13.643   0.1% |
  Potential matrix:                          0.745     0.745   0.0% |
  SparseAtomicCorrection:                    0.005     0.005   0.0% |
  Sum over cells:                            0.040     0.040   0.0% |
 LCAO to grid:                             119.223   119.223   0.6% |
 Set positions (LCAO WFS):                   3.198     0.006   0.0% |
  Basic WFS set positions:                   0.002     0.002   0.0% |
  Basis functions set positions:             0.000     0.000   0.0% |
  P tci:                                     0.000     0.000   0.0% |
  ST tci:                                    0.275     0.275   0.0% |
  Scalapack redistribute:                    0.007     0.007   0.0% |
  blocked summation:                         2.798     2.798   0.0% |
  mktci:                                     0.108     0.108   0.0% |
PWDescriptor:                                0.592     0.592   0.0% |
Redistribute:                                0.020     0.020   0.0% |
SCF-cycle:                               19598.246    97.212   0.5% |
 Davidson:                               18032.529  4061.304  20.1% |-------|
  Apply H:                                2010.394  1970.078   9.8% |---|
   HMM T:                                   40.316    40.316   0.2% |
  Subspace diag:                          2118.235     0.066   0.0% |
   calc_h_matrix:                         1418.713   381.235   1.9% ||
    Apply H:                              1037.479  1014.388   5.0% |-|
     HMM T:                                 23.091    23.091   0.1% |
   diagonalize:                             70.891    70.891   0.4% |
   rotate_psi:                             628.564   628.564   3.1% ||
  calc. matrices:                         6880.865  3931.618  19.5% |-------|
   Apply H:                               2949.246  2887.449  14.3% |-----|
    HMM T:                                  61.798    61.798   0.3% |
  diagonalize:                            1030.182  1030.182   5.1% |-|
  rotate_psi:                             1931.550  1931.550   9.6% |---|
 Density:                                  931.061     0.015   0.0% |
  Atomic density matrices:                   5.509     5.509   0.0% |
  Mix:                                     379.103   379.103   1.9% ||
  Multipole moments:                         0.543     0.543   0.0% |
  Pseudo density:                          545.891   545.879   2.7% ||
   Symmetrize density:                       0.012     0.012   0.0% |
 Hamiltonian:                              462.099     2.476   0.0% |
  Atomic:                                   50.867    30.673   0.2% |
   XC Correction:                           20.195    20.195   0.1% |
  Calculate atomic Hamiltonians:           335.550   335.550   1.7% ||
  Communicate:                              10.149    10.149   0.1% |
  Poisson:                                   1.220     1.220   0.0% |
  XC 3D grid:                               61.836    61.836   0.3% |
 Orthonormalize:                            75.345     0.007   0.0% |
  calc_s_matrix:                            11.994    11.994   0.1% |
  inverse-cholesky:                          4.134     4.134   0.0% |
  projections:                              38.999    38.999   0.2% |
  rotate_psi_s:                             20.211    20.211   0.1% |
Set symmetry:                                0.002     0.002   0.0% |
Other:                                      87.893    87.893   0.4% |
-------------------------------------------------------------------
Total:                                             20200.416 100.0%

Memory usage: 869.47 MiB
Date: Fri Jun 14 01:55:43 2024
