
  ___ ___ ___ _ _ _  
 |   |   |_  | | | | 
 | | | | | . | | | | 
 |__ |  _|___|_____|  22.1.0
 |___|_|             

User:   clausen@node492.cluster
Date:   Thu Jun 13 21:54:50 2024
Arch:   x86_64
Pid:    36285
Python: 3.10.4
gpaw:   /groups/kemi/clausen/miniconda3/envs/gpaw22/lib/python3.10/site-packages/gpaw
_gpaw:  /groups/kemi/clausen/miniconda3/envs/gpaw22/lib/python3.10/site-packages/
        _gpaw.cpython-310-x86_64-linux-gnu.so
ase:    /groups/kemi/clausen/miniconda3/envs/gpaw22/lib/python3.10/site-packages/ase (version 3.22.1)
numpy:  /groups/kemi/clausen/miniconda3/envs/gpaw22/lib/python3.10/site-packages/numpy (version 1.23.1)
scipy:  /groups/kemi/clausen/miniconda3/envs/gpaw22/lib/python3.10/site-packages/scipy (version 1.8.1)
libxc:  5.2.3
units:  Angstrom and eV
cores: 24
OpenMP: True
OMP_NUM_THREADS: 1

Input parameters:
  eigensolver: {name: dav,
                niter: 3}
  kpts: [4 4 1]
  mixer: {backend: pulay,
          beta: 0.05,
          method: difference,
          nmaxold: 5,
          weight: 50.0}
  mode: {ecut: 400.0,
         name: pw}
  xc: RPBE

System changes: positions, numbers, cell, pbc, initial_charges, initial_magmoms 

Initialize ...

Pd-setup:
  name: Palladium
  id: 6da19bfba079f22767af9506641940b9
  Z: 46.0
  valence: 16
  core: 30
  charge: 0.0
  file: /groups/kemi/clausen/miniconda3/envs/gpaw22/share/gpaw/Pd.RPBE.gz
  compensation charges: gauss, rc=0.38, lmax=2
  cutoffs: 2.38(filt), 2.28(core),
  valence states:
                energy  radius
    5s(0.00)    -3.225   1.228
    4p(6.00)   -51.131   1.360
    5p(0.00)    -0.373   1.360
    4d(10.00)    -3.964   1.228
    *s          23.987   1.228
    *d          23.247   1.228

  Using partial waves for Pd as LCAO basis

Pt-setup:
  name: Platinum
  id: f04f522592575c47ad794f6b4a415b4b
  Z: 78.0
  valence: 16
  core: 62
  charge: 0.0
  file: /groups/kemi/clausen/miniconda3/envs/gpaw22/share/gpaw/Pt.RPBE.gz
  compensation charges: gauss, rc=0.41, lmax=2
  cutoffs: 2.26(filt), 2.26(core),
  valence states:
                energy  radius
    6s(1.00)    -5.516   1.307
    5p(6.00)   -55.971   1.371
    6p(0.00)    -0.856   1.371
    5d(9.00)    -6.087   1.307
    *s          21.695   1.307
    *d          21.125   1.307

  Using partial waves for Pt as LCAO basis

Ag-setup:
  name: Silver
  id: c05e55bab2c3858b3f9398f6d75cb77c
  Z: 47.0
  valence: 17
  core: 30
  charge: 0.0
  file: /groups/kemi/clausen/miniconda3/envs/gpaw22/share/gpaw/Ag.RPBE.gz
  compensation charges: gauss, rc=0.40, lmax=2
  cutoffs: 2.35(filt), 2.19(core),
  valence states:
                energy  radius
    5s(1.00)    -4.277   1.286
    4p(6.00)   -58.523   1.328
    5p(0.00)    -0.755   1.328
    4d(10.00)    -7.386   1.180
    *s          22.934   1.286
    *d          19.826   1.180

  Using partial waves for Ag as LCAO basis

Ir-setup:
  name: Iridium
  id: 73b603359d1d5397a85ae3c2440f9033
  Z: 77.0
  valence: 15
  core: 62
  charge: 0.0
  file: /groups/kemi/clausen/miniconda3/envs/gpaw22/share/gpaw/Ir.RPBE.gz
  compensation charges: gauss, rc=0.40, lmax=2
  cutoffs: 2.40(filt), 2.36(core),
  valence states:
                energy  radius
    6s(2.00)    -6.219   1.296
    5p(6.00)   -54.684   1.328
    6p(0.00)    -1.215   1.328
    5d(7.00)    -7.118   1.286
    *s          20.992   1.296
    *d          20.093   1.286

  Using partial waves for Ir as LCAO basis

Ru-setup:
  name: Ruthenium
  id: 76477906e28f51dc1b29884d53556fe9
  Z: 44.0
  valence: 16
  core: 28
  charge: 0.0
  file: /groups/kemi/clausen/miniconda3/envs/gpaw22/share/gpaw/Ru.RPBE.gz
  compensation charges: gauss, rc=0.39, lmax=2
  cutoffs: 2.16(filt), 1.30(core),
  valence states:
                energy  radius
    4s(2.00)   -76.255   1.281
    5s(1.00)    -4.126   1.281
    4p(6.00)   -46.371   1.286
    5p(0.00)    -0.913   1.286
    4d(7.00)    -5.146   1.254
    *d          22.066   1.254

  Using partial waves for Ru as LCAO basis

O-setup:
  name: Oxygen
  id: 08071ca1eed670e7821b24b7eb4d558c
  Z: 8.0
  valence: 6
  core: 2
  charge: 0.0
  file: /groups/kemi/clausen/miniconda3/envs/gpaw22/share/gpaw/O.RPBE.gz
  compensation charges: gauss, rc=0.21, lmax=2
  cutoffs: 1.17(filt), 0.83(core),
  valence states:
                energy  radius
    2s(2.00)   -24.041   0.688
    2p(4.00)    -8.984   0.598
    *s           3.170   0.688
    *p          18.228   0.598
    *d           0.000   0.619

  Using partial waves for O as LCAO basis

H-setup:
  name: Hydrogen
  id: ea3f9156a1dc40d47a60fdce8f8bd75d
  Z: 1.0
  valence: 1
  core: 0
  charge: 0.0
  file: /groups/kemi/clausen/miniconda3/envs/gpaw22/share/gpaw/H.RPBE.gz
  compensation charges: gauss, rc=0.15, lmax=2
  cutoffs: 0.85(filt), 0.53(core),
  valence states:
                energy  radius
    1s(1.00)    -6.572   0.476
    *s          20.639   0.476
    *p           0.000   0.476

  Using partial waves for H as LCAO basis

Reference energy: -12373371.003080

Spin-paired calculation

Convergence criteria:
 Maximum [total energy] change in last 3 cyles: 0.0005 eV / electron
 Maximum integral of absolute [dens]ity change: 0.0001 electrons / valence electron
 Maximum integral of absolute [eigenst]ate change: 4e-08 eV^2 / valence electron
 Maximum number of scf [iter]ations: 333
 (Square brackets indicate name in SCF output, whereas a 'c' in
 the SCF output indicates the quantity has converged.)

Symmetries present (total): 1

  ( 1  0  0)
  ( 0  1  0)
  ( 0  0  1)

16 k-points: 4 x 4 x 1 Monkhorst-Pack grid
8 k-points in the irreducible part of the Brillouin zone
       k-points in crystal coordinates                weights
   0:     0.12500000   -0.37500000    0.00000000          2/16
   1:     0.12500000   -0.12500000    0.00000000          2/16
   2:     0.12500000    0.12500000    0.00000000          2/16
   3:     0.12500000    0.37500000    0.00000000          2/16
   4:     0.37500000   -0.37500000    0.00000000          2/16
   5:     0.37500000   -0.12500000    0.00000000          2/16
   6:     0.37500000    0.12500000    0.00000000          2/16
   7:     0.37500000    0.37500000    0.00000000          2/16

Wave functions: Plane wave expansion
  Cutoff energy: 400.000 eV
  Number of coefficients (min, max): 33288, 33380
  Pulay-stress correction: 0.000000 eV/Ang^3 (de/decut=0.000000)
  Using FFTW library
  ScaLapack parameters: grid=3x1, blocksize=64
  Wavefunction extrapolation:
    Improved wavefunction reuse through dual PAW basis 

Occupation numbers: Fermi-Dirac: width=0.1000 eV
 

Eigensolver
   Davidson(niter=3) 

Densities:
  Coarse grid: 40*40*140 grid
  Fine grid: 80*80*280 grid
  Total Charge: 0.000000 

Density mixing:
  Method: separate
  Backend: pulay
  Linear mixing parameter: 0.05
  Mixing with 5 old densities
  Damping of long wave oscillations: 50 

Hamiltonian:
  XC and Coulomb potentials evaluated on a 80*80*280 grid
  Using the RPBE Exchange-Correlation functional
  External potential:
    NoExternalPotential
 

XC parameters: RPBE with 2 nearest neighbor stencil

Memory estimate:
  Process memory now: 192.11 MiB
  Calculator: 564.18 MiB
    Density: 50.39 MiB
      Arrays: 14.92 MiB
      Localized functions: 29.74 MiB
      Mixer: 5.74 MiB
    Hamiltonian: 10.71 MiB
      Arrays: 9.75 MiB
      XC: 0.00 MiB
      Poisson: 0.00 MiB
      vbar: 0.96 MiB
    Wavefunctions: 503.07 MiB
      Arrays psit_nG: 227.67 MiB
      Eigensolver: 260.72 MiB
      Projections: 1.88 MiB
      Projectors: 3.99 MiB
      PW-descriptor: 8.80 MiB

Total number of cores used: 24
Parallelization over k-points: 8
Domain decomposition: 1 x 1 x 3
                      2 x 2 x 6 (xc only)

Number of atoms: 47
Number of atomic orbitals: 548
Number of bands in calculation: 447
Number of valence electrons: 738
Bands to converge: occupied

... initialized

Initializing position-dependent things.

Density initialized from atomic densities
Creating initial wave functions:
  447 bands from LCAO basis set

                                             
                                             
                                             
                                             
                                             
                                             
                            H                
                          O                  
                  Ir    Pt     Ag            
                                             
             Pt   PRu    PPt    Pd           
              Pt     Ag                      
       Pt    Ag     Pd     Ru                
        Ag     Ag     Pt           Ag        
                     Pt     Pt               
                Ru     Pd     Pt             
                                             
           Ag    PAg    PPt    Pd            
                                             
            Ir     Pt    PAg    Pd           
       Pd    PPd    APt    Ag                
                                             
        Pd     Pt     Ag                     
                                             
                                             
                                             
                                             
                                             

Positions:
   0 Pd     0.000000    1.637674   10.000000    ( 0.0000,  0.0000,  0.0000)
   1 Pt     2.836535    1.637674   10.000000    ( 0.0000,  0.0000,  0.0000)
   2 Ag     5.673071    1.637674   10.000000    ( 0.0000,  0.0000,  0.0000)
   3 Pd     1.418268    4.094186   10.000000    ( 0.0000,  0.0000,  0.0000)
   4 Ag     4.254803    4.094186   10.000000    ( 0.0000,  0.0000,  0.0000)
   5 Ag     7.091338    4.094186   10.000000    ( 0.0000,  0.0000,  0.0000)
   6 Ag     2.836535    6.550698   10.000000    ( 0.0000,  0.0000,  0.0000)
   7 Pd     5.673071    6.550698   10.000000    ( 0.0000,  0.0000,  0.0000)
   8 Pd     8.509606    6.550698   10.000000    ( 0.0000,  0.0000,  0.0000)
   9 Pd     0.000000    0.000000   12.317643    ( 0.0000,  0.0000,  0.0000)
  10 Pd     2.836535    0.000000   12.317643    ( 0.0000,  0.0000,  0.0000)
  11 Pt     5.673071    0.000000   12.317643    ( 0.0000,  0.0000,  0.0000)
  12 Ir     1.418268    2.456512   12.317643    ( 0.0000,  0.0000,  0.0000)
  13 Pt     4.254803    2.456512   12.317643    ( 0.0000,  0.0000,  0.0000)
  14 Ag     7.091338    2.456512   12.317643    ( 0.0000,  0.0000,  0.0000)
  15 Pt     2.836535    4.913023   12.317643    ( 0.0000,  0.0000,  0.0000)
  16 Pd     5.673071    4.913023   12.317643    ( 0.0000,  0.0000,  0.0000)
  17 Pd     8.509606    4.913023   12.317643    ( 0.0000,  0.0000,  0.0000)
  18 Ag     1.389069    0.761593   14.611341    ( 0.0000,  0.0000,  0.0000)
  19 Ag     4.222794    0.791242   14.654783    ( 0.0000,  0.0000,  0.0000)
  20 Pt     7.073540    0.805567   14.664382    ( 0.0000,  0.0000,  0.0000)
  21 Ru     2.749307    3.307485   14.388094    ( 0.0000,  0.0000,  0.0000)
  22 Pd     5.607707    3.222150   14.639274    ( 0.0000,  0.0000,  0.0000)
  23 Pt     8.524948    3.259735   14.660441    ( 0.0000,  0.0000,  0.0000)
  24 Pt     4.174602    5.656474   14.614052    ( 0.0000,  0.0000,  0.0000)
  25 Pt     7.045997    5.607689   14.670733    ( 0.0000,  0.0000,  0.0000)
  26 Ag     9.879948    5.755300   14.695121    ( 0.0000,  0.0000,  0.0000)
  27 Ag     0.017308    1.615647   16.996175    ( 0.0000,  0.0000,  0.0000)
  28 Ag     2.800366    1.626414   16.880782    ( 0.0000,  0.0000,  0.0000)
  29 Pt     5.672197    1.642004   17.012334    ( 0.0000,  0.0000,  0.0000)
  30 Ag     1.343075    4.094522   17.005234    ( 0.0000,  0.0000,  0.0000)
  31 Pd     4.166190    4.037462   16.812922    ( 0.0000,  0.0000,  0.0000)
  32 Ru     6.951751    4.066498   16.866913    ( 0.0000,  0.0000,  0.0000)
  33 Pd     2.796571    6.569134   17.026379    ( 0.0000,  0.0000,  0.0000)
  34 Pt     5.661494    6.420339   16.911143    ( 0.0000,  0.0000,  0.0000)
  35 Pd     8.433103    6.505308   17.066448    ( 0.0000,  0.0000,  0.0000)
  36 Pt     0.070793   -0.041697   19.273531    ( 0.0000,  0.0000,  0.0000)
  37 Pt     2.805116    0.091543   19.247171    ( 0.0000,  0.0000,  0.0000)
  38 Ag     5.703172    0.006706   19.481189    ( 0.0000,  0.0000,  0.0000)
  39 Pt     1.550859    2.466264   19.402929    ( 0.0000,  0.0000,  0.0000)
  40 Ru     4.237408    2.607644   19.096110    ( 0.0000,  0.0000,  0.0000)
  41 Pt     7.106116    2.494030   19.217545    ( 0.0000,  0.0000,  0.0000)
  42 Ir     3.043460    4.824551   19.141209    ( 0.0000,  0.0000,  0.0000)
  43 Pt     5.709443    4.866601   19.167406    ( 0.0000,  0.0000,  0.0000)
  44 Ag     8.567230    4.895418   19.518661    ( 0.0000,  0.0000,  0.0000)
  45 O      7.106116    2.494030   21.518661    ( 0.0000,  0.0000,  0.0000)
  46 H      7.756116    3.144030   21.918661    ( 0.0000,  0.0000,  0.0000)

Unit cell:
           periodic     x           y           z      points  spacing
  1. axis:    yes    8.509606    0.000000    0.000000    40     0.1842
  2. axis:    yes    4.254803    7.369535    0.000000    40     0.1842
  3. axis:    no     0.000000    0.000000   29.270571   140     0.2091

  Lengths:   8.509606   8.509606  29.270571
  Angles:   90.000000  90.000000  60.000000

Effective grid spacing dv^(1/3) = 0.2016

     iter     time        total  log10-change:
                         energy  eigst   dens
iter:   1 21:58:32  -250.512552
iter:   2 21:59:41  -360.349603  -1.40  -1.22
iter:   3 22:00:51  -218.619940  -1.98  -1.07
iter:   4 22:02:01  -206.525805  -2.46  -1.38
iter:   5 22:03:11  -203.221677  -2.63  -1.46
iter:   6 22:04:21  -202.169804  -2.73  -1.53
iter:   7 22:05:31  -197.419785  -2.99  -1.55
iter:   8 22:06:42  -197.400336  -3.07  -1.70
iter:   9 22:07:52  -195.971094  -3.04  -1.72
iter:  10 22:09:02  -195.218723  -4.06  -1.88
iter:  11 22:10:12  -194.725622  -3.24  -1.94
iter:  12 22:11:22  -194.732402  -4.00  -2.16
iter:  13 22:12:33  -194.619541c -4.08  -2.15
iter:  14 22:13:44  -194.469278c -4.32  -2.24
iter:  15 22:14:54  -194.233563  -3.90  -2.30
iter:  16 22:16:04  -194.277790c -4.22  -2.46
iter:  17 22:17:14  -194.199898c -4.56  -2.54
iter:  18 22:18:23  -194.149849c -4.40  -2.60
iter:  19 22:19:33  -194.280826c -4.99  -2.73
iter:  20 22:20:42  -194.150558c -4.85  -2.58
iter:  21 22:21:51  -194.148575c -5.47  -2.85
iter:  22 22:23:01  -194.173527c -5.29  -2.91
iter:  23 22:24:10  -194.154770c -5.80  -2.92
iter:  24 22:25:20  -194.148073c -5.46  -2.96
iter:  25 22:26:29  -194.155904c -5.77  -3.16
iter:  26 22:27:39  -194.148657c -6.37  -3.15
iter:  27 22:28:50  -194.145339c -6.09  -3.29
iter:  28 22:30:00  -194.149235c -6.07  -3.37
iter:  29 22:31:10  -194.148602c -6.03  -3.42
iter:  30 22:32:20  -194.145359c -6.58  -3.43
iter:  31 22:33:31  -194.148288c -6.69  -3.53
iter:  32 22:34:42  -194.147530c -7.03  -3.54
iter:  33 22:35:53  -194.145935c -7.00  -3.65
iter:  34 22:37:03  -194.147194c -7.42c -3.66
iter:  35 22:38:14  -194.147128c -7.03  -3.76
iter:  36 22:39:24  -194.145561c -7.12  -3.86
iter:  37 22:40:34  -194.147012c -6.96  -3.84
iter:  38 22:41:45  -194.147256c -7.88c -4.16c

Converged after 38 iterations.

Dipole moment: (-5.269058, 7.679208, -0.484894) |e|*Ang

Energy contributions relative to reference atoms: (reference = -12373371.003080)

Kinetic:       -230.304126
Potential:     +104.153924
External:        +0.000000
XC:             -59.986759
Entropy (-ST):   -1.909543
Local:           -7.055524
--------------------------
Free energy:   -195.102027
Extrapolated:  -194.147256

Showing only first 2 kpts
 Kpt  Band  Eigenvalues  Occupancy
  0   367      0.71247    0.89839
  0   368      0.73272    0.79954
  0   369      0.74928    0.72157
  0   370      0.79038    0.54461

  1   367      0.55898    1.58201
  1   368      0.60036    1.42894
  1   369      0.63069    1.29767
  1   370      0.64785    1.21764


Fermi level: 0.69208

No gap

Forces in eV/Ang:
  0 Pd    0.71875    0.07022    0.09748
  1 Pt   -0.61039   -0.16492    0.57421
  2 Ag   -0.10138   -0.08041   -0.55519
  3 Pd   -0.04582   -0.33800    0.20923
  4 Ag   -0.01058    0.03218   -0.57184
  5 Ag    0.14875    0.16710   -0.49316
  6 Ag    0.04260   -0.00637   -0.47398
  7 Pd    0.23184    0.35241    0.07537
  8 Pd   -0.13282    0.13264    0.20607
  9 Pd   -0.00995    0.09500   -0.02078
 10 Pd    0.00731   -0.03181   -0.12592
 11 Pt   -0.02240   -0.13991    0.14008
 12 Ir    0.68810    0.16172   -0.01022
 13 Pt   -0.66348   -0.18437    0.26926
 14 Ag    0.10740   -0.02186    0.09091
 15 Pt   -0.28031    0.02890    0.17334
 16 Pd   -0.07371    0.25114    0.15427
 17 Pd    0.14638   -0.00222    0.18661
 18 Ag   -0.00543    0.02721    0.02116
 19 Ag   -0.01597   -0.00572   -0.00781
 20 Pt   -0.07327   -0.04741   -0.00622
 21 Ru    0.03190   -0.01420   -0.03125
 22 Pd   -0.03693   -0.00869    0.02510
 23 Pt    0.00323   -0.00521   -0.00475
 24 Pt   -0.01552   -0.01488    0.02311
 25 Pt    0.02513    0.06531   -0.08526
 26 Ag   -0.02997   -0.04108   -0.00838
 27 Ag   -0.07357   -0.01992   -0.00203
 28 Ag   -0.02858   -0.01847    0.01360
 29 Pt    0.19019    0.05883    0.09636
 30 Ag   -0.03054   -0.04637    0.04300
 31 Pd   -0.05468   -0.01390    0.03551
 32 Ru   -0.06251   -0.03359    0.06351
 33 Pd   -0.01715   -0.01086   -0.00716
 34 Pt   -0.03056   -0.01490    0.01901
 35 Pd   -0.02458   -0.00601   -0.01367
 36 Pt    0.12845   -0.11904   -0.06186
 37 Pt    0.03572   -0.02938    0.05681
 38 Ag   -0.00465   -0.05629    0.01214
 39 Pt    0.24031    0.00066   -0.09232
 40 Ru   -0.16643    0.01395    0.03122
 41 Pt   -0.12673   -0.06233    1.78099
 42 Ir   -0.00461   -0.01544    0.03296
 43 Pt   -0.01189    0.10428   -0.07179
 44 Ag    0.07857    0.13068   -0.04875
 45 O     0.21350    0.23495   -1.11914
 46 H    -0.27158   -0.37365   -0.53228

System changes: positions 

Initializing position-dependent things.

Density initialized from wave functions
                                             
                                             
                                             
                                             
                                             
                                             
                            H                
                          O                  
                  Ir    Pt     Ag            
                                             
             Pt   PRu    PPt    Pd           
              Pt     Ag                      
       Pt    Ag     Pd     Ru                
        Ag     Ag     Pt           Ag        
                     Pt     Pt               
                Ru     Pd     Pt             
                                             
           Ag    PAg    PPt    Pd            
                                             
            Ir     Pt    PAg    Pd           
       Pd    PPd    APt    Ag                
                                             
        Pd     Pt     Ag                     
                                             
                                             
                                             
                                             
                                             

Positions:
   0 Pd     0.000000    1.637674   10.000000    ( 0.0000,  0.0000,  0.0000)
   1 Pt     2.836535    1.637674   10.000000    ( 0.0000,  0.0000,  0.0000)
   2 Ag     5.673071    1.637674   10.000000    ( 0.0000,  0.0000,  0.0000)
   3 Pd     1.418268    4.094186   10.000000    ( 0.0000,  0.0000,  0.0000)
   4 Ag     4.254803    4.094186   10.000000    ( 0.0000,  0.0000,  0.0000)
   5 Ag     7.091338    4.094186   10.000000    ( 0.0000,  0.0000,  0.0000)
   6 Ag     2.836535    6.550698   10.000000    ( 0.0000,  0.0000,  0.0000)
   7 Pd     5.673071    6.550698   10.000000    ( 0.0000,  0.0000,  0.0000)
   8 Pd     8.509606    6.550698   10.000000    ( 0.0000,  0.0000,  0.0000)
   9 Pd     0.000000    0.000000   12.317643    ( 0.0000,  0.0000,  0.0000)
  10 Pd     2.836535    0.000000   12.317643    ( 0.0000,  0.0000,  0.0000)
  11 Pt     5.673071    0.000000   12.317643    ( 0.0000,  0.0000,  0.0000)
  12 Ir     1.418268    2.456512   12.317643    ( 0.0000,  0.0000,  0.0000)
  13 Pt     4.254803    2.456512   12.317643    ( 0.0000,  0.0000,  0.0000)
  14 Ag     7.091338    2.456512   12.317643    ( 0.0000,  0.0000,  0.0000)
  15 Pt     2.836535    4.913023   12.317643    ( 0.0000,  0.0000,  0.0000)
  16 Pd     5.673071    4.913023   12.317643    ( 0.0000,  0.0000,  0.0000)
  17 Pd     8.509606    4.913023   12.317643    ( 0.0000,  0.0000,  0.0000)
  18 Ag     1.388991    0.761982   14.611643    ( 0.0000,  0.0000,  0.0000)
  19 Ag     4.222566    0.791160   14.654672    ( 0.0000,  0.0000,  0.0000)
  20 Pt     7.072493    0.804890   14.664294    ( 0.0000,  0.0000,  0.0000)
  21 Ru     2.749763    3.307283   14.387648    ( 0.0000,  0.0000,  0.0000)
  22 Pd     5.607180    3.222026   14.639632    ( 0.0000,  0.0000,  0.0000)
  23 Pt     8.524994    3.259661   14.660374    ( 0.0000,  0.0000,  0.0000)
  24 Pt     4.174380    5.656262   14.614382    ( 0.0000,  0.0000,  0.0000)
  25 Pt     7.046356    5.608622   14.669514    ( 0.0000,  0.0000,  0.0000)
  26 Ag     9.879520    5.754714   14.695002    ( 0.0000,  0.0000,  0.0000)
  27 Ag     0.016258    1.615363   16.996146    ( 0.0000,  0.0000,  0.0000)
  28 Ag     2.799957    1.626150   16.880976    ( 0.0000,  0.0000,  0.0000)
  29 Pt     5.674914    1.642844   17.013711    ( 0.0000,  0.0000,  0.0000)
  30 Ag     1.342639    4.093860   17.005848    ( 0.0000,  0.0000,  0.0000)
  31 Pd     4.165409    4.037263   16.813429    ( 0.0000,  0.0000,  0.0000)
  32 Ru     6.950858    4.066019   16.867821    ( 0.0000,  0.0000,  0.0000)
  33 Pd     2.796326    6.568979   17.026277    ( 0.0000,  0.0000,  0.0000)
  34 Pt     5.661057    6.420126   16.911415    ( 0.0000,  0.0000,  0.0000)
  35 Pd     8.432752    6.505222   17.066253    ( 0.0000,  0.0000,  0.0000)
  36 Pt     0.072628   -0.043398   19.272647    ( 0.0000,  0.0000,  0.0000)
  37 Pt     2.805626    0.091123   19.247983    ( 0.0000,  0.0000,  0.0000)
  38 Ag     5.703106    0.005902   19.481362    ( 0.0000,  0.0000,  0.0000)
  39 Pt     1.554292    2.466273   19.401610    ( 0.0000,  0.0000,  0.0000)
  40 Ru     4.235031    2.607843   19.096556    ( 0.0000,  0.0000,  0.0000)
  41 Pt     7.104306    2.493139   19.242988    ( 0.0000,  0.0000,  0.0000)
  42 Ir     3.043394    4.824330   19.141679    ( 0.0000,  0.0000,  0.0000)
  43 Pt     5.709273    4.868091   19.166381    ( 0.0000,  0.0000,  0.0000)
  44 Ag     8.568353    4.897284   19.517964    ( 0.0000,  0.0000,  0.0000)
  45 O      7.109166    2.497386   21.502673    ( 0.0000,  0.0000,  0.0000)
  46 H      7.752236    3.138692   21.911057    ( 0.0000,  0.0000,  0.0000)

Unit cell:
           periodic     x           y           z      points  spacing
  1. axis:    yes    8.509606    0.000000    0.000000    40     0.1842
  2. axis:    yes    4.254803    7.369535    0.000000    40     0.1842
  3. axis:    no     0.000000    0.000000   29.270571   140     0.2091

  Lengths:   8.509606   8.509606  29.270571
  Angles:   90.000000  90.000000  60.000000

Effective grid spacing dv^(1/3) = 0.2016

     iter     time        total  log10-change:
                         energy  eigst   dens
iter:   1 22:43:16  -194.357847  -4.43
iter:   2 22:44:24  -196.861270  -3.88  -2.59
iter:   3 22:45:34  -194.366322  -4.25  -2.05
iter:   4 22:46:43  -194.235528  -4.91  -2.70
iter:   5 22:47:53  -194.219133c -6.01  -3.19
iter:   6 22:49:04  -194.223280c -6.50  -3.39
iter:   7 22:50:14  -194.220208c -6.66  -3.63
iter:   8 22:51:25  -194.227479c -6.74  -3.56
iter:   9 22:52:36  -194.219632c -6.71  -3.44
iter:  10 22:53:46  -194.220088c -6.65  -3.82
iter:  11 22:54:55  -194.218892c -7.32  -3.85
iter:  12 22:56:04  -194.220900c -7.73c -3.95
iter:  13 22:57:16  -194.219915c -8.19c -4.13c

Converged after 13 iterations.

Dipole moment: (-5.468515, 7.780491, -0.457367) |e|*Ang

Energy contributions relative to reference atoms: (reference = -12373371.003080)

Kinetic:       -232.887101
Potential:     +106.613847
External:        +0.000000
XC:             -60.032940
Entropy (-ST):   -1.908095
Local:           -6.959674
--------------------------
Free energy:   -195.173963
Extrapolated:  -194.219915

Showing only first 2 kpts
 Kpt  Band  Eigenvalues  Occupancy
  0   367      0.72472    0.89632
  0   368      0.74387    0.80280
  0   369      0.76059    0.72393
  0   370      0.80189    0.54584

  1   367      0.57013    1.58425
  1   368      0.61086    1.43434
  1   369      0.64295    1.29568
  1   370      0.65970    1.21750


Fermi level: 0.70391

No gap

Forces in eV/Ang:
  0 Pd    0.71452    0.06866    0.09574
  1 Pt   -0.61166   -0.16749    0.56550
  2 Ag   -0.09737   -0.08039   -0.55760
  3 Pd   -0.04891   -0.33284    0.20205
  4 Ag   -0.00684    0.03684   -0.57376
  5 Ag    0.14776    0.16677   -0.49380
  6 Ag    0.04341   -0.00628   -0.47846
  7 Pd    0.22861    0.34908    0.07156
  8 Pd   -0.13063    0.12869    0.19748
  9 Pd   -0.00522    0.09636   -0.02557
 10 Pd    0.00238   -0.03963   -0.13197
 11 Pt   -0.02395   -0.14140    0.13485
 12 Ir    0.67837    0.15517   -0.01718
 13 Pt   -0.65213   -0.18625    0.26394
 14 Ag    0.10753   -0.02014    0.09100
 15 Pt   -0.27874    0.03791    0.16478
 16 Pd   -0.06838    0.25413    0.15152
 17 Pd    0.13867   -0.00019    0.17883
 18 Ag   -0.01202    0.02267    0.02240
 19 Ag   -0.01337   -0.00559   -0.00021
 20 Pt   -0.06070   -0.03646   -0.00056
 21 Ru    0.02914   -0.01782   -0.02109
 22 Pd   -0.02745   -0.00602    0.02443
 23 Pt   -0.00442   -0.01143    0.01090
 24 Pt   -0.00934   -0.01129    0.01998
 25 Pt    0.01848    0.05091   -0.07094
 26 Ag   -0.03196   -0.03634   -0.00141
 27 Ag   -0.11963    0.02267    0.07219
 28 Ag   -0.02478   -0.02393   -0.00626
 29 Pt    0.22549    0.08978    0.16567
 30 Ag   -0.05396   -0.04645    0.03878
 31 Pd   -0.04541   -0.02429    0.01218
 32 Ru   -0.04236   -0.06302    0.09093
 33 Pd   -0.02829    0.00452   -0.00339
 34 Pt   -0.02063   -0.00592   -0.01177
 35 Pd   -0.01356   -0.00926   -0.01484
 36 Pt    0.09730   -0.10004   -0.07800
 37 Pt    0.05606   -0.03724    0.06746
 38 Ag   -0.00672   -0.06337   -0.01274
 39 Pt    0.20519    0.00286   -0.13312
 40 Ru   -0.11356   -0.00594   -0.00134
 41 Pt   -0.12435   -0.09317    1.46754
 42 Ir   -0.02489    0.01238    0.03871
 43 Pt    0.00485    0.07844   -0.10479
 44 Ag    0.09167    0.13938   -0.10478
 45 O     0.03084    0.04816   -1.10111
 46 H    -0.08725   -0.19458   -0.46195

System changes: positions 

Initializing position-dependent things.

Density initialized from wave functions
                                             
                                             
                                             
                                             
                                             
                                             
                            H                
                          O                  
                  Ir    Pt      Ag           
             Pt           Pt                 
                  PRu    Pt     Pd           
       Pt    APt    PAg    Ru                
                                             
        Ag     Ag    PPt    Pt     Ag        
                                             
                Ru     Pd     Pt             
           Ag    PAg    PPt    Pd            
                                             
            Ir     Pt    PAg    Pd           
       Pd     Pd     Pt                      
             Pd     Ag     Ag                
        Pd     Pt     Ag                     
                                             
                                             
                                             
                                             
                                             

Positions:
   0 Pd     0.000000    1.637674   10.000000    ( 0.0000,  0.0000,  0.0000)
   1 Pt     2.836535    1.637674   10.000000    ( 0.0000,  0.0000,  0.0000)
   2 Ag     5.673071    1.637674   10.000000    ( 0.0000,  0.0000,  0.0000)
   3 Pd     1.418268    4.094186   10.000000    ( 0.0000,  0.0000,  0.0000)
   4 Ag     4.254803    4.094186   10.000000    ( 0.0000,  0.0000,  0.0000)
   5 Ag     7.091338    4.094186   10.000000    ( 0.0000,  0.0000,  0.0000)
   6 Ag     2.836535    6.550698   10.000000    ( 0.0000,  0.0000,  0.0000)
   7 Pd     5.673071    6.550698   10.000000    ( 0.0000,  0.0000,  0.0000)
   8 Pd     8.509606    6.550698   10.000000    ( 0.0000,  0.0000,  0.0000)
   9 Pd     0.000000    0.000000   12.317643    ( 0.0000,  0.0000,  0.0000)
  10 Pd     2.836535    0.000000   12.317643    ( 0.0000,  0.0000,  0.0000)
  11 Pt     5.673071    0.000000   12.317643    ( 0.0000,  0.0000,  0.0000)
  12 Ir     1.418268    2.456512   12.317643    ( 0.0000,  0.0000,  0.0000)
  13 Pt     4.254803    2.456512   12.317643    ( 0.0000,  0.0000,  0.0000)
  14 Ag     7.091338    2.456512   12.317643    ( 0.0000,  0.0000,  0.0000)
  15 Pt     2.836535    4.913023   12.317643    ( 0.0000,  0.0000,  0.0000)
  16 Pd     5.673071    4.913023   12.317643    ( 0.0000,  0.0000,  0.0000)
  17 Pd     8.509606    4.913023   12.317643    ( 0.0000,  0.0000,  0.0000)
  18 Ag     1.387775    0.764574   14.614104    ( 0.0000,  0.0000,  0.0000)
  19 Ag     4.221038    0.790538   14.654515    ( 0.0000,  0.0000,  0.0000)
  20 Pt     7.065546    0.800657   14.664132    ( 0.0000,  0.0000,  0.0000)
  21 Ru     2.753041    3.305372   14.385132    ( 0.0000,  0.0000,  0.0000)
  22 Pd     5.603971    3.221312   14.642352    ( 0.0000,  0.0000,  0.0000)
  23 Pt     8.524638    3.258503   14.661307    ( 0.0000,  0.0000,  0.0000)
  24 Pt     4.173236    5.654948   14.616650    ( 0.0000,  0.0000,  0.0000)
  25 Pt     7.048520    5.614516   14.661402    ( 0.0000,  0.0000,  0.0000)
  26 Ag     9.876013    5.750604   14.694723    ( 0.0000,  0.0000,  0.0000)
  27 Ag     0.003810    1.617127   17.002843    ( 0.0000,  0.0000,  0.0000)
  28 Ag     2.797145    1.623594   16.880631    ( 0.0000,  0.0000,  0.0000)
  29 Pt     5.699281    1.652250   17.030852    ( 0.0000,  0.0000,  0.0000)
  30 Ag     1.337071    4.088714   17.010219    ( 0.0000,  0.0000,  0.0000)
  31 Pd     4.160215    4.034754   16.815189    ( 0.0000,  0.0000,  0.0000)
  32 Ru     6.945810    4.059552   16.877415    ( 0.0000,  0.0000,  0.0000)
  33 Pd     2.793386    6.569211   17.025835    ( 0.0000,  0.0000,  0.0000)
  34 Pt     5.658596    6.419313   16.910652    ( 0.0000,  0.0000,  0.0000)
  35 Pd     8.431055    6.504252   17.064629    ( 0.0000,  0.0000,  0.0000)
  36 Pt     0.083957   -0.054817   19.264287    ( 0.0000,  0.0000,  0.0000)
  37 Pt     2.811482    0.087135   19.255271    ( 0.0000,  0.0000,  0.0000)
  38 Ag     5.702398   -0.000996   19.480387    ( 0.0000,  0.0000,  0.0000)
  39 Pt     1.577647    2.466551   19.387575    ( 0.0000,  0.0000,  0.0000)
  40 Ru     4.221518    2.607534   19.096979    ( 0.0000,  0.0000,  0.0000)
  41 Pt     7.090484    2.483357   19.411116    ( 0.0000,  0.0000,  0.0000)
  42 Ir     3.040992    4.825214   19.145868    ( 0.0000,  0.0000,  0.0000)
  43 Pt     5.709516    4.877237   19.155349    ( 0.0000,  0.0000,  0.0000)
  44 Ag     8.578281    4.912576   19.507337    ( 0.0000,  0.0000,  0.0000)
  45 O      7.115792    2.506004   21.380339    ( 0.0000,  0.0000,  0.0000)
  46 H      7.739330    3.113985   21.858631    ( 0.0000,  0.0000,  0.0000)

Unit cell:
           periodic     x           y           z      points  spacing
  1. axis:    yes    8.509606    0.000000    0.000000    40     0.1842
  2. axis:    yes    4.254803    7.369535    0.000000    40     0.1842
  3. axis:    no     0.000000    0.000000   29.270571   140     0.2091

  Lengths:   8.509606   8.509606  29.270571
  Angles:   90.000000  90.000000  60.000000

Effective grid spacing dv^(1/3) = 0.2016

     iter     time        total  log10-change:
                         energy  eigst   dens
iter:   1 22:58:48  -198.657141  -2.89
iter:   2 22:59:56  -229.665151  -2.65  -1.95
iter:   3 23:01:04  -214.968515  -2.49  -1.53
iter:   4 23:02:11  -196.344685  -3.31  -1.62
iter:   5 23:03:18  -194.722896  -3.99  -2.18
iter:   6 23:04:25  -194.582327  -4.80  -2.60
iter:   7 23:05:32  -194.541995c -4.90  -2.70
iter:   8 23:06:41  -194.489332c -4.95  -2.79
iter:   9 23:07:49  -194.467990c -4.73  -2.92
iter:  10 23:08:56  -194.450330c -5.32  -2.89
iter:  11 23:10:03  -194.444741c -5.69  -3.17
iter:  12 23:11:10  -194.440794c -5.74  -3.14
iter:  13 23:12:18  -194.448869c -5.99  -3.39
iter:  14 23:13:26  -194.438109c -6.52  -3.33
iter:  15 23:14:34  -194.443625c -6.17  -3.50
iter:  16 23:15:42  -194.443712c -6.60  -3.55
iter:  17 23:16:50  -194.442273c -6.75  -3.55
iter:  18 23:17:57  -194.440595c -7.02  -3.74
iter:  19 23:19:05  -194.442634c -7.13  -3.78
iter:  20 23:20:13  -194.438998c -6.95  -3.77
iter:  21 23:21:21  -194.440188c -7.33  -3.68
iter:  22 23:22:29  -194.439675c -7.53c -4.05c

Converged after 22 iterations.

Dipole moment: (-6.658617, 8.580852, -0.251847) |e|*Ang

Energy contributions relative to reference atoms: (reference = -12373371.003080)

Kinetic:       -227.738415
Potential:     +102.137714
External:        +0.000000
XC:             -60.916682
Entropy (-ST):   -1.892812
Local:           -6.975885
--------------------------
Free energy:   -195.386081
Extrapolated:  -194.439675

Showing only first 2 kpts
 Kpt  Band  Eigenvalues  Occupancy
  0   367      0.82039    0.89301
  0   368      0.83461    0.82339
  0   369      0.85131    0.74382
  0   370      0.88934    0.57635

  1   367      0.66577    1.58214
  1   368      0.69615    1.47291
  1   369      0.73919    1.29003
  1   370      0.75350    1.22322


Fermi level: 0.79891

No gap

Forces in eV/Ang:
  0 Pd    0.72496    0.06855    0.08196
  1 Pt   -0.62046   -0.18135    0.55236
  2 Ag   -0.10052   -0.08290   -0.56368
  3 Pd   -0.05592   -0.33041    0.19181
  4 Ag   -0.00302    0.04241   -0.58074
  5 Ag    0.15031    0.17160   -0.50197
  6 Ag    0.04321   -0.00782   -0.48205
  7 Pd    0.22857    0.35111    0.06338
  8 Pd   -0.12936    0.12700    0.18732
  9 Pd   -0.00285    0.09305   -0.01894
 10 Pd   -0.00107   -0.04872   -0.11941
 11 Pt   -0.03166   -0.14816    0.12906
 12 Ir    0.67678    0.14929   -0.02180
 13 Pt   -0.63737   -0.19316    0.25454
 14 Ag    0.10494   -0.01885    0.10116
 15 Pt   -0.27480    0.05327    0.15566
 16 Pd   -0.07271    0.25317    0.14342
 17 Pd    0.13781   -0.00163    0.16332
 18 Ag   -0.04454    0.01535    0.01051
 19 Ag    0.01204   -0.00004    0.03033
 20 Pt   -0.01949   -0.01400    0.00152
 21 Ru   -0.00023   -0.01513    0.00698
 22 Pd    0.00505    0.00451    0.03251
 23 Pt   -0.01714   -0.02134    0.00205
 24 Pt   -0.00589    0.00097    0.01502
 25 Pt   -0.02453   -0.03302    0.04164
 26 Ag   -0.01336   -0.03226    0.01200
 27 Ag   -0.11411    0.05540    0.23028
 28 Ag    0.02954   -0.06146   -0.01546
 29 Pt    0.08580    0.12077    0.27085
 30 Ag    0.00033    0.00792   -0.02212
 31 Pd   -0.07019   -0.00244   -0.01325
 32 Ru   -0.07598    0.10375   -0.08389
 33 Pd   -0.03975   -0.04571   -0.01226
 34 Pt    0.02247   -0.00316   -0.10201
 35 Pd   -0.01508    0.03177   -0.02585
 36 Pt    0.03797   -0.07337    0.05209
 37 Pt    0.06940   -0.02492    0.02057
 38 Ag    0.00070   -0.06942   -0.00901
 39 Pt    0.07479    0.03015    0.02018
 40 Ru    0.00606   -0.06431    0.01560
 41 Pt   -0.04476   -0.11933   -0.76809
 42 Ir   -0.01050    0.04129    0.00042
 43 Pt    0.05128    0.00095    0.03419
 44 Ag    0.04395    0.02006   -0.03339
 45 O    -0.16655   -0.11523    1.18494
 46 H    -0.00087   -0.09798   -0.52514

System changes: positions 

Initializing position-dependent things.

Density initialized from wave functions
                                             
                                             
                                             
                                             
                                             
                                             
                            H                
                          O                  
                  Ir    Pt      Ag           
             Pt           Pt                 
                  PRu    Pt     Pd           
       Pt    APt    PAg    Ru                
                                             
        Ag     Ag    PPt    Pt     Ag        
                                             
                Ru     Pd     Pt             
           Ag    PAg    PPt    Pd            
                                             
            Ir     Pt    PAg    Pd           
       Pd     Pd     Pt                      
             Pd     Ag     Ag                
        Pd     Pt     Ag                     
                                             
                                             
                                             
                                             
                                             

Positions:
   0 Pd     0.000000    1.637674   10.000000    ( 0.0000,  0.0000,  0.0000)
   1 Pt     2.836535    1.637674   10.000000    ( 0.0000,  0.0000,  0.0000)
   2 Ag     5.673071    1.637674   10.000000    ( 0.0000,  0.0000,  0.0000)
   3 Pd     1.418268    4.094186   10.000000    ( 0.0000,  0.0000,  0.0000)
   4 Ag     4.254803    4.094186   10.000000    ( 0.0000,  0.0000,  0.0000)
   5 Ag     7.091338    4.094186   10.000000    ( 0.0000,  0.0000,  0.0000)
   6 Ag     2.836535    6.550698   10.000000    ( 0.0000,  0.0000,  0.0000)
   7 Pd     5.673071    6.550698   10.000000    ( 0.0000,  0.0000,  0.0000)
   8 Pd     8.509606    6.550698   10.000000    ( 0.0000,  0.0000,  0.0000)
   9 Pd     0.000000    0.000000   12.317643    ( 0.0000,  0.0000,  0.0000)
  10 Pd     2.836535    0.000000   12.317643    ( 0.0000,  0.0000,  0.0000)
  11 Pt     5.673071    0.000000   12.317643    ( 0.0000,  0.0000,  0.0000)
  12 Ir     1.418268    2.456512   12.317643    ( 0.0000,  0.0000,  0.0000)
  13 Pt     4.254803    2.456512   12.317643    ( 0.0000,  0.0000,  0.0000)
  14 Ag     7.091338    2.456512   12.317643    ( 0.0000,  0.0000,  0.0000)
  15 Pt     2.836535    4.913023   12.317643    ( 0.0000,  0.0000,  0.0000)
  16 Pd     5.673071    4.913023   12.317643    ( 0.0000,  0.0000,  0.0000)
  17 Pd     8.509606    4.913023   12.317643    ( 0.0000,  0.0000,  0.0000)
  18 Ag     1.387683    0.764009   14.613532    ( 0.0000,  0.0000,  0.0000)
  19 Ag     4.221571    0.790708   14.654848    ( 0.0000,  0.0000,  0.0000)
  20 Pt     7.067265    0.801686   14.664193    ( 0.0000,  0.0000,  0.0000)
  21 Ru     2.752142    3.305749   14.385890    ( 0.0000,  0.0000,  0.0000)
  22 Pd     5.604900    3.221551   14.641916    ( 0.0000,  0.0000,  0.0000)
  23 Pt     8.524570    3.258615   14.661078    ( 0.0000,  0.0000,  0.0000)
  24 Pt     4.173496    5.655318   14.616171    ( 0.0000,  0.0000,  0.0000)
  25 Pt     7.047694    5.612587   14.664018    ( 0.0000,  0.0000,  0.0000)
  26 Ag     9.876844    5.751424   14.694915    ( 0.0000,  0.0000,  0.0000)
  27 Ag     0.006111    1.617188   17.003224    ( 0.0000,  0.0000,  0.0000)
  28 Ag     2.798194    1.623709   16.880570    ( 0.0000,  0.0000,  0.0000)
  29 Pt     5.693451    1.650836   17.028761    ( 0.0000,  0.0000,  0.0000)
  30 Ag     1.338584    4.090195   17.008814    ( 0.0000,  0.0000,  0.0000)
  31 Pd     4.160974    4.035412   16.814572    ( 0.0000,  0.0000,  0.0000)
  32 Ru     6.946480    4.062287   16.874013    ( 0.0000,  0.0000,  0.0000)
  33 Pd     2.793808    6.568722   17.025841    ( 0.0000,  0.0000,  0.0000)
  34 Pt     5.659486    6.419509   16.909882    ( 0.0000,  0.0000,  0.0000)
  35 Pd     8.431381    6.504816   17.064828    ( 0.0000,  0.0000,  0.0000)
  36 Pt     0.081207   -0.052383   19.267056    ( 0.0000,  0.0000,  0.0000)
  37 Pt     2.810547    0.087985   19.253479    ( 0.0000,  0.0000,  0.0000)
  38 Ag     5.702597    0.000229   19.480557    ( 0.0000,  0.0000,  0.0000)
  39 Pt     1.571958    2.466761   19.391582    ( 0.0000,  0.0000,  0.0000)
  40 Ru     4.225291    2.607002   19.096996    ( 0.0000,  0.0000,  0.0000)
  41 Pt     7.093838    2.484887   19.357778    ( 0.0000,  0.0000,  0.0000)
  42 Ir     3.041540    4.825375   19.144730    ( 0.0000,  0.0000,  0.0000)
  43 Pt     5.709942    4.874735   19.158671    ( 0.0000,  0.0000,  0.0000)
  44 Ag     8.575990    4.908592   19.509900    ( 0.0000,  0.0000,  0.0000)
  45 O      7.112325    2.502476   21.424974    ( 0.0000,  0.0000,  0.0000)
  46 H      7.742931    3.119889   21.868021    ( 0.0000,  0.0000,  0.0000)

Unit cell:
           periodic     x           y           z      points  spacing
  1. axis:    yes    8.509606    0.000000    0.000000    40     0.1842
  2. axis:    yes    4.254803    7.369535    0.000000    40     0.1842
  3. axis:    no     0.000000    0.000000   29.270571   140     0.2091

  Lengths:   8.509606   8.509606  29.270571
  Angles:   90.000000  90.000000  60.000000

Effective grid spacing dv^(1/3) = 0.2016

     iter     time        total  log10-change:
                         energy  eigst   dens
iter:   1 23:24:01  -194.931002  -3.71
iter:   2 23:25:11  -200.357676  -3.61  -2.44
iter:   3 23:26:22  -194.728316  -3.77  -1.84
iter:   4 23:27:33  -194.583971  -4.83  -2.55
iter:   5 23:28:44  -194.476989c -4.95  -2.69
iter:   6 23:29:52  -194.461049c -5.82  -2.90
iter:   7 23:31:00  -194.458645c -6.07  -3.15
iter:   8 23:32:08  -194.453601c -6.34  -3.36
iter:   9 23:33:16  -194.456116c -5.97  -3.31
iter:  10 23:34:25  -194.458970c -5.90  -3.37
iter:  11 23:35:33  -194.450729c -6.26  -3.35
iter:  12 23:36:42  -194.449806c -7.16  -3.77
iter:  13 23:37:50  -194.449364c -7.18  -3.96
iter:  14 23:38:59  -194.450904c -7.27  -4.09c
iter:  15 23:40:07  -194.448314c -7.41c -4.04c

Converged after 15 iterations.

Dipole moment: (-6.382244, 8.437964, -0.327488) |e|*Ang

Energy contributions relative to reference atoms: (reference = -12373371.003080)

Kinetic:       -230.419002
Potential:     +104.514952
External:        +0.000000
XC:             -60.559560
Entropy (-ST):   -1.899395
Local:           -7.035006
--------------------------
Free energy:   -195.398011
Extrapolated:  -194.448314

Showing only first 2 kpts
 Kpt  Band  Eigenvalues  Occupancy
  0   367      0.78338    0.88936
  0   368      0.79764    0.81960
  0   369      0.81532    0.73563
  0   370      0.85464    0.56391

  1   367      0.62663    1.58673
  1   368      0.66156    1.46054
  1   369      0.70135    1.29047
  1   370      0.71670    1.21875


Fermi level: 0.76116

No gap

Forces in eV/Ang:
  0 Pd    0.71282    0.06848    0.08259
  1 Pt   -0.61332   -0.16984    0.54870
  2 Ag   -0.09795   -0.07991   -0.56560
  3 Pd   -0.05196   -0.32835    0.18468
  4 Ag   -0.00261    0.03998   -0.58290
  5 Ag    0.14504    0.16685   -0.50241
  6 Ag    0.04398   -0.00669   -0.48641
  7 Pd    0.22389    0.34382    0.05724
  8 Pd   -0.12737    0.12704    0.18203
  9 Pd   -0.00554    0.09586   -0.02899
 10 Pd    0.00024   -0.04460   -0.13056
 11 Pt   -0.02772   -0.14318    0.12619
 12 Ir    0.67785    0.15336   -0.02435
 13 Pt   -0.64350   -0.18853    0.25485
 14 Ag    0.10621   -0.02020    0.09182
 15 Pt   -0.27709    0.04231    0.15600
 16 Pd   -0.07179    0.25137    0.14031
 17 Pd    0.13932   -0.00400    0.16412
 18 Ag   -0.03170    0.01844    0.00107
 19 Ag    0.00200   -0.00196    0.00209
 20 Pt   -0.02785   -0.01619   -0.00202
 21 Ru    0.00880   -0.01731   -0.02010
 22 Pd   -0.00935   -0.00122    0.01754
 23 Pt   -0.01221   -0.02282   -0.00485
 24 Pt   -0.00646   -0.00490    0.00157
 25 Pt   -0.00709    0.00369   -0.02318
 26 Ag   -0.01910   -0.03238   -0.00707
 27 Ag   -0.12081    0.05233    0.18164
 28 Ag   -0.00008   -0.04276   -0.01283
 29 Pt    0.15366    0.11605    0.23900
 30 Ag   -0.03176   -0.01496    0.00280
 31 Pd   -0.05069   -0.00982   -0.00464
 32 Ru   -0.06224    0.03920   -0.00268
 33 Pd   -0.03048   -0.01309   -0.00886
 34 Pt   -0.00777   -0.00389   -0.06127
 35 Pd   -0.00639    0.00420   -0.01324
 36 Pt    0.03870   -0.06600   -0.00161
 37 Pt    0.06773   -0.02904    0.00943
 38 Ag    0.00763   -0.05423    0.00015
 39 Pt    0.10207    0.02018   -0.04134
 40 Ru   -0.01680   -0.03545    0.02060
 41 Pt   -0.05174   -0.09589    0.57178
 42 Ir   -0.01409    0.02665   -0.02045
 43 Pt    0.04112    0.00350   -0.01658
 44 Ag    0.04569    0.04050   -0.05059
 45 O    -0.22359   -0.17402   -0.30402
 46 H     0.15440    0.05281   -0.35732

System changes: positions 

Initializing position-dependent things.

Density initialized from wave functions
                                             
                                             
                                             
                                             
                                             
                                             
                            H                
                          O                  
                  Ir    Pt      Ag           
             Pt           Pt    Pd           
                  PRu    Pt                  
       Pt    APt    PAg    Ru                
                                             
        Ag     Ag    PPt    Pt     Ag        
                                             
                Ru     Pd     Pt             
           Ag    PAg    PPt    Pd            
                                             
            Ir     Pt    PAg    Pd           
       Pd     Pd     Pt                      
             Pd     Ag     Ag                
        Pd     Pt     Ag                     
                                             
                                             
                                             
                                             
                                             

Positions:
   0 Pd     0.000000    1.637674   10.000000    ( 0.0000,  0.0000,  0.0000)
   1 Pt     2.836535    1.637674   10.000000    ( 0.0000,  0.0000,  0.0000)
   2 Ag     5.673071    1.637674   10.000000    ( 0.0000,  0.0000,  0.0000)
   3 Pd     1.418268    4.094186   10.000000    ( 0.0000,  0.0000,  0.0000)
   4 Ag     4.254803    4.094186   10.000000    ( 0.0000,  0.0000,  0.0000)
   5 Ag     7.091338    4.094186   10.000000    ( 0.0000,  0.0000,  0.0000)
   6 Ag     2.836535    6.550698   10.000000    ( 0.0000,  0.0000,  0.0000)
   7 Pd     5.673071    6.550698   10.000000    ( 0.0000,  0.0000,  0.0000)
   8 Pd     8.509606    6.550698   10.000000    ( 0.0000,  0.0000,  0.0000)
   9 Pd     0.000000    0.000000   12.317643    ( 0.0000,  0.0000,  0.0000)
  10 Pd     2.836535    0.000000   12.317643    ( 0.0000,  0.0000,  0.0000)
  11 Pt     5.673071    0.000000   12.317643    ( 0.0000,  0.0000,  0.0000)
  12 Ir     1.418268    2.456512   12.317643    ( 0.0000,  0.0000,  0.0000)
  13 Pt     4.254803    2.456512   12.317643    ( 0.0000,  0.0000,  0.0000)
  14 Ag     7.091338    2.456512   12.317643    ( 0.0000,  0.0000,  0.0000)
  15 Pt     2.836535    4.913023   12.317643    ( 0.0000,  0.0000,  0.0000)
  16 Pd     5.673071    4.913023   12.317643    ( 0.0000,  0.0000,  0.0000)
  17 Pd     8.509606    4.913023   12.317643    ( 0.0000,  0.0000,  0.0000)
  18 Ag     1.387115    0.764541   14.613865    ( 0.0000,  0.0000,  0.0000)
  19 Ag     4.221443    0.790616   14.654934    ( 0.0000,  0.0000,  0.0000)
  20 Pt     7.066105    0.800974   14.664151    ( 0.0000,  0.0000,  0.0000)
  21 Ru     2.752614    3.305321   14.385415    ( 0.0000,  0.0000,  0.0000)
  22 Pd     5.604436    3.221466   14.642505    ( 0.0000,  0.0000,  0.0000)
  23 Pt     8.524373    3.258210   14.661125    ( 0.0000,  0.0000,  0.0000)
  24 Pt     4.173272    5.655115   14.616508    ( 0.0000,  0.0000,  0.0000)
  25 Pt     7.047816    5.613234   14.662959    ( 0.0000,  0.0000,  0.0000)
  26 Ag     9.876215    5.750528   14.694845    ( 0.0000,  0.0000,  0.0000)
  27 Ag     0.003238    1.617985   17.006305    ( 0.0000,  0.0000,  0.0000)
  28 Ag     2.797951    1.622824   16.880395    ( 0.0000,  0.0000,  0.0000)
  29 Pt     5.697960    1.653352   17.033742    ( 0.0000,  0.0000,  0.0000)
  30 Ag     1.337675    4.089476   17.009292    ( 0.0000,  0.0000,  0.0000)
  31 Pd     4.159652    4.035035   16.814733    ( 0.0000,  0.0000,  0.0000)
  32 Ru     6.945033    4.062267   16.874805    ( 0.0000,  0.0000,  0.0000)
  33 Pd     2.793071    6.568455   17.025662    ( 0.0000,  0.0000,  0.0000)
  34 Pt     5.659180    6.419352   16.908950    ( 0.0000,  0.0000,  0.0000)
  35 Pd     8.431055    6.504849   17.064432    ( 0.0000,  0.0000,  0.0000)
  36 Pt     0.083076   -0.054607   19.266249    ( 0.0000,  0.0000,  0.0000)
  37 Pt     2.812052    0.087180   19.254476    ( 0.0000,  0.0000,  0.0000)
  38 Ag     5.702589   -0.001297   19.480455    ( 0.0000,  0.0000,  0.0000)
  39 Pt     1.575955    2.467073   19.389677    ( 0.0000,  0.0000,  0.0000)
  40 Ru     4.223472    2.606464   19.097340    ( 0.0000,  0.0000,  0.0000)
  41 Pt     7.091581    2.482515   19.380909    ( 0.0000,  0.0000,  0.0000)
  42 Ir     3.041126    4.825812   19.145030    ( 0.0000,  0.0000,  0.0000)
  43 Pt     5.710487    4.875895   19.157381    ( 0.0000,  0.0000,  0.0000)
  44 Ag     8.577704    4.910822   19.508164    ( 0.0000,  0.0000,  0.0000)
  45 O      7.110822    2.501836   21.411554    ( 0.0000,  0.0000,  0.0000)
  46 H      7.742510    3.116836   21.856726    ( 0.0000,  0.0000,  0.0000)

Unit cell:
           periodic     x           y           z      points  spacing
  1. axis:    yes    8.509606    0.000000    0.000000    40     0.1842
  2. axis:    yes    4.254803    7.369535    0.000000    40     0.1842
  3. axis:    no     0.000000    0.000000   29.270571   140     0.2091

  Lengths:   8.509606   8.509606  29.270571
  Angles:   90.000000  90.000000  60.000000

Effective grid spacing dv^(1/3) = 0.2016

     iter     time        total  log10-change:
                         energy  eigst   dens
iter:   1 23:41:39  -202.868286  -3.60
iter:   2 23:42:48  -297.694779  -2.20  -1.79
iter:   3 23:43:57  -200.572097  -2.46  -1.29
iter:   4 23:45:06  -195.081213  -3.50  -1.92
iter:   5 23:46:15  -194.552694  -4.22  -2.41
iter:   6 23:47:24  -194.503590  -4.97  -2.84
iter:   7 23:48:32  -194.484488c -5.22  -3.04
iter:   8 23:49:40  -194.507320c -5.35  -3.24
iter:   9 23:50:49  -194.472325c -5.81  -2.83
iter:  10 23:51:57  -194.469202c -5.86  -3.35
iter:  11 23:53:05  -194.468071c -6.26  -3.60
iter:  12 23:54:14  -194.466744c -6.58  -3.55
iter:  13 23:55:23  -194.467490c -6.77  -3.68
iter:  14 23:56:32  -194.468646c -6.67  -3.89
iter:  15 23:57:42  -194.466242c -7.30  -4.05c
iter:  16 23:58:50  -194.468325c -7.13  -3.85
iter:  17 23:59:58  -194.468040c -7.79c -4.13c

Converged after 17 iterations.

Dipole moment: (-6.578930, 8.609983, -0.308682) |e|*Ang

Energy contributions relative to reference atoms: (reference = -12373371.003080)

Kinetic:       -227.149903
Potential:     +101.398519
External:        +0.000000
XC:             -60.797995
Entropy (-ST):   -1.892824
Local:           -6.972249
--------------------------
Free energy:   -195.414452
Extrapolated:  -194.468040

Showing only first 2 kpts
 Kpt  Band  Eigenvalues  Occupancy
  0   367      0.79409    0.89652
  0   368      0.80995    0.81883
  0   369      0.82725    0.73666
  0   370      0.86548    0.56924

  1   367      0.63958    1.58410
  1   368      0.67206    1.46704
  1   369      0.71335    1.29117
  1   370      0.72766    1.22438


Fermi level: 0.77332

No gap

Forces in eV/Ang:
  0 Pd    0.69842    0.06950    0.08980
  1 Pt   -0.59426   -0.15722    0.55947
  2 Ag   -0.09700   -0.07904   -0.56427
  3 Pd   -0.04360   -0.32777    0.19700
  4 Ag   -0.00528    0.03710   -0.58285
  5 Ag    0.14188    0.16242   -0.49932
  6 Ag    0.04372   -0.00602   -0.48552
  7 Pd    0.21718    0.33352    0.06674
  8 Pd   -0.12117    0.12920    0.19046
  9 Pd   -0.00602    0.09886   -0.01850
 10 Pd   -0.00289   -0.03941   -0.11597
 11 Pt   -0.02491   -0.14494    0.13205
 12 Ir    0.67363    0.15410   -0.00428
 13 Pt   -0.64338   -0.18499    0.26075
 14 Ag    0.10807   -0.01993    0.09769
 15 Pt   -0.27585    0.04129    0.16790
 16 Pd   -0.07834    0.24588    0.14790
 17 Pd    0.14321   -0.01103    0.17139
 18 Ag   -0.03495    0.02100    0.00540
 19 Ag    0.00699    0.00691    0.02284
 20 Pt   -0.02170   -0.01008    0.01227
 21 Ru    0.00431   -0.01597   -0.00575
 22 Pd   -0.00835    0.00005    0.03235
 23 Pt   -0.01032   -0.02426    0.00900
 24 Pt   -0.00818   -0.00766    0.00585
 25 Pt   -0.01798   -0.01590    0.01522
 26 Ag   -0.01188   -0.03585    0.00011
 27 Ag   -0.11624    0.06754    0.20168
 28 Ag    0.01821   -0.04520   -0.01673
 29 Pt    0.10737    0.11509    0.23059
 30 Ag   -0.03664   -0.01054   -0.00382
 31 Pd   -0.03772   -0.01671   -0.00124
 32 Ru   -0.04550    0.04230   -0.00309
 33 Pd   -0.03230   -0.01136   -0.00959
 34 Pt    0.00749   -0.00713   -0.07790
 35 Pd   -0.01039    0.01478   -0.02214
 36 Pt    0.02857   -0.05050    0.01764
 37 Pt    0.05970   -0.02520    0.03057
 38 Ag    0.01001   -0.05521   -0.02010
 39 Pt    0.06286    0.01949   -0.03388
 40 Ru    0.03311   -0.03727    0.00579
 41 Pt   -0.07362   -0.11537   -0.02831
 42 Ir   -0.01233    0.03478    0.02037
 43 Pt    0.03974   -0.02187   -0.02250
 44 Ag    0.04569    0.02488   -0.08368
 45 O    -0.23012   -0.19442    0.02007
 46 H     0.14299    0.03505   -0.37675

System changes: positions 

Initializing position-dependent things.

Density initialized from wave functions
                                             
                                             
                                             
                                             
                                             
                                             
                            H                
                          O                  
                  Ir    Pt      Ag           
             Pt   Pd      Pt    Pd           
                   Ru    Pt                  
       Pt    APt    PAg    Ru                
                                             
        Ag     Ag    PPt    Pt     Ag        
                                             
                Ru     Pd     Pt             
           Ag    PAg    PPt    Pd            
                                             
            Ir     Pt    PAg    Pd           
       Pd     Pd     Pt                      
             Pd     Ag     Ag                
        Pd     Pt     Ag                     
                                             
                                             
                                             
                                             
                                             

Positions:
   0 Pd     0.000000    1.637674   10.000000    ( 0.0000,  0.0000,  0.0000)
   1 Pt     2.836535    1.637674   10.000000    ( 0.0000,  0.0000,  0.0000)
   2 Ag     5.673071    1.637674   10.000000    ( 0.0000,  0.0000,  0.0000)
   3 Pd     1.418268    4.094186   10.000000    ( 0.0000,  0.0000,  0.0000)
   4 Ag     4.254803    4.094186   10.000000    ( 0.0000,  0.0000,  0.0000)
   5 Ag     7.091338    4.094186   10.000000    ( 0.0000,  0.0000,  0.0000)
   6 Ag     2.836535    6.550698   10.000000    ( 0.0000,  0.0000,  0.0000)
   7 Pd     5.673071    6.550698   10.000000    ( 0.0000,  0.0000,  0.0000)
   8 Pd     8.509606    6.550698   10.000000    ( 0.0000,  0.0000,  0.0000)
   9 Pd     0.000000    0.000000   12.317643    ( 0.0000,  0.0000,  0.0000)
  10 Pd     2.836535    0.000000   12.317643    ( 0.0000,  0.0000,  0.0000)
  11 Pt     5.673071    0.000000   12.317643    ( 0.0000,  0.0000,  0.0000)
  12 Ir     1.418268    2.456512   12.317643    ( 0.0000,  0.0000,  0.0000)
  13 Pt     4.254803    2.456512   12.317643    ( 0.0000,  0.0000,  0.0000)
  14 Ag     7.091338    2.456512   12.317643    ( 0.0000,  0.0000,  0.0000)
  15 Pt     2.836535    4.913023   12.317643    ( 0.0000,  0.0000,  0.0000)
  16 Pd     5.673071    4.913023   12.317643    ( 0.0000,  0.0000,  0.0000)
  17 Pd     8.509606    4.913023   12.317643    ( 0.0000,  0.0000,  0.0000)
  18 Ag     1.386091    0.765282   14.614178    ( 0.0000,  0.0000,  0.0000)
  19 Ag     4.221517    0.790710   14.655470    ( 0.0000,  0.0000,  0.0000)
  20 Pt     7.064973    0.800332   14.664371    ( 0.0000,  0.0000,  0.0000)
  21 Ru     2.752967    3.304770   14.385038    ( 0.0000,  0.0000,  0.0000)
  22 Pd     5.603988    3.221417   14.643526    ( 0.0000,  0.0000,  0.0000)
  23 Pt     8.524073    3.257512   14.661303    ( 0.0000,  0.0000,  0.0000)
  24 Pt     4.172958    5.654837   14.616851    ( 0.0000,  0.0000,  0.0000)
  25 Pt     7.047519    5.613276   14.662716    ( 0.0000,  0.0000,  0.0000)
  26 Ag     9.875632    5.749276   14.694815    ( 0.0000,  0.0000,  0.0000)
  27 Ag    -0.000588    1.619675   17.011955    ( 0.0000,  0.0000,  0.0000)
  28 Ag     2.798213    1.621401   16.880016    ( 0.0000,  0.0000,  0.0000)
  29 Pt     5.702480    1.657014   17.041042    ( 0.0000,  0.0000,  0.0000)
  30 Ag     1.336527    4.088880   17.009470    ( 0.0000,  0.0000,  0.0000)
  31 Pd     4.158090    4.034519   16.814869    ( 0.0000,  0.0000,  0.0000)
  32 Ru     6.943218    4.063276   16.875014    ( 0.0000,  0.0000,  0.0000)
  33 Pd     2.792021    6.567985   17.025349    ( 0.0000,  0.0000,  0.0000)
  34 Pt     5.659172    6.419088   16.906888    ( 0.0000,  0.0000,  0.0000)
  35 Pd     8.430608    6.505217   17.063741    ( 0.0000,  0.0000,  0.0000)
  36 Pt     0.084822   -0.056963   19.266268    ( 0.0000,  0.0000,  0.0000)
  37 Pt     2.814045    0.086243   19.255665    ( 0.0000,  0.0000,  0.0000)
  38 Ag     5.702783   -0.003282   19.480045    ( 0.0000,  0.0000,  0.0000)
  39 Pt     1.579575    2.467648   19.388109    ( 0.0000,  0.0000,  0.0000)
  40 Ru     4.222977    2.605435   19.097739    ( 0.0000,  0.0000,  0.0000)
  41 Pt     7.088783    2.478890   19.392568    ( 0.0000,  0.0000,  0.0000)
  42 Ir     3.040711    4.826695   19.145656    ( 0.0000,  0.0000,  0.0000)
  43 Pt     5.711552    4.876190   19.156346    ( 0.0000,  0.0000,  0.0000)
  44 Ag     8.579567    4.912547   19.505659    ( 0.0000,  0.0000,  0.0000)
  45 O      7.106017    2.498247   21.406262    ( 0.0000,  0.0000,  0.0000)
  46 H      7.744316    3.114977   21.842197    ( 0.0000,  0.0000,  0.0000)

Unit cell:
           periodic     x           y           z      points  spacing
  1. axis:    yes    8.509606    0.000000    0.000000    40     0.1842
  2. axis:    yes    4.254803    7.369535    0.000000    40     0.1842
  3. axis:    no     0.000000    0.000000   29.270571   140     0.2091

  Lengths:   8.509606   8.509606  29.270571
  Angles:   90.000000  90.000000  60.000000

Effective grid spacing dv^(1/3) = 0.2016

     iter     time        total  log10-change:
                         energy  eigst   dens
iter:   1 00:01:31  -194.616363  -4.49
iter:   2 00:02:40  -195.884934  -4.12  -2.67
iter:   3 00:03:48  -194.962403  -4.22  -2.16
iter:   4 00:04:57  -194.491797  -5.00  -2.43
iter:   5 00:06:06  -194.479940  -6.26  -3.39
iter:   6 00:07:14  -194.482721c -6.86  -3.62
iter:   7 00:08:22  -194.483453c -6.80  -3.78
iter:   8 00:09:31  -194.480888c -6.84  -3.80
iter:   9 00:10:40  -194.480298c -7.07  -4.07c
iter:  10 00:11:49  -194.482353c -7.45c -3.88
iter:  11 00:12:58  -194.480871c -7.36  -3.86
iter:  12 00:14:07  -194.480664c -8.02c -4.38c

Converged after 12 iterations.

Dipole moment: (-6.762156, 8.824545, -0.300788) |e|*Ang

Energy contributions relative to reference atoms: (reference = -12373371.003080)

Kinetic:       -229.122608
Potential:     +103.357386
External:        +0.000000
XC:             -60.780939
Entropy (-ST):   -1.892222
Local:           -6.988392
--------------------------
Free energy:   -195.426775
Extrapolated:  -194.480664

Showing only first 2 kpts
 Kpt  Band  Eigenvalues  Occupancy
  0   367      0.79903    0.89665
  0   368      0.81439    0.82145
  0   369      0.83214    0.73706
  0   370      0.86912    0.57468

  1   367      0.64436    1.58475
  1   368      0.67613    1.47059
  1   369      0.71828    1.29134
  1   370      0.73266    1.22426


Fermi level: 0.77829

No gap

Forces in eV/Ang:
  0 Pd    0.71117    0.06756    0.09275
  1 Pt   -0.60821   -0.16859    0.56626
  2 Ag   -0.09744   -0.08039   -0.55961
  3 Pd   -0.04789   -0.33107    0.20145
  4 Ag   -0.00565    0.03772   -0.57546
  5 Ag    0.14609    0.16521   -0.49541
  6 Ag    0.04381   -0.00542   -0.48028
  7 Pd    0.22385    0.34615    0.07372
  8 Pd   -0.12625    0.12949    0.19500
  9 Pd   -0.00842    0.09530   -0.01372
 10 Pd   -0.00056   -0.04174   -0.11078
 11 Pt   -0.02810   -0.14501    0.13684
 12 Ir    0.67471    0.15450   -0.01504
 13 Pt   -0.63837   -0.18976    0.26278
 14 Ag    0.10471   -0.01986    0.10475
 15 Pt   -0.27466    0.04575    0.16480
 16 Pd   -0.07690    0.24650    0.15017
 17 Pd    0.14038   -0.00906    0.17144
 18 Ag   -0.03598    0.01982    0.01674
 19 Ag    0.01624    0.00650    0.03393
 20 Pt   -0.02261   -0.00101    0.03044
 21 Ru    0.00387   -0.01710    0.00371
 22 Pd   -0.00846   -0.01634    0.02287
 23 Pt   -0.01615   -0.03075    0.01445
 24 Pt   -0.01210   -0.00169    0.00105
 25 Pt   -0.00976   -0.01334    0.00593
 26 Ag   -0.01417   -0.02327    0.00260
 27 Ag   -0.07524    0.05946    0.18177
 28 Ag    0.00736   -0.04346   -0.01979
 29 Pt    0.06445    0.08705    0.16917
 30 Ag   -0.03468   -0.01670   -0.00892
 31 Pd   -0.04481   -0.01514   -0.00207
 32 Ru   -0.02535    0.04299   -0.00496
 33 Pd   -0.02181   -0.00311   -0.01744
 34 Pt   -0.00701    0.01481   -0.05663
 35 Pd   -0.00429    0.02096   -0.03290
 36 Pt    0.04328   -0.04019    0.01854
 37 Pt    0.02936   -0.02128    0.02634
 38 Ag    0.01581   -0.05763   -0.00449
 39 Pt    0.02934    0.00734   -0.02251
 40 Ru    0.03211   -0.01293    0.01375
 41 Pt   -0.05027   -0.09429   -0.19490
 42 Ir    0.01461    0.01705    0.01681
 43 Pt    0.03861   -0.02248   -0.01534
 44 Ag    0.02548   -0.01019   -0.06625
 45 O    -0.16630   -0.13374    0.19123
 46 H     0.10692   -0.00366   -0.38306

System changes: positions 

Initializing position-dependent things.

Density initialized from wave functions
                                             
                                             
                                             
                                             
                                             
                                             
                            H                
                          O                  
                  Ir    Pt      Ag           
             Pt   Pd      Pt    Pd           
                   Ru    Pt                  
       Pt    APt    PAg    Ru                
                                             
        Ag     Ag    PPt    Pt     Ag        
                              Pt             
                Ru     Pd                    
           Ag    PAg    PPt    Pd            
                                             
            Ir     Pt    PAg    Pd           
       Pd     Pd     Pt                      
             Pd     Ag     Ag                
        Pd     Pt     Ag                     
                                             
                                             
                                             
                                             
                                             

Positions:
   0 Pd     0.000000    1.637674   10.000000    ( 0.0000,  0.0000,  0.0000)
   1 Pt     2.836535    1.637674   10.000000    ( 0.0000,  0.0000,  0.0000)
   2 Ag     5.673071    1.637674   10.000000    ( 0.0000,  0.0000,  0.0000)
   3 Pd     1.418268    4.094186   10.000000    ( 0.0000,  0.0000,  0.0000)
   4 Ag     4.254803    4.094186   10.000000    ( 0.0000,  0.0000,  0.0000)
   5 Ag     7.091338    4.094186   10.000000    ( 0.0000,  0.0000,  0.0000)
   6 Ag     2.836535    6.550698   10.000000    ( 0.0000,  0.0000,  0.0000)
   7 Pd     5.673071    6.550698   10.000000    ( 0.0000,  0.0000,  0.0000)
   8 Pd     8.509606    6.550698   10.000000    ( 0.0000,  0.0000,  0.0000)
   9 Pd     0.000000    0.000000   12.317643    ( 0.0000,  0.0000,  0.0000)
  10 Pd     2.836535    0.000000   12.317643    ( 0.0000,  0.0000,  0.0000)
  11 Pt     5.673071    0.000000   12.317643    ( 0.0000,  0.0000,  0.0000)
  12 Ir     1.418268    2.456512   12.317643    ( 0.0000,  0.0000,  0.0000)
  13 Pt     4.254803    2.456512   12.317643    ( 0.0000,  0.0000,  0.0000)
  14 Ag     7.091338    2.456512   12.317643    ( 0.0000,  0.0000,  0.0000)
  15 Pt     2.836535    4.913023   12.317643    ( 0.0000,  0.0000,  0.0000)
  16 Pd     5.673071    4.913023   12.317643    ( 0.0000,  0.0000,  0.0000)
  17 Pd     8.509606    4.913023   12.317643    ( 0.0000,  0.0000,  0.0000)
  18 Ag     1.382929    0.767338   14.615365    ( 0.0000,  0.0000,  0.0000)
  19 Ag     4.222235    0.791020   14.657519    ( 0.0000,  0.0000,  0.0000)
  20 Pt     7.061979    0.799052   14.665773    ( 0.0000,  0.0000,  0.0000)
  21 Ru     2.753796    3.303133   14.384371    ( 0.0000,  0.0000,  0.0000)
  22 Pd     5.602846    3.220659   14.646055    ( 0.0000,  0.0000,  0.0000)
  23 Pt     8.522905    3.255126   14.661973    ( 0.0000,  0.0000,  0.0000)
  24 Pt     4.171928    5.654322   14.617485    ( 0.0000,  0.0000,  0.0000)
  25 Pt     7.046760    5.613074   14.662092    ( 0.0000,  0.0000,  0.0000)
  26 Ag     9.873975    5.746203   14.694793    ( 0.0000,  0.0000,  0.0000)
  27 Ag    -0.010075    1.624603   17.028494    ( 0.0000,  0.0000,  0.0000)
  28 Ag     2.798759    1.617223   16.878695    ( 0.0000,  0.0000,  0.0000)
  29 Pt     5.713230    1.666715   17.060299    ( 0.0000,  0.0000,  0.0000)
  30 Ag     1.333367    4.087155   17.009489    ( 0.0000,  0.0000,  0.0000)
  31 Pd     4.153345    4.033158   16.815060    ( 0.0000,  0.0000,  0.0000)
  32 Ru     6.938752    4.066899   16.874950    ( 0.0000,  0.0000,  0.0000)
  33 Pd     2.789381    6.566905   17.024099    ( 0.0000,  0.0000,  0.0000)
  34 Pt     5.658697    6.419235   16.901335    ( 0.0000,  0.0000,  0.0000)
  35 Pd     8.429650    6.506622   17.061317    ( 0.0000,  0.0000,  0.0000)
  36 Pt     0.089867   -0.062960   19.266928    ( 0.0000,  0.0000,  0.0000)
  37 Pt     2.818686    0.083756   19.258519    ( 0.0000,  0.0000,  0.0000)
  38 Ag     5.703707   -0.009022   19.479491    ( 0.0000,  0.0000,  0.0000)
  39 Pt     1.587657    2.468945   19.384640    ( 0.0000,  0.0000,  0.0000)
  40 Ru     4.222543    2.603196   19.099277    ( 0.0000,  0.0000,  0.0000)
  41 Pt     7.082178    2.469168   19.411506    ( 0.0000,  0.0000,  0.0000)
  42 Ir     3.040640    4.828712   19.146940    ( 0.0000,  0.0000,  0.0000)
  43 Pt     5.714895    4.876273   19.154208    ( 0.0000,  0.0000,  0.0000)
  44 Ag     8.583779    4.915302   19.499329    ( 0.0000,  0.0000,  0.0000)
  45 O      7.092142    2.487959   21.403337    ( 0.0000,  0.0000,  0.0000)
  46 H      7.750643    3.110646   21.801260    ( 0.0000,  0.0000,  0.0000)

Unit cell:
           periodic     x           y           z      points  spacing
  1. axis:    yes    8.509606    0.000000    0.000000    40     0.1842
  2. axis:    yes    4.254803    7.369535    0.000000    40     0.1842
  3. axis:    no     0.000000    0.000000   29.270571   140     0.2091

  Lengths:   8.509606   8.509606  29.270571
  Angles:   90.000000  90.000000  60.000000

Effective grid spacing dv^(1/3) = 0.2016

     iter     time        total  log10-change:
                         energy  eigst   dens
iter:   1 00:15:39  -194.885922  -3.96
iter:   2 00:16:48  -203.354999  -3.53  -2.44
iter:   3 00:17:58  -194.782715  -3.66  -1.78
iter:   4 00:19:08  -194.531801  -4.89  -2.59
iter:   5 00:20:17  -194.509240c -5.66  -3.14
iter:   6 00:21:26  -194.511457c -6.29  -3.38
iter:   7 00:22:35  -194.509058c -6.49  -3.42
iter:   8 00:23:44  -194.502620c -5.85  -3.51
iter:   9 00:24:54  -194.510221c -6.61  -3.54
iter:  10 00:26:02  -194.505664c -6.86  -3.43
iter:  11 00:27:11  -194.502618c -7.05  -3.75
iter:  12 00:28:20  -194.504536c -7.06  -3.74
iter:  13 00:29:29  -194.504208c -7.64c -4.00
iter:  14 00:30:37  -194.503993c -7.62c -4.04c

Converged after 14 iterations.

Dipole moment: (-7.227135, 9.434636, -0.303407) |e|*Ang

Energy contributions relative to reference atoms: (reference = -12373371.003080)

Kinetic:       -228.142135
Potential:     +102.469846
External:        +0.000000
XC:             -60.901118
Entropy (-ST):   -1.889097
Local:           -6.986038
--------------------------
Free energy:   -195.448542
Extrapolated:  -194.503993

Showing only first 2 kpts
 Kpt  Band  Eigenvalues  Occupancy
  0   367      0.79861    0.89936
  0   368      0.81339    0.82690
  0   369      0.83235    0.73669
  0   370      0.86681    0.58473

  1   367      0.64388    1.58674
  1   368      0.67475    1.47644
  1   369      0.71837    1.29154
  1   370      0.73260    1.22515


Fermi level: 0.77842

No gap

Forces in eV/Ang:
  0 Pd    0.71011    0.06828    0.09401
  1 Pt   -0.60726   -0.16729    0.56616
  2 Ag   -0.09772   -0.08091   -0.55733
  3 Pd   -0.04721   -0.33172    0.20171
  4 Ag   -0.00700    0.03604   -0.57341
  5 Ag    0.14647    0.16341   -0.49295
  6 Ag    0.04323   -0.00477   -0.47802
  7 Pd    0.22350    0.34750    0.07749
  8 Pd   -0.12597    0.13129    0.19598
  9 Pd   -0.01219    0.09304   -0.00784
 10 Pd   -0.00155   -0.04124   -0.10137
 11 Pt   -0.02846   -0.14483    0.14262
 12 Ir    0.67168    0.15579   -0.01642
 13 Pt   -0.63218   -0.19171    0.26393
 14 Ag    0.10211   -0.02037    0.11066
 15 Pt   -0.27372    0.04601    0.16533
 16 Pd   -0.07942    0.24439    0.15360
 17 Pd    0.13942   -0.01369    0.17276
 18 Ag   -0.04082    0.02215    0.02418
 19 Ag    0.03168    0.01030    0.04676
 20 Pt   -0.01428    0.01843    0.06614
 21 Ru   -0.00432   -0.01601    0.01354
 22 Pd   -0.01208   -0.03831    0.01825
 23 Pt   -0.02004   -0.04140    0.02129
 24 Pt   -0.02117    0.00381   -0.01663
 25 Pt   -0.00067   -0.01476   -0.01886
 26 Ag   -0.01097   -0.00994   -0.00306
 27 Ag    0.02243    0.03711    0.10476
 28 Ag    0.00021   -0.03361   -0.01667
 29 Pt   -0.06033    0.00640   -0.01159
 30 Ag   -0.02801   -0.01995   -0.01820
 31 Pd   -0.05527   -0.01324   -0.00146
 32 Ru    0.01834    0.05214   -0.01640
 33 Pd   -0.00599    0.01263   -0.02741
 34 Pt   -0.03627    0.04490   -0.01418
 35 Pd    0.00741    0.04087   -0.04433
 36 Pt    0.05271   -0.01554    0.03328
 37 Pt   -0.01467   -0.01198    0.01519
 38 Ag    0.02477   -0.07150    0.01216
 39 Pt   -0.04510   -0.00751    0.01291
 40 Ru    0.04024    0.03170    0.02407
 41 Pt   -0.02825   -0.05810   -0.43244
 42 Ir    0.05400   -0.01579    0.00457
 43 Pt    0.04020   -0.03497    0.00111
 44 Ag   -0.01293   -0.08353   -0.04632
 45 O    -0.09004   -0.04473    0.55243
 46 H     0.05308   -0.05881   -0.29970

System changes: positions 

Initializing position-dependent things.

Density initialized from wave functions
                                             
                                             
                                             
                                             
                                             
                                             
                            H                
                          O                  
                  Ir     Pt     Ag           
             Pt   Pd      Pt    Pd           
                   Ru    Pt                  
       Pt    APt    PAg    Ru                
                                             
        Ag     Ag    PPt    Pt     Ag        
                              Pt             
                Ru     Pd                    
           Ag    PAg    PPt    Pd            
                                             
            Ir     Pt    PAg    Pd           
       Pd     Pd     Pt                      
             Pd     Ag     Ag                
        Pd     Pt     Ag                     
                                             
                                             
                                             
                                             
                                             

Positions:
   0 Pd     0.000000    1.637674   10.000000    ( 0.0000,  0.0000,  0.0000)
   1 Pt     2.836535    1.637674   10.000000    ( 0.0000,  0.0000,  0.0000)
   2 Ag     5.673071    1.637674   10.000000    ( 0.0000,  0.0000,  0.0000)
   3 Pd     1.418268    4.094186   10.000000    ( 0.0000,  0.0000,  0.0000)
   4 Ag     4.254803    4.094186   10.000000    ( 0.0000,  0.0000,  0.0000)
   5 Ag     7.091338    4.094186   10.000000    ( 0.0000,  0.0000,  0.0000)
   6 Ag     2.836535    6.550698   10.000000    ( 0.0000,  0.0000,  0.0000)
   7 Pd     5.673071    6.550698   10.000000    ( 0.0000,  0.0000,  0.0000)
   8 Pd     8.509606    6.550698   10.000000    ( 0.0000,  0.0000,  0.0000)
   9 Pd     0.000000    0.000000   12.317643    ( 0.0000,  0.0000,  0.0000)
  10 Pd     2.836535    0.000000   12.317643    ( 0.0000,  0.0000,  0.0000)
  11 Pt     5.673071    0.000000   12.317643    ( 0.0000,  0.0000,  0.0000)
  12 Ir     1.418268    2.456512   12.317643    ( 0.0000,  0.0000,  0.0000)
  13 Pt     4.254803    2.456512   12.317643    ( 0.0000,  0.0000,  0.0000)
  14 Ag     7.091338    2.456512   12.317643    ( 0.0000,  0.0000,  0.0000)
  15 Pt     2.836535    4.913023   12.317643    ( 0.0000,  0.0000,  0.0000)
  16 Pd     5.673071    4.913023   12.317643    ( 0.0000,  0.0000,  0.0000)
  17 Pd     8.509606    4.913023   12.317643    ( 0.0000,  0.0000,  0.0000)
  18 Ag     1.379908    0.769140   14.616382    ( 0.0000,  0.0000,  0.0000)
  19 Ag     4.223316    0.791428   14.659644    ( 0.0000,  0.0000,  0.0000)
  20 Pt     7.059860    0.798554   14.667775    ( 0.0000,  0.0000,  0.0000)
  21 Ru     2.754170    3.301728   14.384044    ( 0.0000,  0.0000,  0.0000)
  22 Pd     5.601937    3.219588   14.648129    ( 0.0000,  0.0000,  0.0000)
  23 Pt     8.521738    3.252713   14.662646    ( 0.0000,  0.0000,  0.0000)
  24 Pt     4.170878    5.654032   14.617512    ( 0.0000,  0.0000,  0.0000)
  25 Pt     7.046041    5.612418   14.661536    ( 0.0000,  0.0000,  0.0000)
  26 Ag     9.872720    5.743839   14.694631    ( 0.0000,  0.0000,  0.0000)
  27 Ag    -0.016444    1.628838   17.042419    ( 0.0000,  0.0000,  0.0000)
  28 Ag     2.799325    1.613635   16.877492    ( 0.0000,  0.0000,  0.0000)
  29 Pt     5.719439    1.673794   17.074070    ( 0.0000,  0.0000,  0.0000)
  30 Ag     1.330818    4.085833   17.009013    ( 0.0000,  0.0000,  0.0000)
  31 Pd     4.149063    4.032074   16.815067    ( 0.0000,  0.0000,  0.0000)
  32 Ru     6.935728    4.070941   16.874061    ( 0.0000,  0.0000,  0.0000)
  33 Pd     2.787374    6.566230   17.022771    ( 0.0000,  0.0000,  0.0000)
  34 Pt     5.657832    6.420008   16.896881    ( 0.0000,  0.0000,  0.0000)
  35 Pd     8.429139    6.508354   17.058966    ( 0.0000,  0.0000,  0.0000)
  36 Pt     0.093849   -0.067268   19.268399    ( 0.0000,  0.0000,  0.0000)
  37 Pt     2.821924    0.081843   19.260377    ( 0.0000,  0.0000,  0.0000)
  38 Ag     5.704830   -0.014214   19.479340    ( 0.0000,  0.0000,  0.0000)
  39 Pt     1.592099    2.469899   19.382958    ( 0.0000,  0.0000,  0.0000)
  40 Ru     4.223430    2.601906   19.100885    ( 0.0000,  0.0000,  0.0000)
  41 Pt     7.077417    2.461322   19.414431    ( 0.0000,  0.0000,  0.0000)
  42 Ir     3.041436    4.829989   19.147455    ( 0.0000,  0.0000,  0.0000)
  43 Pt     5.718155    4.875306   19.153250    ( 0.0000,  0.0000,  0.0000)
  44 Ag     8.586301    4.915355   19.494409    ( 0.0000,  0.0000,  0.0000)
  45 O      7.078978    2.478370   21.413962    ( 0.0000,  0.0000,  0.0000)
  46 H      7.757693    3.108404   21.768550    ( 0.0000,  0.0000,  0.0000)

Unit cell:
           periodic     x           y           z      points  spacing
  1. axis:    yes    8.509606    0.000000    0.000000    40     0.1842
  2. axis:    yes    4.254803    7.369535    0.000000    40     0.1842
  3. axis:    no     0.000000    0.000000   29.270571   140     0.2091

  Lengths:   8.509606   8.509606  29.270571
  Angles:   90.000000  90.000000  60.000000

Effective grid spacing dv^(1/3) = 0.2016

     iter     time        total  log10-change:
                         energy  eigst   dens
iter:   1 00:32:09  -195.101697  -4.10
iter:   2 00:33:18  -207.996825  -3.33  -2.35
iter:   3 00:34:26  -194.753808  -3.51  -1.70
iter:   4 00:35:35  -194.539932  -4.85  -2.65
iter:   5 00:36:43  -194.524384c -5.56  -3.16
iter:   6 00:37:51  -194.521410c -6.08  -3.25
iter:   7 00:38:59  -194.521322c -6.45  -3.47
iter:   8 00:40:06  -194.519289c -6.42  -3.59
iter:   9 00:41:15  -194.520546c -6.36  -3.28
iter:  10 00:42:24  -194.520243c -7.02  -3.68
iter:  11 00:43:32  -194.517203c -6.93  -3.86
iter:  12 00:44:40  -194.519632c -7.06  -3.91
iter:  13 00:45:49  -194.518992c -7.56c -3.96
iter:  14 00:46:57  -194.518201c -7.89c -4.13c

Converged after 14 iterations.

Dipole moment: (-7.529371, 9.958347, -0.326592) |e|*Ang

Energy contributions relative to reference atoms: (reference = -12373371.003080)

Kinetic:       -227.791226
Potential:     +102.122976
External:        +0.000000
XC:             -60.901047
Entropy (-ST):   -1.887446
Local:           -7.005181
--------------------------
Free energy:   -195.461924
Extrapolated:  -194.518201

Showing only first 2 kpts
 Kpt  Band  Eigenvalues  Occupancy
  0   367      0.78870    0.90235
  0   368      0.80351    0.82963
  0   369      0.82371    0.73359
  0   370      0.85651    0.58884

  1   367      0.63396    1.58874
  1   368      0.66481    1.47883
  1   369      0.70899    1.29182
  1   370      0.72323    1.22544


Fermi level: 0.76911

No gap

Forces in eV/Ang:
  0 Pd    0.70771    0.06910    0.09677
  1 Pt   -0.60480   -0.16521    0.56678
  2 Ag   -0.09782   -0.08033   -0.55582
  3 Pd   -0.04615   -0.33135    0.20386
  4 Ag   -0.00737    0.03547   -0.57233
  5 Ag    0.14600    0.16271   -0.49123
  6 Ag    0.04317   -0.00502   -0.47635
  7 Pd    0.22228    0.34576    0.08059
  8 Pd   -0.12459    0.13149    0.19853
  9 Pd   -0.01565    0.09284   -0.00570
 10 Pd   -0.00165   -0.03905   -0.09165
 11 Pt   -0.02864   -0.14453    0.14826
 12 Ir    0.67199    0.15551   -0.01551
 13 Pt   -0.63005   -0.19383    0.26857
 14 Ag    0.09959   -0.02256    0.11488
 15 Pt   -0.27411    0.04333    0.16535
 16 Pd   -0.08134    0.24189    0.15337
 17 Pd    0.13844   -0.01566    0.17206
 18 Ag   -0.03184    0.01502    0.02278
 19 Ag    0.02498    0.00256    0.02932
 20 Pt   -0.00089    0.02345    0.07147
 21 Ru   -0.00975   -0.01011    0.00917
 22 Pd   -0.01224   -0.03095    0.00895
 23 Pt   -0.02340   -0.03767    0.02136
 24 Pt   -0.02217    0.00271   -0.01901
 25 Pt    0.00244   -0.00319   -0.03101
 26 Ag   -0.00771   -0.00462   -0.01085
 27 Ag    0.09412    0.00832    0.02183
 28 Ag   -0.01611   -0.01056    0.01116
 29 Pt   -0.14020   -0.04398   -0.11751
 30 Ag   -0.00508   -0.01048   -0.02051
 31 Pd   -0.04838    0.00059   -0.00389
 32 Ru    0.02969    0.05697   -0.03299
 33 Pd    0.00932    0.01220   -0.01662
 34 Pt   -0.05275    0.04025    0.02157
 35 Pd    0.01148    0.03130   -0.03026
 36 Pt    0.03808   -0.01943    0.03434
 37 Pt   -0.02765    0.00102   -0.01742
 38 Ag    0.03109   -0.06486    0.02445
 39 Pt   -0.04660   -0.01492    0.03308
 40 Ru    0.02989    0.04501    0.02985
 41 Pt   -0.04179   -0.03598   -0.20343
 42 Ir    0.06437   -0.03698   -0.02384
 43 Pt    0.02605   -0.02455    0.00972
 44 Ag   -0.03309   -0.11224   -0.02016
 45 O     0.08944    0.10601    0.26173
 46 H    -0.02253   -0.12991   -0.22286

System changes: positions 

Initializing position-dependent things.

Density initialized from wave functions
                                             
                                             
                                             
                                             
                                             
[...]
  17 Pd     8.509606    4.913023   12.317643    ( 0.0000,  0.0000,  0.0000)
  18 Ag     1.368996    0.771058   14.627213    ( 0.0000,  0.0000,  0.0000)
  19 Ag     4.210165    0.786860   14.655790    ( 0.0000,  0.0000,  0.0000)
  20 Pt     7.054409    0.802719   14.690299    ( 0.0000,  0.0000,  0.0000)
  21 Ru     2.740363    3.296781   14.383147    ( 0.0000,  0.0000,  0.0000)
  22 Pd     5.586068    3.223985   14.644281    ( 0.0000,  0.0000,  0.0000)
  23 Pt     8.501751    3.246557   14.676709    ( 0.0000,  0.0000,  0.0000)
  24 Pt     4.158260    5.656964   14.617150    ( 0.0000,  0.0000,  0.0000)
  25 Pt     7.030294    5.617410   14.660633    ( 0.0000,  0.0000,  0.0000)
  26 Ag     9.863294    5.739435   14.687726    ( 0.0000,  0.0000,  0.0000)
  27 Ag    -0.017318    1.638863   17.083889    ( 0.0000,  0.0000,  0.0000)
  28 Ag     2.787030    1.613480   16.896095    ( 0.0000,  0.0000,  0.0000)
  29 Pt     5.696728    1.662202   17.048782    ( 0.0000,  0.0000,  0.0000)
  30 Ag     1.335666    4.090686   17.002460    ( 0.0000,  0.0000,  0.0000)
  31 Pd     4.140138    4.033270   16.814846    ( 0.0000,  0.0000,  0.0000)
  32 Ru     6.930430    4.077598   16.855038    ( 0.0000,  0.0000,  0.0000)
  33 Pd     2.785154    6.571134   17.032552    ( 0.0000,  0.0000,  0.0000)
  34 Pt     5.641365    6.420922   16.903673    ( 0.0000,  0.0000,  0.0000)
  35 Pd     8.423347    6.507775   17.055816    ( 0.0000,  0.0000,  0.0000)
  36 Pt     0.094472   -0.089871   19.290848    ( 0.0000,  0.0000,  0.0000)
  37 Pt     2.831719    0.060367   19.262675    ( 0.0000,  0.0000,  0.0000)
  38 Ag     5.706957   -0.102620   19.501366    ( 0.0000,  0.0000,  0.0000)
  39 Pt     1.623522    2.453403   19.405687    ( 0.0000,  0.0000,  0.0000)
  40 Ru     4.247121    2.583892   19.105239    ( 0.0000,  0.0000,  0.0000)
  41 Pt     6.972328    2.384100   19.386894    ( 0.0000,  0.0000,  0.0000)
  42 Ir     3.050741    4.806977   19.149380    ( 0.0000,  0.0000,  0.0000)
  43 Pt     5.735271    4.863592   19.143329    ( 0.0000,  0.0000,  0.0000)
  44 Ag     8.567468    4.833373   19.453086    ( 0.0000,  0.0000,  0.0000)
  45 O      7.089418    2.488891   21.388465    ( 0.0000,  0.0000,  0.0000)
  46 H      7.874707    3.036350   21.642021    ( 0.0000,  0.0000,  0.0000)

Unit cell:
           periodic     x           y           z      points  spacing
  1. axis:    yes    8.509606    0.000000    0.000000    40     0.1842
  2. axis:    yes    4.254803    7.369535    0.000000    40     0.1842
  3. axis:    no     0.000000    0.000000   29.270571   140     0.2091

  Lengths:   8.509606   8.509606  29.270571
  Angles:   90.000000  90.000000  60.000000

Effective grid spacing dv^(1/3) = 0.2016

     iter     time        total  log10-change:
                         energy  eigst   dens
iter:   1 04:49:55  -195.540207  -3.94
iter:   2 04:51:03  -215.708514  -3.11  -2.24
iter:   3 04:52:12  -195.123443  -3.28  -1.62
iter:   4 04:53:20  -194.620608  -4.54  -2.43
iter:   5 04:54:29  -194.575730  -5.23  -2.98
iter:   6 04:55:40  -194.573237c -5.87  -3.32
iter:   7 04:56:51  -194.568903c -6.23  -3.44
iter:   8 04:58:02  -194.565853c -6.01  -3.55
iter:   9 04:59:13  -194.566898c -6.41  -3.21
iter:  10 05:00:23  -194.562491c -6.34  -3.64
iter:  11 05:01:34  -194.562298c -6.96  -3.70
iter:  12 05:02:44  -194.564465c -7.11  -3.82
iter:  13 05:03:55  -194.563423c -7.64c -4.07c

Converged after 13 iterations.

Dipole moment: (-7.697764, 15.294653, -0.371250) |e|*Ang

Energy contributions relative to reference atoms: (reference = -12373371.003080)

Kinetic:       -225.674015
Potential:     +100.239122
External:        +0.000000
XC:             -61.184974
Entropy (-ST):   -1.868841
Local:           -7.009135
--------------------------
Free energy:   -195.497843
Extrapolated:  -194.563423

Showing only first 2 kpts
 Kpt  Band  Eigenvalues  Occupancy
  0   367      0.77505    0.88231
  0   368      0.78471    0.83499
  0   369      0.80861    0.72153
  0   370      0.84129    0.57859

  1   367      0.61638    1.58833
  1   368      0.64737    1.47782
  1   369      0.69110    1.29272
  1   370      0.70960    1.20604


Fermi level: 0.75141

No gap

Forces in eV/Ang:
  0 Pd    0.70836    0.06602    0.10440
  1 Pt   -0.60599   -0.16835    0.56843
  2 Ag   -0.09763   -0.08220   -0.54994
  3 Pd   -0.04890   -0.33344    0.21346
  4 Ag   -0.00863    0.03575   -0.56755
  5 Ag    0.14841    0.16594   -0.48440
  6 Ag    0.04417   -0.00378   -0.47029
  7 Pd    0.22600    0.34700    0.08206
  8 Pd   -0.12819    0.13092    0.20516
  9 Pd   -0.02482    0.11448    0.02629
 10 Pd   -0.03033   -0.03712   -0.09614
 11 Pt   -0.01408   -0.12863    0.17646
 12 Ir    0.63016    0.14126    0.00385
 13 Pt   -0.65167   -0.19409    0.25943
 14 Ag    0.10261   -0.04407    0.15307
 15 Pt   -0.27710    0.03372    0.16515
 16 Pd   -0.08966    0.24723    0.14015
 17 Pd    0.12073   -0.03542    0.17702
 18 Ag   -0.04050    0.02951    0.00871
 19 Ag    0.01082    0.01909    0.01933
 20 Pt   -0.00540   -0.00804   -0.07316
 21 Ru    0.01303    0.01715    0.00648
 22 Pd   -0.01999   -0.03056   -0.03349
 23 Pt    0.03787   -0.00961   -0.02584
 24 Pt   -0.00990   -0.00268    0.00417
 25 Pt    0.02679   -0.02056   -0.02017
 26 Ag   -0.00850    0.01800    0.02038
 27 Ag    0.04293    0.00334   -0.01205
 28 Ag    0.00041   -0.03607   -0.07358
 29 Pt   -0.00315   -0.02005    0.02303
 30 Ag   -0.02079   -0.04886   -0.01722
 31 Pd    0.01525   -0.02124   -0.00219
 32 Ru    0.02398   -0.00470    0.02151
 33 Pd    0.00249   -0.04249   -0.03116
 34 Pt    0.00337    0.04274   -0.02184
 35 Pd    0.00080   -0.00844   -0.02848
 36 Pt    0.00320    0.00294   -0.03420
 37 Pt   -0.05025   -0.03993    0.02372
 38 Ag   -0.04756   -0.01775    0.00471
 39 Pt   -0.02273   -0.03946   -0.04931
 40 Ru   -0.02101   -0.00591   -0.02087
 41 Pt    0.11386    0.07662   -0.05281
 42 Ir    0.02021   -0.00716    0.02084
 43 Pt   -0.08696   -0.00478    0.03379
 44 Ag   -0.02028   -0.01373    0.01014
 45 O     0.04337    0.08935    0.14511
 46 H     0.01936   -0.14327   -0.05987

System changes: positions 

Initializing position-dependent things.

Density initialized from wave functions
                                             
                                             
                                             
                                             
                                             
                                             
                             H               
                          O                  
                  Ir     Pt    Ag            
             Pt   PRu     Pt    Pd           
                         Pt                  
       Pt    APt    PAg    Ru                
                                             
        Ag     Ag    PPt    Pt     Ag        
                       Pd     Pt             
                Ru                           
           Ag    PAg    PPt    Pd            
                                             
            Ir     Pt     Ag    Pd           
       Pd     Pd     Pt                      
             Pd     Ag     Ag                
        Pd     Pt     Ag                     
                                             
                                             
                                             
                                             
                                             

Positions:
   0 Pd     0.000000    1.637674   10.000000    ( 0.0000,  0.0000,  0.0000)
   1 Pt     2.836535    1.637674   10.000000    ( 0.0000,  0.0000,  0.0000)
   2 Ag     5.673071    1.637674   10.000000    ( 0.0000,  0.0000,  0.0000)
   3 Pd     1.418268    4.094186   10.000000    ( 0.0000,  0.0000,  0.0000)
   4 Ag     4.254803    4.094186   10.000000    ( 0.0000,  0.0000,  0.0000)
   5 Ag     7.091338    4.094186   10.000000    ( 0.0000,  0.0000,  0.0000)
   6 Ag     2.836535    6.550698   10.000000    ( 0.0000,  0.0000,  0.0000)
   7 Pd     5.673071    6.550698   10.000000    ( 0.0000,  0.0000,  0.0000)
   8 Pd     8.509606    6.550698   10.000000    ( 0.0000,  0.0000,  0.0000)
   9 Pd     0.000000    0.000000   12.317643    ( 0.0000,  0.0000,  0.0000)
  10 Pd     2.836535    0.000000   12.317643    ( 0.0000,  0.0000,  0.0000)
  11 Pt     5.673071    0.000000   12.317643    ( 0.0000,  0.0000,  0.0000)
  12 Ir     1.418268    2.456512   12.317643    ( 0.0000,  0.0000,  0.0000)
  13 Pt     4.254803    2.456512   12.317643    ( 0.0000,  0.0000,  0.0000)
  14 Ag     7.091338    2.456512   12.317643    ( 0.0000,  0.0000,  0.0000)
  15 Pt     2.836535    4.913023   12.317643    ( 0.0000,  0.0000,  0.0000)
  16 Pd     5.673071    4.913023   12.317643    ( 0.0000,  0.0000,  0.0000)
  17 Pd     8.509606    4.913023   12.317643    ( 0.0000,  0.0000,  0.0000)
  18 Ag     1.368926    0.771432   14.626693    ( 0.0000,  0.0000,  0.0000)
  19 Ag     4.211089    0.787517   14.656416    ( 0.0000,  0.0000,  0.0000)
  20 Pt     7.054440    0.802396   14.687761    ( 0.0000,  0.0000,  0.0000)
  21 Ru     2.741289    3.297301   14.383296    ( 0.0000,  0.0000,  0.0000)
  22 Pd     5.586588    3.223220   14.643884    ( 0.0000,  0.0000,  0.0000)
  23 Pt     8.503363    3.246845   14.675566    ( 0.0000,  0.0000,  0.0000)
  24 Pt     4.158849    5.656880   14.617285    ( 0.0000,  0.0000,  0.0000)
  25 Pt     7.031526    5.616653   14.660576    ( 0.0000,  0.0000,  0.0000)
  26 Ag     9.863648    5.740098   14.688576    ( 0.0000,  0.0000,  0.0000)
  27 Ag    -0.016946    1.638394   17.081425    ( 0.0000,  0.0000,  0.0000)
  28 Ag     2.787994    1.612747   16.893525    ( 0.0000,  0.0000,  0.0000)
  29 Pt     5.698307    1.662598   17.051212    ( 0.0000,  0.0000,  0.0000)
  30 Ag     1.335190    4.089678   17.002336    ( 0.0000,  0.0000,  0.0000)
  31 Pd     4.141011    4.032806   16.814866    ( 0.0000,  0.0000,  0.0000)
  32 Ru     6.930659    4.077237   16.855844    ( 0.0000,  0.0000,  0.0000)
  33 Pd     2.785180    6.570049   17.031483    ( 0.0000,  0.0000,  0.0000)
  34 Pt     5.642504    6.421462   16.902727    ( 0.0000,  0.0000,  0.0000)
  35 Pd     8.423644    6.507716   17.055494    ( 0.0000,  0.0000,  0.0000)
  36 Pt     0.094263   -0.088613   19.289401    ( 0.0000,  0.0000,  0.0000)
  37 Pt     2.830502    0.060779   19.263116    ( 0.0000,  0.0000,  0.0000)
  38 Ag     5.705841   -0.098005   19.500335    ( 0.0000,  0.0000,  0.0000)
  39 Pt     1.621686    2.453689   19.404243    ( 0.0000,  0.0000,  0.0000)
  40 Ru     4.245641    2.584472   19.104519    ( 0.0000,  0.0000,  0.0000)
  41 Pt     6.979541    2.389378   19.386074    ( 0.0000,  0.0000,  0.0000)
  42 Ir     3.050597    4.808021   19.149734    ( 0.0000,  0.0000,  0.0000)
  43 Pt     5.732613    4.864077   19.144512    ( 0.0000,  0.0000,  0.0000)
  44 Ag     8.568242    4.837728   19.455822    ( 0.0000,  0.0000,  0.0000)
  45 O      7.088199    2.489818   21.394525    ( 0.0000,  0.0000,  0.0000)
  46 H      7.869365    3.040142   21.649095    ( 0.0000,  0.0000,  0.0000)

Unit cell:
           periodic     x           y           z      points  spacing
  1. axis:    yes    8.509606    0.000000    0.000000    40     0.1842
  2. axis:    yes    4.254803    7.369535    0.000000    40     0.1842
  3. axis:    no     0.000000    0.000000   29.270571   140     0.2091

  Lengths:   8.509606   8.509606  29.270571
  Angles:   90.000000  90.000000  60.000000

Effective grid spacing dv^(1/3) = 0.2016

     iter     time        total  log10-change:
                         energy  eigst   dens
iter:   1 05:05:29  -194.803732  -4.76
iter:   2 05:06:37  -200.210625  -3.76  -2.59
iter:   3 05:07:45  -194.621751  -3.93  -1.86
iter:   4 05:08:52  -194.569259  -5.41  -2.97
iter:   5 05:10:00  -194.565141c -6.17  -3.62
iter:   6 05:11:08  -194.565483c -6.72  -3.78
iter:   7 05:12:17  -194.564694c -6.96  -3.93
iter:   8 05:13:27  -194.563568c -7.16  -4.07c
iter:   9 05:14:36  -194.565216c -7.06  -3.72
iter:  10 05:15:44  -194.564240c -7.67c -4.13c

Converged after 10 iterations.

Dipole moment: (-7.677337, 15.058577, -0.377677) |e|*Ang

Energy contributions relative to reference atoms: (reference = -12373371.003080)

Kinetic:       -226.335070
Potential:     +100.849793
External:        +0.000000
XC:             -61.138345
Entropy (-ST):   -1.869732
Local:           -7.005752
--------------------------
Free energy:   -195.499106
Extrapolated:  -194.564240

Showing only first 2 kpts
 Kpt  Band  Eigenvalues  Occupancy
  0   367      0.77347    0.88379
  0   368      0.78359    0.83420
  0   369      0.80751    0.72070
  0   370      0.84048    0.57661

  1   367      0.61500    1.58865
  1   368      0.64596    1.47833
  1   369      0.68965    1.29346
  1   370      0.70793    1.20788


Fermi level: 0.75012

No gap

Forces in eV/Ang:
  0 Pd    0.71673    0.06672    0.11171
  1 Pt   -0.61107   -0.17286    0.57996
  2 Ag   -0.09889   -0.08240   -0.54261
  3 Pd   -0.04978   -0.33623    0.22153
  4 Ag   -0.00904    0.03527   -0.55811
  5 Ag    0.15043    0.16708   -0.47774
  6 Ag    0.04367   -0.00446   -0.46206
  7 Pd    0.22909    0.35266    0.09254
  8 Pd   -0.12985    0.13151    0.21476
  9 Pd   -0.02237    0.10675    0.02025
 10 Pd   -0.02714   -0.03713   -0.08844
 11 Pt   -0.02183   -0.13345    0.16811
 12 Ir    0.64500    0.14327   -0.00550
 13 Pt   -0.65597   -0.19791    0.25684
 14 Ag    0.09712   -0.03905    0.14538
 15 Pt   -0.27919    0.03419    0.16145
 16 Pd   -0.08989    0.24927    0.14030
 17 Pd    0.12229   -0.02818    0.16921
 18 Ag   -0.02813    0.01591    0.00523
 19 Ag    0.01309    0.01508    0.02246
 20 Pt   -0.01938    0.00409   -0.02119
 21 Ru    0.00419    0.01192    0.00314
 22 Pd   -0.00942   -0.02466   -0.01176
 23 Pt    0.00425   -0.00341    0.00088
 24 Pt   -0.00604    0.00181    0.00729
 25 Pt    0.00860   -0.01604   -0.01362
 26 Ag   -0.00843    0.01517    0.01995
 27 Ag    0.03144   -0.01096   -0.03918
 28 Ag    0.00798   -0.02563   -0.04144
 29 Pt   -0.00271   -0.02738    0.01101
 30 Ag   -0.00192   -0.03227   -0.01223
 31 Pd    0.00378   -0.01430    0.00583
 32 Ru    0.00137    0.00166   -0.00887
 33 Pd   -0.00334   -0.03079   -0.01493
 34 Pt   -0.00187    0.01849    0.00016
 35 Pd    0.00171   -0.01075   -0.00953
 36 Pt   -0.00280   -0.01100   -0.01598
 37 Pt   -0.03583   -0.03850   -0.00287
 38 Ag   -0.03602   -0.00819    0.00011
 39 Pt    0.00449   -0.02733   -0.00280
 40 Ru    0.00176   -0.01664   -0.01558
 41 Pt    0.02524    0.03811    0.08566
 42 Ir   -0.00505   -0.02739    0.00199
 43 Pt   -0.05716   -0.01103    0.00385
 44 Ag   -0.01780   -0.02032    0.00874
 45 O     0.03293    0.06073    0.06353
 46 H     0.00069   -0.06000   -0.00567

Timing:                                      incl.     excl.
-------------------------------------------------------------------
Density initialized from wave functions:    82.699    82.698   0.3% |
 Symmetrize density:                         0.001     0.001   0.0% |
Forces:                                    362.238   362.238   1.4% ||
Hamiltonian:                                42.394     0.223   0.0% |
 Atomic:                                     4.229     2.467   0.0% |
  XC Correction:                             1.762     1.762   0.0% |
 Calculate atomic Hamiltonians:             31.408    31.408   0.1% |
 Communicate:                                1.125     1.125   0.0% |
 Initialize Hamiltonian:                     0.002     0.002   0.0% |
 Poisson:                                    0.115     0.115   0.0% |
 XC 3D grid:                                 5.292     5.292   0.0% |
LCAO initialization:                       138.943     2.805   0.0% |
 LCAO eigensolver:                          14.948     0.002   0.0% |
  Blacs Orbital Layouts:                     0.329     0.000   0.0% |
   General diagonalize:                      0.319     0.319   0.0% |
   Redistribute coefs:                       0.007     0.007   0.0% |
   Send coefs to domains:                    0.003     0.003   0.0% |
  Calculate projections:                     0.006     0.006   0.0% |
  Distribute overlap matrix:                13.808     0.000   0.0% |
   Scalapack redistribute:                   0.010     0.010   0.0% |
   blocked summation:                       13.798    13.798   0.1% |
  Potential matrix:                          0.755     0.755   0.0% |
  SparseAtomicCorrection:                    0.005     0.005   0.0% |
  Sum over cells:                            0.044     0.044   0.0% |
 LCAO to grid:                             118.043   118.043   0.4% |
 Set positions (LCAO WFS):                   3.146     0.006   0.0% |
  Basic WFS set positions:                   0.002     0.002   0.0% |
  Basis functions set positions:             0.000     0.000   0.0% |
  P tci:                                     0.000     0.000   0.0% |
  ST tci:                                    0.278     0.278   0.0% |
  Scalapack redistribute:                    0.007     0.007   0.0% |
  blocked summation:                         2.741     2.741   0.0% |
  mktci:                                     0.111     0.111   0.0% |
PWDescriptor:                                0.649     0.649   0.0% |
Redistribute:                                0.029     0.029   0.0% |
SCF-cycle:                               25729.993   410.051   1.5% ||
 Davidson:                               23326.932  5221.803  19.7% |-------|
  Apply H:                                2606.038  2551.796   9.6% |---|
   HMM T:                                   54.243    54.243   0.2% |
  Subspace diag:                          2796.270     0.086   0.0% |
   calc_h_matrix:                         1905.670   490.930   1.9% ||
    Apply H:                              1414.740  1382.675   5.2% |-|
     HMM T:                                 32.065    32.065   0.1% |
   diagonalize:                             94.224    94.224   0.4% |
   rotate_psi:                             796.290   796.290   3.0% ||
  calc. matrices:                         8866.465  5056.090  19.1% |-------|
   Apply H:                               3810.376  3729.471  14.1% |-----|
    HMM T:                                  80.905    80.905   0.3% |
  diagonalize:                            1349.796  1349.796   5.1% |-|
  rotate_psi:                             2486.559  2486.559   9.4% |---|
 Density:                                 1255.367     0.021   0.0% |
  Atomic density matrices:                   7.371     7.371   0.0% |
  Mix:                                     517.147   517.147   2.0% ||
  Multipole moments:                         0.698     0.698   0.0% |
  Pseudo density:                          730.130   730.112   2.8% ||
   Symmetrize density:                       0.018     0.018   0.0% |
 Hamiltonian:                              641.403     3.321   0.0% |
  Atomic:                                   58.203    31.496   0.1% |
   XC Correction:                           26.707    26.707   0.1% |
  Calculate atomic Hamiltonians:           470.821   470.821   1.8% ||
  Communicate:                              26.145    26.145   0.1% |
  Poisson:                                   1.656     1.656   0.0% |
  XC 3D grid:                               81.258    81.258   0.3% |
 Orthonormalize:                            96.239     0.009   0.0% |
  calc_s_matrix:                            15.456    15.456   0.1% |
  inverse-cholesky:                          5.246     5.246   0.0% |
  projections:                              49.846    49.846   0.2% |
  rotate_psi_s:                             25.682    25.682   0.1% |
Set symmetry:                                0.002     0.002   0.0% |
Other:                                     112.774   112.774   0.4% |
-------------------------------------------------------------------
Total:                                             26469.721 100.0%

Memory usage: 870.62 MiB
Date: Fri Jun 14 05:16:00 2024
