
  ___ ___ ___ _ _ _  
 |   |   |_  | | | | 
 | | | | | . | | | | 
 |__ |  _|___|_____|  22.1.0
 |___|_|             

User:   clausen@node428.cluster
Date:   Thu Jun 13 21:54:50 2024
Arch:   x86_64
Pid:    3266
Python: 3.10.4
gpaw:   /groups/kemi/clausen/miniconda3/envs/gpaw22/lib/python3.10/site-packages/gpaw
_gpaw:  /groups/kemi/clausen/miniconda3/envs/gpaw22/lib/python3.10/site-packages/
        _gpaw.cpython-310-x86_64-linux-gnu.so
ase:    /groups/kemi/clausen/miniconda3/envs/gpaw22/lib/python3.10/site-packages/ase (version 3.22.1)
numpy:  /groups/kemi/clausen/miniconda3/envs/gpaw22/lib/python3.10/site-packages/numpy (version 1.23.1)
scipy:  /groups/kemi/clausen/miniconda3/envs/gpaw22/lib/python3.10/site-packages/scipy (version 1.8.1)
libxc:  5.2.3
units:  Angstrom and eV
cores: 24
OpenMP: True
OMP_NUM_THREADS: 1

Input parameters:
  eigensolver: {name: dav,
                niter: 3}
  kpts: [4 4 1]
  mixer: {backend: pulay,
          beta: 0.05,
          method: difference,
          nmaxold: 5,
          weight: 50.0}
  mode: {ecut: 400.0,
         name: pw}
  xc: RPBE

System changes: positions, numbers, cell, pbc, initial_charges, initial_magmoms 

Initialize ...

Pd-setup:
  name: Palladium
  id: 6da19bfba079f22767af9506641940b9
  Z: 46.0
  valence: 16
  core: 30
  charge: 0.0
  file: /groups/kemi/clausen/miniconda3/envs/gpaw22/share/gpaw/Pd.RPBE.gz
  compensation charges: gauss, rc=0.38, lmax=2
  cutoffs: 2.38(filt), 2.28(core),
  valence states:
                energy  radius
    5s(0.00)    -3.225   1.228
    4p(6.00)   -51.131   1.360
    5p(0.00)    -0.373   1.360
    4d(10.00)    -3.964   1.228
    *s          23.987   1.228
    *d          23.247   1.228

  Using partial waves for Pd as LCAO basis

Pt-setup:
  name: Platinum
  id: f04f522592575c47ad794f6b4a415b4b
  Z: 78.0
  valence: 16
  core: 62
  charge: 0.0
  file: /groups/kemi/clausen/miniconda3/envs/gpaw22/share/gpaw/Pt.RPBE.gz
  compensation charges: gauss, rc=0.41, lmax=2
  cutoffs: 2.26(filt), 2.26(core),
  valence states:
                energy  radius
    6s(1.00)    -5.516   1.307
    5p(6.00)   -55.971   1.371
    6p(0.00)    -0.856   1.371
    5d(9.00)    -6.087   1.307
    *s          21.695   1.307
    *d          21.125   1.307

  Using partial waves for Pt as LCAO basis

Ag-setup:
  name: Silver
  id: c05e55bab2c3858b3f9398f6d75cb77c
  Z: 47.0
  valence: 17
  core: 30
  charge: 0.0
  file: /groups/kemi/clausen/miniconda3/envs/gpaw22/share/gpaw/Ag.RPBE.gz
  compensation charges: gauss, rc=0.40, lmax=2
  cutoffs: 2.35(filt), 2.19(core),
  valence states:
                energy  radius
    5s(1.00)    -4.277   1.286
    4p(6.00)   -58.523   1.328
    5p(0.00)    -0.755   1.328
    4d(10.00)    -7.386   1.180
    *s          22.934   1.286
    *d          19.826   1.180

  Using partial waves for Ag as LCAO basis

Ir-setup:
  name: Iridium
  id: 73b603359d1d5397a85ae3c2440f9033
  Z: 77.0
  valence: 15
  core: 62
  charge: 0.0
  file: /groups/kemi/clausen/miniconda3/envs/gpaw22/share/gpaw/Ir.RPBE.gz
  compensation charges: gauss, rc=0.40, lmax=2
  cutoffs: 2.40(filt), 2.36(core),
  valence states:
                energy  radius
    6s(2.00)    -6.219   1.296
    5p(6.00)   -54.684   1.328
    6p(0.00)    -1.215   1.328
    5d(7.00)    -7.118   1.286
    *s          20.992   1.296
    *d          20.093   1.286

  Using partial waves for Ir as LCAO basis

Ru-setup:
  name: Ruthenium
  id: 76477906e28f51dc1b29884d53556fe9
  Z: 44.0
  valence: 16
  core: 28
  charge: 0.0
  file: /groups/kemi/clausen/miniconda3/envs/gpaw22/share/gpaw/Ru.RPBE.gz
  compensation charges: gauss, rc=0.39, lmax=2
  cutoffs: 2.16(filt), 1.30(core),
  valence states:
                energy  radius
    4s(2.00)   -76.255   1.281
    5s(1.00)    -4.126   1.281
    4p(6.00)   -46.371   1.286
    5p(0.00)    -0.913   1.286
    4d(7.00)    -5.146   1.254
    *d          22.066   1.254

  Using partial waves for Ru as LCAO basis

O-setup:
  name: Oxygen
  id: 08071ca1eed670e7821b24b7eb4d558c
  Z: 8.0
  valence: 6
  core: 2
  charge: 0.0
  file: /groups/kemi/clausen/miniconda3/envs/gpaw22/share/gpaw/O.RPBE.gz
  compensation charges: gauss, rc=0.21, lmax=2
  cutoffs: 1.17(filt), 0.83(core),
  valence states:
                energy  radius
    2s(2.00)   -24.041   0.688
    2p(4.00)    -8.984   0.598
    *s           3.170   0.688
    *p          18.228   0.598
    *d           0.000   0.619

  Using partial waves for O as LCAO basis

Reference energy: -12373358.334139

Spin-paired calculation

Convergence criteria:
 Maximum [total energy] change in last 3 cyles: 0.0005 eV / electron
 Maximum integral of absolute [dens]ity change: 0.0001 electrons / valence electron
 Maximum integral of absolute [eigenst]ate change: 4e-08 eV^2 / valence electron
 Maximum number of scf [iter]ations: 333
 (Square brackets indicate name in SCF output, whereas a 'c' in
 the SCF output indicates the quantity has converged.)

Symmetries present (total): 1

  ( 1  0  0)
  ( 0  1  0)
  ( 0  0  1)

16 k-points: 4 x 4 x 1 Monkhorst-Pack grid
8 k-points in the irreducible part of the Brillouin zone
       k-points in crystal coordinates                weights
   0:     0.12500000   -0.37500000    0.00000000          2/16
   1:     0.12500000   -0.12500000    0.00000000          2/16
   2:     0.12500000    0.12500000    0.00000000          2/16
   3:     0.12500000    0.37500000    0.00000000          2/16
   4:     0.37500000   -0.37500000    0.00000000          2/16
   5:     0.37500000   -0.12500000    0.00000000          2/16
   6:     0.37500000    0.12500000    0.00000000          2/16
   7:     0.37500000    0.37500000    0.00000000          2/16

Wave functions: Plane wave expansion
  Cutoff energy: 400.000 eV
  Number of coefficients (min, max): 33288, 33380
  Pulay-stress correction: 0.000000 eV/Ang^3 (de/decut=0.000000)
  Using FFTW library
  ScaLapack parameters: grid=3x1, blocksize=64
  Wavefunction extrapolation:
    Improved wavefunction reuse through dual PAW basis 

Occupation numbers: Fermi-Dirac: width=0.1000 eV
 

Eigensolver
   Davidson(niter=3) 

Densities:
  Coarse grid: 40*40*140 grid
  Fine grid: 80*80*280 grid
  Total Charge: 0.000000 

Density mixing:
  Method: separate
  Backend: pulay
  Linear mixing parameter: 0.05
  Mixing with 5 old densities
  Damping of long wave oscillations: 50 

Hamiltonian:
  XC and Coulomb potentials evaluated on a 80*80*280 grid
  Using the RPBE Exchange-Correlation functional
  External potential:
    NoExternalPotential
 

XC parameters: RPBE with 2 nearest neighbor stencil

Memory estimate:
  Process memory now: 194.25 MiB
  Calculator: 560.79 MiB
    Density: 47.40 MiB
      Arrays: 14.92 MiB
      Localized functions: 26.74 MiB
      Mixer: 5.74 MiB
    Hamiltonian: 10.59 MiB
      Arrays: 9.75 MiB
      XC: 0.00 MiB
      Poisson: 0.00 MiB
      vbar: 0.84 MiB
    Wavefunctions: 502.80 MiB
      Arrays psit_nG: 227.67 MiB
      Eigensolver: 260.72 MiB
      Projections: 1.87 MiB
      Projectors: 3.74 MiB
      PW-descriptor: 8.80 MiB

Total number of cores used: 24
Parallelization over k-points: 8
Domain decomposition: 1 x 1 x 3
                      2 x 2 x 6 (xc only)

Number of atoms: 46
Number of atomic orbitals: 547
Number of bands in calculation: 447
Number of valence electrons: 737
Bands to converge: occupied

... initialized

Initializing position-dependent things.

Density initialized from atomic densities
Creating initial wave functions:
  447 bands from LCAO basis set

                                             
                                             
                                             
                                             
                                             
                                             
                               Ag            
                  Ir    Pt                   
           O Pt   PRu     Pt    Pd           
                         Pt                  
       Pt    APt    PAg    Ru                
                                             
        Ag     Ag    PPt    Pt     Ag        
                       Pd     Pt             
                Ru                           
           Ag    PAg    PPt    Pd            
                                             
            Ir     Pt    PAg    Pd           
       Pd     Pd     Pt                      
             Pd     Ag     Ag                
        Pd     Pt     Ag                     
                                             
                                             
                                             
                                             
                                             

Positions:
   0 Pd     0.000000    1.637674   10.000000    ( 0.0000,  0.0000,  0.0000)
   1 Pt     2.836535    1.637674   10.000000    ( 0.0000,  0.0000,  0.0000)
   2 Ag     5.673071    1.637674   10.000000    ( 0.0000,  0.0000,  0.0000)
   3 Pd     1.418268    4.094186   10.000000    ( 0.0000,  0.0000,  0.0000)
   4 Ag     4.254803    4.094186   10.000000    ( 0.0000,  0.0000,  0.0000)
   5 Ag     7.091338    4.094186   10.000000    ( 0.0000,  0.0000,  0.0000)
   6 Ag     2.836535    6.550698   10.000000    ( 0.0000,  0.0000,  0.0000)
   7 Pd     5.673071    6.550698   10.000000    ( 0.0000,  0.0000,  0.0000)
   8 Pd     8.509606    6.550698   10.000000    ( 0.0000,  0.0000,  0.0000)
   9 Pd     0.000000    0.000000   12.317643    ( 0.0000,  0.0000,  0.0000)
  10 Pd     2.836535    0.000000   12.317643    ( 0.0000,  0.0000,  0.0000)
  11 Pt     5.673071    0.000000   12.317643    ( 0.0000,  0.0000,  0.0000)
  12 Ir     1.418268    2.456512   12.317643    ( 0.0000,  0.0000,  0.0000)
  13 Pt     4.254803    2.456512   12.317643    ( 0.0000,  0.0000,  0.0000)
  14 Ag     7.091338    2.456512   12.317643    ( 0.0000,  0.0000,  0.0000)
  15 Pt     2.836535    4.913023   12.317643    ( 0.0000,  0.0000,  0.0000)
  16 Pd     5.673071    4.913023   12.317643    ( 0.0000,  0.0000,  0.0000)
  17 Pd     8.509606    4.913023   12.317643    ( 0.0000,  0.0000,  0.0000)
  18 Ag     1.389069    0.761593   14.611341    ( 0.0000,  0.0000,  0.0000)
  19 Ag     4.222794    0.791242   14.654783    ( 0.0000,  0.0000,  0.0000)
  20 Pt     7.073540    0.805567   14.664382    ( 0.0000,  0.0000,  0.0000)
  21 Ru     2.749307    3.307485   14.388094    ( 0.0000,  0.0000,  0.0000)
  22 Pd     5.607707    3.222150   14.639274    ( 0.0000,  0.0000,  0.0000)
  23 Pt     8.524948    3.259735   14.660441    ( 0.0000,  0.0000,  0.0000)
  24 Pt     4.174602    5.656474   14.614052    ( 0.0000,  0.0000,  0.0000)
  25 Pt     7.045997    5.607689   14.670733    ( 0.0000,  0.0000,  0.0000)
  26 Ag     9.879948    5.755300   14.695121    ( 0.0000,  0.0000,  0.0000)
  27 Ag     0.017308    1.615647   16.996175    ( 0.0000,  0.0000,  0.0000)
  28 Ag     2.800366    1.626414   16.880782    ( 0.0000,  0.0000,  0.0000)
  29 Pt     5.672197    1.642004   17.012334    ( 0.0000,  0.0000,  0.0000)
  30 Ag     1.343075    4.094522   17.005234    ( 0.0000,  0.0000,  0.0000)
  31 Pd     4.166190    4.037462   16.812922    ( 0.0000,  0.0000,  0.0000)
  32 Ru     6.951751    4.066498   16.866913    ( 0.0000,  0.0000,  0.0000)
  33 Pd     2.796571    6.569134   17.026379    ( 0.0000,  0.0000,  0.0000)
  34 Pt     5.661494    6.420339   16.911143    ( 0.0000,  0.0000,  0.0000)
  35 Pd     8.433103    6.505308   17.066448    ( 0.0000,  0.0000,  0.0000)
  36 Pt     0.070793   -0.041697   19.273531    ( 0.0000,  0.0000,  0.0000)
  37 Pt     2.805116    0.091543   19.247171    ( 0.0000,  0.0000,  0.0000)
  38 Ag     5.703172    0.006706   19.481189    ( 0.0000,  0.0000,  0.0000)
  39 Pt     1.550859    2.466264   19.402929    ( 0.0000,  0.0000,  0.0000)
  40 Ru     4.237408    2.607644   19.096110    ( 0.0000,  0.0000,  0.0000)
  41 Pt     7.106116    2.494030   19.217545    ( 0.0000,  0.0000,  0.0000)
  42 Ir     3.043460    4.824551   19.141209    ( 0.0000,  0.0000,  0.0000)
  43 Pt     5.709443    4.866601   19.167406    ( 0.0000,  0.0000,  0.0000)
  44 Ag     8.567230    4.895418   19.518661    ( 0.0000,  0.0000,  0.0000)
  45 O      1.475589    0.838703   20.818661    ( 0.0000,  0.0000,  0.0000)

Unit cell:
           periodic     x           y           z      points  spacing
  1. axis:    yes    8.509606    0.000000    0.000000    40     0.1842
  2. axis:    yes    4.254803    7.369535    0.000000    40     0.1842
  3. axis:    no     0.000000    0.000000   29.270571   140     0.2091

  Lengths:   8.509606   8.509606  29.270571
  Angles:   90.000000  90.000000  60.000000

Effective grid spacing dv^(1/3) = 0.2016

     iter     time        total  log10-change:
                         energy  eigst   dens
iter:   1 21:58:10  -245.302633
iter:   2 21:59:08  -351.033748  -1.43  -1.22
iter:   3 22:00:05  -219.185630  -1.93  -1.09
iter:   4 22:01:03  -200.666779  -2.47  -1.35
iter:   5 22:02:01  -196.632701  -2.84  -1.48
iter:   6 22:02:59  -194.300795  -3.03  -1.56
iter:   7 22:03:57  -200.481440  -2.52  -1.63
iter:   8 22:04:55  -192.205275  -2.66  -1.65
iter:   9 22:05:52  -190.773656  -3.43  -1.97
iter:  10 22:06:51  -190.748869  -3.82  -2.08
iter:  11 22:07:49  -190.824687c -4.05  -2.16
iter:  12 22:08:48  -190.665172c -4.05  -2.15
iter:  13 22:09:46  -190.785722c -4.18  -2.26
iter:  14 22:10:45  -190.459847c -3.96  -2.22
iter:  15 22:11:43  -190.441691c -4.23  -2.44
iter:  16 22:12:41  -190.324844c -4.48  -2.47
iter:  17 22:13:40  -190.304389c -4.72  -2.70
iter:  18 22:14:38  -190.353178c -4.55  -2.77
iter:  19 22:15:36  -190.280714c -5.34  -2.70
iter:  20 22:16:34  -190.299232c -5.40  -2.92
iter:  21 22:17:32  -190.273442c -5.66  -2.89
iter:  22 22:18:31  -190.288454c -5.38  -3.04
iter:  23 22:19:29  -190.287643c -6.10  -3.04
iter:  24 22:20:28  -190.275396c -5.45  -3.07
iter:  25 22:21:25  -190.271476c -5.73  -3.29
iter:  26 22:22:23  -190.273024c -6.47  -3.38
iter:  27 22:23:21  -190.270858c -6.29  -3.51
iter:  28 22:24:19  -190.276163c -6.28  -3.53
iter:  29 22:25:17  -190.273249c -7.24  -3.69
iter:  30 22:26:16  -190.272272c -7.36  -3.89
iter:  31 22:27:14  -190.274115c -7.04  -3.96
iter:  32 22:28:13  -190.272646c -7.00  -3.92
iter:  33 22:29:11  -190.272758c -7.71c -4.10c

Converged after 33 iterations.

Dipole moment: (-6.792505, 6.673645, -0.396514) |e|*Ang

Energy contributions relative to reference atoms: (reference = -12373358.334139)

Kinetic:       -230.162484
Potential:     +104.636705
External:        +0.000000
XC:             -56.946139
Entropy (-ST):   -1.897710
Local:           -6.851984
--------------------------
Free energy:   -191.221613
Extrapolated:  -190.272758

Showing only first 2 kpts
 Kpt  Band  Eigenvalues  Occupancy
  0   366      0.72419    1.04381
  0   367      0.74800    0.92494
  0   368      0.76813    0.82593
  0   369      0.80273    0.66463

  1   366      0.59641    1.59329
  1   367      0.62151    1.50594
  1   368      0.64593    1.40962
  1   369      0.69129    1.20538


Fermi level: 0.73296

No gap

Forces in eV/Ang:
  0 Pd    0.70208    0.06061    0.09667
  1 Pt   -0.58329   -0.14836    0.55688
  2 Ag   -0.10202   -0.07389   -0.55710
  3 Pd   -0.03594   -0.33506    0.22071
  4 Ag   -0.00801    0.02024   -0.56865
  5 Ag    0.13668    0.15540   -0.49286
  6 Ag    0.03576   -0.00520   -0.46803
  7 Pd    0.23241    0.35135    0.06941
  8 Pd   -0.12401    0.14256    0.20198
  9 Pd   -0.00061    0.09525   -0.00982
 10 Pd    0.00161   -0.03368   -0.09789
 11 Pt   -0.03446   -0.13563    0.12653
 12 Ir    0.69080    0.16443   -0.00036
 13 Pt   -0.66076   -0.18396    0.25313
 14 Ag    0.10725   -0.02492    0.08770
 15 Pt   -0.28919    0.00798    0.15141
 16 Pd   -0.07433    0.25369    0.14869
 17 Pd    0.15343    0.00964    0.16818
 18 Ag   -0.01083    0.02536    0.00536
 19 Ag   -0.01331   -0.01569    0.01461
 20 Pt   -0.07089   -0.08493   -0.01983
 21 Ru    0.01615    0.00780   -0.02509
 22 Pd   -0.03722   -0.01749    0.01158
 23 Pt    0.01184    0.00019    0.00431
 24 Pt   -0.02666   -0.00587    0.01272
 25 Pt    0.02136    0.00582    0.00912
 26 Ag   -0.02434   -0.05715   -0.03661
 27 Ag   -0.07941   -0.02263   -0.13953
 28 Ag   -0.00847   -0.02454   -0.08172
 29 Pt   -0.04216   -0.02308    0.02976
 30 Ag   -0.00213   -0.10021    0.16539
 31 Pd    0.00631   -0.04240    0.00151
 32 Ru    0.06473   -0.05662    0.03917
 33 Pd    0.19628    0.11363    0.21914
 34 Pt   -0.04487    0.02319   -0.09198
 35 Pd   -0.19017    0.11223    0.22050
 36 Pt   -0.30898   -0.20207    0.71965
 37 Pt    0.49666   -0.39256    0.56906
 38 Ag    0.01169    0.00435   -0.01472
 39 Pt    0.01296    0.57131    0.82402
 40 Ru    0.42776    0.23565   -0.01269
 41 Pt   -0.23498    0.09110   -0.09607
 42 Ir   -0.14453   -0.14248   -0.09950
 43 Pt    0.01146   -0.31617   -0.03252
 44 Ag    0.00422    0.04810   -0.00451
 45 O    -0.16638   -0.05025   -1.87998

System changes: positions 

Initializing position-dependent things.

Density initialized from wave functions
                                             
                                             
                                             
                                             
                                             
                                             
                               Ag            
                  Ir    Pt                   
           O Pt   PRu     Pt    Pd           
                         Pt                  
       Pt    APt    PAg    Ru                
                                             
        Ag     Ag    PPt    Pt     Ag        
                       Pd     Pt             
                Ru                           
           Ag    PAg    PPt    Pd            
                                             
            Ir     Pt    PAg    Pd           
       Pd     Pd     Pt                      
             Pd     Ag     Ag                
        Pd     Pt     Ag                     
                                             
                                             
                                             
                                             
                                             

Positions:
   0 Pd     0.000000    1.637674   10.000000    ( 0.0000,  0.0000,  0.0000)
   1 Pt     2.836535    1.637674   10.000000    ( 0.0000,  0.0000,  0.0000)
   2 Ag     5.673071    1.637674   10.000000    ( 0.0000,  0.0000,  0.0000)
   3 Pd     1.418268    4.094186   10.000000    ( 0.0000,  0.0000,  0.0000)
   4 Ag     4.254803    4.094186   10.000000    ( 0.0000,  0.0000,  0.0000)
   5 Ag     7.091338    4.094186   10.000000    ( 0.0000,  0.0000,  0.0000)
   6 Ag     2.836535    6.550698   10.000000    ( 0.0000,  0.0000,  0.0000)
   7 Pd     5.673071    6.550698   10.000000    ( 0.0000,  0.0000,  0.0000)
   8 Pd     8.509606    6.550698   10.000000    ( 0.0000,  0.0000,  0.0000)
   9 Pd     0.000000    0.000000   12.317643    ( 0.0000,  0.0000,  0.0000)
  10 Pd     2.836535    0.000000   12.317643    ( 0.0000,  0.0000,  0.0000)
  11 Pt     5.673071    0.000000   12.317643    ( 0.0000,  0.0000,  0.0000)
  12 Ir     1.418268    2.456512   12.317643    ( 0.0000,  0.0000,  0.0000)
  13 Pt     4.254803    2.456512   12.317643    ( 0.0000,  0.0000,  0.0000)
  14 Ag     7.091338    2.456512   12.317643    ( 0.0000,  0.0000,  0.0000)
  15 Pt     2.836535    4.913023   12.317643    ( 0.0000,  0.0000,  0.0000)
  16 Pd     5.673071    4.913023   12.317643    ( 0.0000,  0.0000,  0.0000)
  17 Pd     8.509606    4.913023   12.317643    ( 0.0000,  0.0000,  0.0000)
  18 Ag     1.388914    0.761955   14.611418    ( 0.0000,  0.0000,  0.0000)
  19 Ag     4.222604    0.791017   14.654992    ( 0.0000,  0.0000,  0.0000)
  20 Pt     7.072527    0.804354   14.664099    ( 0.0000,  0.0000,  0.0000)
  21 Ru     2.749538    3.307597   14.387736    ( 0.0000,  0.0000,  0.0000)
  22 Pd     5.607176    3.221900   14.639439    ( 0.0000,  0.0000,  0.0000)
  23 Pt     8.525117    3.259738   14.660503    ( 0.0000,  0.0000,  0.0000)
  24 Pt     4.174221    5.656390   14.614233    ( 0.0000,  0.0000,  0.0000)
  25 Pt     7.046302    5.607772   14.670863    ( 0.0000,  0.0000,  0.0000)
  26 Ag     9.879600    5.754484   14.694598    ( 0.0000,  0.0000,  0.0000)
  27 Ag     0.016174    1.615324   16.994182    ( 0.0000,  0.0000,  0.0000)
  28 Ag     2.800245    1.626063   16.879614    ( 0.0000,  0.0000,  0.0000)
  29 Pt     5.671595    1.641674   17.012759    ( 0.0000,  0.0000,  0.0000)
  30 Ag     1.343044    4.093091   17.007597    ( 0.0000,  0.0000,  0.0000)
  31 Pd     4.166281    4.036856   16.812943    ( 0.0000,  0.0000,  0.0000)
  32 Ru     6.952676    4.065689   16.867473    ( 0.0000,  0.0000,  0.0000)
  33 Pd     2.799374    6.570758   17.029510    ( 0.0000,  0.0000,  0.0000)
  34 Pt     5.660853    6.420670   16.909829    ( 0.0000,  0.0000,  0.0000)
  35 Pd     8.430386    6.506911   17.069598    ( 0.0000,  0.0000,  0.0000)
  36 Pt     0.066379   -0.044584   19.283811    ( 0.0000,  0.0000,  0.0000)
  37 Pt     2.812211    0.085935   19.255301    ( 0.0000,  0.0000,  0.0000)
  38 Ag     5.703339    0.006768   19.480979    ( 0.0000,  0.0000,  0.0000)
  39 Pt     1.551044    2.474425   19.414701    ( 0.0000,  0.0000,  0.0000)
  40 Ru     4.243519    2.611010   19.095929    ( 0.0000,  0.0000,  0.0000)
  41 Pt     7.102759    2.495331   19.216173    ( 0.0000,  0.0000,  0.0000)
  42 Ir     3.041395    4.822515   19.139787    ( 0.0000,  0.0000,  0.0000)
  43 Pt     5.709607    4.862084   19.166942    ( 0.0000,  0.0000,  0.0000)
  44 Ag     8.567291    4.896105   19.518596    ( 0.0000,  0.0000,  0.0000)
  45 O      1.473212    0.837985   20.791804    ( 0.0000,  0.0000,  0.0000)

Unit cell:
           periodic     x           y           z      points  spacing
  1. axis:    yes    8.509606    0.000000    0.000000    40     0.1842
  2. axis:    yes    4.254803    7.369535    0.000000    40     0.1842
  3. axis:    no     0.000000    0.000000   29.270571   140     0.2091

  Lengths:   8.509606   8.509606  29.270571
  Angles:   90.000000  90.000000  60.000000

Effective grid spacing dv^(1/3) = 0.2016

     iter     time        total  log10-change:
                         energy  eigst   dens
iter:   1 22:30:29  -190.490225  -4.24
iter:   2 22:31:27  -190.653974  -4.26  -2.67
iter:   3 22:32:26  -190.524173c -4.56  -2.58
iter:   4 22:33:24  -190.601771c -4.86  -2.56
iter:   5 22:34:22  -190.381730c -5.58  -2.57
iter:   6 22:35:20  -190.365889c -6.29  -3.31
iter:   7 22:36:18  -190.368587c -6.92  -3.48
iter:   8 22:37:16  -190.366514c -7.16  -3.72
iter:   9 22:38:14  -190.364760c -6.84  -3.72
iter:  10 22:39:12  -190.366758c -6.62  -3.52
iter:  11 22:40:10  -190.366788c -7.47c -4.11c

Converged after 11 iterations.

Dipole moment: (-6.266224, 7.044677, -0.381573) |e|*Ang

Energy contributions relative to reference atoms: (reference = -12373358.334139)

Kinetic:       -229.729739
Potential:     +104.342552
External:        +0.000000
XC:             -57.070199
Entropy (-ST):   -1.892578
Local:           -6.963114
--------------------------
Free energy:   -191.313077
Extrapolated:  -190.366788

Showing only first 2 kpts
 Kpt  Band  Eigenvalues  Occupancy
  0   366      0.73075    1.05166
  0   367      0.75640    0.92363
  0   368      0.77639    0.82529
  0   369      0.81068    0.66546

  1   366      0.60628    1.58763
  1   367      0.62900    1.50832
  1   368      0.65049    1.42437
  1   369      0.69977    1.20369


Fermi level: 0.74109

No gap

Forces in eV/Ang:
  0 Pd    0.70601    0.06007    0.10411
  1 Pt   -0.59440   -0.15745    0.56031
  2 Ag   -0.09876   -0.07454   -0.55478
  3 Pd   -0.04201   -0.33173    0.22030
  4 Ag   -0.00466    0.02658   -0.56667
  5 Ag    0.13839    0.15947   -0.48919
  6 Ag    0.03606   -0.00672   -0.46759
  7 Pd    0.23456    0.35248    0.07427
  8 Pd   -0.12654    0.13696    0.20231
  9 Pd    0.00494    0.09532   -0.01491
 10 Pd   -0.00114   -0.04185   -0.10227
 11 Pt   -0.03907   -0.13982    0.13144
 12 Ir    0.68225    0.15848   -0.01015
 13 Pt   -0.65446   -0.18593    0.25511
 14 Ag    0.10904   -0.02133    0.08998
 15 Pt   -0.28729    0.01716    0.15192
 16 Pd   -0.06557    0.25781    0.15347
 17 Pd    0.14266    0.01273    0.16899
 18 Ag   -0.00958    0.02468    0.00852
 19 Ag   -0.00638   -0.02426    0.01679
 20 Pt   -0.07638   -0.08114   -0.01743
 21 Ru    0.01510    0.01015   -0.00509
 22 Pd   -0.02655   -0.01306    0.00478
 23 Pt    0.01057    0.01118    0.01525
 24 Pt   -0.03156   -0.01396    0.00969
 25 Pt    0.02746   -0.00383   -0.00258
 26 Ag   -0.02449   -0.05188   -0.00986
 27 Ag   -0.03327   -0.04128   -0.06773
 28 Ag   -0.04405   -0.02972    0.00132
 29 Pt   -0.04817   -0.05241   -0.00662
 30 Ag   -0.00352   -0.10990    0.13620
 31 Pd   -0.02883   -0.03632   -0.02485
 32 Ru    0.07811   -0.03870    0.00716
 33 Pd    0.17570    0.09781    0.19102
 34 Pt   -0.04086    0.06658   -0.02328
 35 Pd   -0.16888    0.10188    0.17739
 36 Pt   -0.28166   -0.20083    0.54270
 37 Pt    0.44753   -0.30399    0.39837
 38 Ag    0.01577    0.00524   -0.02449
 39 Pt    0.07190    0.53456    0.63299
 40 Ru    0.33239    0.16282   -0.03502
 41 Pt   -0.16233    0.04503   -0.10419
 42 Ir   -0.12017   -0.12018   -0.09533
 43 Pt   -0.00320   -0.20281   -0.05469
 44 Ag   -0.00417    0.04452   -0.01475
 45 O    -0.18756   -0.07204   -1.77413

System changes: positions 

Initializing position-dependent things.

Density initialized from wave functions
                                             
                                             
                                             
                                             
                                             
                                             
                               Ag            
                  Ir    Pt                   
           O Pt   PRu    PPt    Pd           
                     Ag                      
       Pt    APt    Pd     Ru                
        Ag            Pt                     
               Ag    Pt     Pt     Ag        
                       Pd     Pt             
                Ru                           
           Ag    PAg    PPt    Pd            
                                             
            Ir     Pt    PAg    Pd           
       Pd    PPd    APt    Ag                
                                             
        Pd     Pt     Ag                     
                                             
                                             
                                             
                                             
                                             

Positions:
   0 Pd     0.000000    1.637674   10.000000    ( 0.0000,  0.0000,  0.0000)
   1 Pt     2.836535    1.637674   10.000000    ( 0.0000,  0.0000,  0.0000)
   2 Ag     5.673071    1.637674   10.000000    ( 0.0000,  0.0000,  0.0000)
   3 Pd     1.418268    4.094186   10.000000    ( 0.0000,  0.0000,  0.0000)
   4 Ag     4.254803    4.094186   10.000000    ( 0.0000,  0.0000,  0.0000)
   5 Ag     7.091338    4.094186   10.000000    ( 0.0000,  0.0000,  0.0000)
   6 Ag     2.836535    6.550698   10.000000    ( 0.0000,  0.0000,  0.0000)
   7 Pd     5.673071    6.550698   10.000000    ( 0.0000,  0.0000,  0.0000)
   8 Pd     8.509606    6.550698   10.000000    ( 0.0000,  0.0000,  0.0000)
   9 Pd     0.000000    0.000000   12.317643    ( 0.0000,  0.0000,  0.0000)
  10 Pd     2.836535    0.000000   12.317643    ( 0.0000,  0.0000,  0.0000)
  11 Pt     5.673071    0.000000   12.317643    ( 0.0000,  0.0000,  0.0000)
  12 Ir     1.418268    2.456512   12.317643    ( 0.0000,  0.0000,  0.0000)
  13 Pt     4.254803    2.456512   12.317643    ( 0.0000,  0.0000,  0.0000)
  14 Ag     7.091338    2.456512   12.317643    ( 0.0000,  0.0000,  0.0000)
  15 Pt     2.836535    4.913023   12.317643    ( 0.0000,  0.0000,  0.0000)
  16 Pd     5.673071    4.913023   12.317643    ( 0.0000,  0.0000,  0.0000)
  17 Pd     8.509606    4.913023   12.317643    ( 0.0000,  0.0000,  0.0000)
  18 Ag     1.387833    0.764712   14.612333    ( 0.0000,  0.0000,  0.0000)
  19 Ag     4.221817    0.788408   14.656839    ( 0.0000,  0.0000,  0.0000)
  20 Pt     7.064079    0.795274   14.662132    ( 0.0000,  0.0000,  0.0000)
  21 Ru     2.751231    3.308702   14.386952    ( 0.0000,  0.0000,  0.0000)
  22 Pd     5.604102    3.220398   14.640046    ( 0.0000,  0.0000,  0.0000)
  23 Pt     8.526307    3.260864   14.662082    ( 0.0000,  0.0000,  0.0000)
  24 Pt     4.170758    5.654923   14.615346    ( 0.0000,  0.0000,  0.0000)
  25 Pt     7.049295    5.607450   14.670703    ( 0.0000,  0.0000,  0.0000)
  26 Ag     9.876874    5.748648   14.693210    ( 0.0000,  0.0000,  0.0000)
  27 Ag     0.011966    1.610928   16.985857    ( 0.0000,  0.0000,  0.0000)
  28 Ag     2.795725    1.622809   16.878860    ( 0.0000,  0.0000,  0.0000)
  29 Pt     5.666294    1.636155   17.012417    ( 0.0000,  0.0000,  0.0000)
  30 Ag     1.342668    4.080954   17.023086    ( 0.0000,  0.0000,  0.0000)
  31 Pd     4.163451    4.032744   16.810462    ( 0.0000,  0.0000,  0.0000)
  32 Ru     6.961231    4.061184   16.868619    ( 0.0000,  0.0000,  0.0000)
  33 Pd     2.819170    6.581826   17.051094    ( 0.0000,  0.0000,  0.0000)
  34 Pt     5.656257    6.427615   16.906490    ( 0.0000,  0.0000,  0.0000)
  35 Pd     8.411343    6.518372   17.089826    ( 0.0000,  0.0000,  0.0000)
  36 Pt     0.034707   -0.066968   19.346188    ( 0.0000,  0.0000,  0.0000)
  37 Pt     2.862597    0.051110   19.301532    ( 0.0000,  0.0000,  0.0000)
  38 Ag     5.705051    0.007342   19.478357    ( 0.0000,  0.0000,  0.0000)
  39 Pt     1.558413    2.534371   19.487288    ( 0.0000,  0.0000,  0.0000)
  40 Ru     4.281582    2.629939   19.092271    ( 0.0000,  0.0000,  0.0000)
  41 Pt     7.083887    2.500848   19.204655    ( 0.0000,  0.0000,  0.0000)
  42 Ir     3.027744    4.808885   19.129123    ( 0.0000,  0.0000,  0.0000)
  43 Pt     5.709410    4.838260   19.161091    ( 0.0000,  0.0000,  0.0000)
  44 Ag     8.566918    4.901102   19.517065    ( 0.0000,  0.0000,  0.0000)
  45 O      1.452550    0.830197   20.593026    ( 0.0000,  0.0000,  0.0000)

Unit cell:
           periodic     x           y           z      points  spacing
  1. axis:    yes    8.509606    0.000000    0.000000    40     0.1842
  2. axis:    yes    4.254803    7.369535    0.000000    40     0.1842
  3. axis:    no     0.000000    0.000000   29.270571   140     0.2091

  Lengths:   8.509606   8.509606  29.270571
  Angles:   90.000000  90.000000  60.000000

Effective grid spacing dv^(1/3) = 0.2016

     iter     time        total  log10-change:
                         energy  eigst   dens
iter:   1 22:41:29  -200.035621  -2.72
iter:   2 22:42:28  -279.666865  -2.20  -1.77
iter:   3 22:43:28  -202.364622  -2.33  -1.33
iter:   4 22:44:28  -192.866640  -3.36  -1.78
iter:   5 22:45:28  -191.825456  -4.02  -2.16
iter:   6 22:46:28  -191.001181  -4.46  -2.26
iter:   7 22:47:28  -190.812466  -4.56  -2.56
iter:   8 22:48:28  -190.763721c -5.03  -2.74
iter:   9 22:49:28  -190.759050c -5.01  -2.86
iter:  10 22:50:28  -190.740219c -5.19  -2.95
iter:  11 22:51:29  -190.803336c -5.46  -2.95
iter:  12 22:52:29  -190.728209c -5.29  -2.80
iter:  13 22:53:29  -190.724557c -5.74  -3.25
iter:  14 22:54:29  -190.723273c -6.30  -3.43
iter:  15 22:55:29  -190.725517c -6.20  -3.50
iter:  16 22:56:29  -190.721815c -6.48  -3.63
iter:  17 22:57:29  -190.725686c -6.65  -3.63
iter:  18 22:58:29  -190.723585c -7.06  -3.72
iter:  19 22:59:29  -190.725758c -7.40c -3.77
iter:  20 23:00:30  -190.723041c -7.02  -3.70
iter:  21 23:01:30  -190.723977c -7.51c -3.82
iter:  22 23:02:30  -190.721822c -7.19  -3.98
iter:  23 23:03:29  -190.724125c -7.53c -3.89
iter:  24 23:04:29  -190.723041c -7.72c -4.11c

Converged after 24 iterations.

Dipole moment: (-2.714718, 9.593314, -0.298935) |e|*Ang

Energy contributions relative to reference atoms: (reference = -12373358.334139)

Kinetic:       -222.259391
Potential:      +97.821544
External:        +0.000000
XC:             -58.352963
Entropy (-ST):   -1.854465
Local:           -7.004999
--------------------------
Free energy:   -191.650274
Extrapolated:  -190.723041

Showing only first 2 kpts
 Kpt  Band  Eigenvalues  Occupancy
  0   366      0.76537    1.09084
  0   367      0.80115    0.91245
  0   368      0.81900    0.82477
  0   369      0.85208    0.67034

  1   366      0.65449    1.56862
  1   367      0.66439    1.53419
  1   368      0.68151    1.47026
  1   369      0.74340    1.19831


Fermi level: 0.78359

No gap

Forces in eV/Ang:
  0 Pd    0.71638    0.06128    0.10842
  1 Pt   -0.60570   -0.17153    0.55958
  2 Ag   -0.09944   -0.07398   -0.54842
  3 Pd   -0.04807   -0.32828    0.22384
  4 Ag   -0.00104    0.03112   -0.56049
  5 Ag    0.14050    0.16600   -0.48357
  6 Ag    0.03788   -0.00860   -0.46181
  7 Pd    0.24043    0.35699    0.07953
  8 Pd   -0.13262    0.13382    0.20353
  9 Pd    0.01016    0.09235   -0.02164
 10 Pd   -0.00565   -0.04784   -0.10936
 11 Pt   -0.04597   -0.14201    0.12046
 12 Ir    0.67545    0.15989   -0.02117
 13 Pt   -0.64505   -0.19050    0.24710
 14 Ag    0.10948   -0.01889    0.10004
 15 Pt   -0.27708    0.03198    0.13711
 16 Pd   -0.05918    0.25829    0.14502
 17 Pd    0.12649    0.00759    0.15317
 18 Ag   -0.02472   -0.00044   -0.02955
 19 Ag   -0.01958   -0.03345    0.00642
 20 Pt   -0.03337   -0.03949   -0.01939
 21 Ru    0.01669   -0.02652   -0.00999
 22 Pd    0.01569   -0.01674    0.00060
 23 Pt   -0.00914   -0.00591    0.01606
 24 Pt   -0.00518    0.01087    0.01630
 25 Pt   -0.02304   -0.00378    0.01380
 26 Ag   -0.01650   -0.01549    0.10683
 27 Ag   -0.02933   -0.06378    0.12031
 28 Ag   -0.02729   -0.01963    0.19298
 29 Pt   -0.02971   -0.04876   -0.06660
 30 Ag   -0.05618    0.04820   -0.00239
 31 Pd    0.00010    0.00047   -0.03379
 32 Ru   -0.02468    0.03800   -0.03461
 33 Pd   -0.02101   -0.04007    0.07604
 34 Pt   -0.01817   -0.06684    0.00596
 35 Pd    0.05282   -0.07114    0.05933
 36 Pt   -0.25918   -0.21346   -0.14975
 37 Pt    0.27514   -0.11136   -0.17874
 38 Ag    0.01056   -0.00434    0.00337
 39 Pt    0.22285    0.60807   -0.10365
 40 Ru    0.21978   -0.06344   -0.00491
 41 Pt   -0.04690   -0.04984   -0.00402
 42 Ir   -0.04080   -0.04750    0.07905
 43 Pt   -0.00324    0.07524   -0.08831
 44 Ag   -0.01076    0.05537    0.00625
 45 O    -0.26963   -0.24258   -0.01626

System changes: positions 

Initializing position-dependent things.

Density initialized from wave functions
                                             
                                             
                                             
                                             
                                             
                                             
                               Ag            
                  Ir    Pt                   
           O Pt   PdRu   PPt    Pd           
                     Ag                      
       Pt    APt    Pd     Ru                
        Ag            Pt                     
               Ag    Pt     Pt     Ag        
                       Pd     Pt             
                Ru                           
           Ag    PAg    PPt    Pd            
                                             
            Ir     Pt    PAg    Pd           
       Pd    PPd    APt    Ag                
                                             
        Pd     Pt     Ag                     
                                             
                                             
                                             
                                             
                                             

Positions:
   0 Pd     0.000000    1.637674   10.000000    ( 0.0000,  0.0000,  0.0000)
   1 Pt     2.836535    1.637674   10.000000    ( 0.0000,  0.0000,  0.0000)
   2 Ag     5.673071    1.637674   10.000000    ( 0.0000,  0.0000,  0.0000)
   3 Pd     1.418268    4.094186   10.000000    ( 0.0000,  0.0000,  0.0000)
   4 Ag     4.254803    4.094186   10.000000    ( 0.0000,  0.0000,  0.0000)
   5 Ag     7.091338    4.094186   10.000000    ( 0.0000,  0.0000,  0.0000)
   6 Ag     2.836535    6.550698   10.000000    ( 0.0000,  0.0000,  0.0000)
   7 Pd     5.673071    6.550698   10.000000    ( 0.0000,  0.0000,  0.0000)
   8 Pd     8.509606    6.550698   10.000000    ( 0.0000,  0.0000,  0.0000)
   9 Pd     0.000000    0.000000   12.317643    ( 0.0000,  0.0000,  0.0000)
  10 Pd     2.836535    0.000000   12.317643    ( 0.0000,  0.0000,  0.0000)
  11 Pt     5.673071    0.000000   12.317643    ( 0.0000,  0.0000,  0.0000)
  12 Ir     1.418268    2.456512   12.317643    ( 0.0000,  0.0000,  0.0000)
  13 Pt     4.254803    2.456512   12.317643    ( 0.0000,  0.0000,  0.0000)
  14 Ag     7.091338    2.456512   12.317643    ( 0.0000,  0.0000,  0.0000)
  15 Pt     2.836535    4.913023   12.317643    ( 0.0000,  0.0000,  0.0000)
  16 Pd     5.673071    4.913023   12.317643    ( 0.0000,  0.0000,  0.0000)
  17 Pd     8.509606    4.913023   12.317643    ( 0.0000,  0.0000,  0.0000)
  18 Ag     1.387300    0.765054   14.611970    ( 0.0000,  0.0000,  0.0000)
  19 Ag     4.221391    0.787564   14.657169    ( 0.0000,  0.0000,  0.0000)
  20 Pt     7.062492    0.793489   14.661569    ( 0.0000,  0.0000,  0.0000)
  21 Ru     2.751713    3.308414   14.386650    ( 0.0000,  0.0000,  0.0000)
  22 Pd     5.603941    3.219931   14.640147    ( 0.0000,  0.0000,  0.0000)
  23 Pt     8.526315    3.260888   14.662514    ( 0.0000,  0.0000,  0.0000)
  24 Pt     4.170249    5.654928   14.615752    ( 0.0000,  0.0000,  0.0000)
  25 Pt     7.049292    5.607370   14.670928    ( 0.0000,  0.0000,  0.0000)
  26 Ag     9.876267    5.747652   14.694678    ( 0.0000,  0.0000,  0.0000)
  27 Ag     0.010866    1.609397   16.986565    ( 0.0000,  0.0000,  0.0000)
  28 Ag     2.794797    1.622096   16.881657    ( 0.0000,  0.0000,  0.0000)
  29 Pt     5.665164    1.634745   17.011393    ( 0.0000,  0.0000,  0.0000)
  30 Ag     1.341728    4.080210   17.025068    ( 0.0000,  0.0000,  0.0000)
  31 Pd     4.163172    4.032219   16.809667    ( 0.0000,  0.0000,  0.0000)
  32 Ru     6.961889    4.061181   16.868282    ( 0.0000,  0.0000,  0.0000)
  33 Pd     2.821381    6.582620   17.055093    ( 0.0000,  0.0000,  0.0000)
  34 Pt     5.655379    6.427333   16.906013    ( 0.0000,  0.0000,  0.0000)
  35 Pd     8.409732    6.518709   17.093421    ( 0.0000,  0.0000,  0.0000)
  36 Pt     0.026517   -0.073199   19.352068    ( 0.0000,  0.0000,  0.0000)
  37 Pt     2.873453    0.044743   19.304897    ( 0.0000,  0.0000,  0.0000)
  38 Ag     5.705427    0.007344   19.478100    ( 0.0000,  0.0000,  0.0000)
  39 Pt     1.562766    2.551712   19.495223    ( 0.0000,  0.0000,  0.0000)
  40 Ru     4.290100    2.631478   19.091779    ( 0.0000,  0.0000,  0.0000)
  41 Pt     7.080597    2.500851   19.203154    ( 0.0000,  0.0000,  0.0000)
  42 Ir     3.025317    4.806358   19.129026    ( 0.0000,  0.0000,  0.0000)
  43 Pt     5.709366    4.836202   19.158993    ( 0.0000,  0.0000,  0.0000)
  44 Ag     8.566717    4.902624   19.516993    ( 0.0000,  0.0000,  0.0000)
  45 O      1.445690    0.825396   20.567426    ( 0.0000,  0.0000,  0.0000)

Unit cell:
           periodic     x           y           z      points  spacing
  1. axis:    yes    8.509606    0.000000    0.000000    40     0.1842
  2. axis:    yes    4.254803    7.369535    0.000000    40     0.1842
  3. axis:    no     0.000000    0.000000   29.270571   140     0.2091

  Lengths:   8.509606   8.509606  29.270571
  Angles:   90.000000  90.000000  60.000000

Effective grid spacing dv^(1/3) = 0.2016

     iter     time        total  log10-change:
                         energy  eigst   dens
iter:   1 23:05:49  -191.882486  -4.09
iter:   2 23:06:49  -213.975177  -3.06  -2.21
iter:   3 23:07:49  -191.479043  -3.25  -1.60
iter:   4 23:08:49  -190.821947  -4.44  -2.38
iter:   5 23:09:49  -190.781027  -5.30  -2.86
iter:   6 23:10:49  -190.771977c -5.72  -3.11
iter:   7 23:11:48  -190.757437c -6.10  -3.21
iter:   8 23:12:48  -190.744567c -5.80  -3.37
iter:   9 23:13:48  -190.747741c -6.69  -3.42
iter:  10 23:14:49  -190.745316c -6.94  -3.73
iter:  11 23:15:49  -190.746142c -7.05  -3.77
iter:  12 23:16:50  -190.745008c -6.69  -3.81
iter:  13 23:17:51  -190.745817c -7.37  -4.07c
iter:  14 23:18:52  -190.744672c -7.69c -4.19c

Converged after 14 iterations.

Dipole moment: (-1.989097, 10.084506, -0.294300) |e|*Ang

Energy contributions relative to reference atoms: (reference = -12373358.334139)

Kinetic:       -220.392649
Potential:      +96.145935
External:        +0.000000
XC:             -58.555420
Entropy (-ST):   -1.852018
Local:           -7.016529
--------------------------
Free energy:   -191.670681
Extrapolated:  -190.744672

Showing only first 2 kpts
 Kpt  Band  Eigenvalues  Occupancy
  0   366      0.76650    1.08990
  0   367      0.80220    0.91186
  0   368      0.82002    0.82435
  0   369      0.85231    0.67348

  1   366      0.65477    1.57084
  1   367      0.66553    1.53345
  1   368      0.68319    1.46735
  1   369      0.74501    1.19504


Fermi level: 0.78453

No gap

Forces in eV/Ang:
  0 Pd    0.70677    0.06314    0.10304
  1 Pt   -0.60027   -0.16042    0.55789
  2 Ag   -0.09660   -0.07675   -0.55314
  3 Pd   -0.04679   -0.32611    0.21826
  4 Ag   -0.00390    0.03044   -0.56568
  5 Ag    0.14165    0.16416   -0.48694
  6 Ag    0.03634   -0.00648   -0.46843
  7 Pd    0.23617    0.35055    0.07122
  8 Pd   -0.12792    0.13185    0.19912
  9 Pd    0.01673    0.09544   -0.02090
 10 Pd   -0.00829   -0.04265   -0.10716
 11 Pt   -0.05122   -0.14865    0.12320
 12 Ir    0.67519    0.15947   -0.01248
 13 Pt   -0.65301   -0.19068    0.24926
 14 Ag    0.11619   -0.01867    0.10281
 15 Pt   -0.28225    0.02731    0.14317
 16 Pd   -0.06016    0.26047    0.15203
 17 Pd    0.13205    0.00595    0.15602
 18 Ag   -0.02194    0.00235   -0.03092
 19 Ag   -0.02662   -0.03043   -0.00237
 20 Pt   -0.02188   -0.02761   -0.02390
 21 Ru    0.00916   -0.02730   -0.01871
 22 Pd    0.02016   -0.01119   -0.00274
 23 Pt   -0.00635   -0.01127    0.00997
 24 Pt   -0.00110    0.00699   -0.00033
 25 Pt   -0.03127   -0.00512   -0.00132
 26 Ag   -0.01236   -0.01858    0.10216
 27 Ag    0.00105   -0.06703    0.14967
 28 Ag   -0.05355   -0.02360    0.22741
 29 Pt   -0.01784   -0.05735   -0.10914
 30 Ag   -0.06254    0.03701   -0.03808
 31 Pd   -0.01231    0.00257   -0.04495
 32 Ru   -0.01788    0.04442   -0.06430
 33 Pd   -0.04228   -0.05441    0.03699
 34 Pt   -0.01300   -0.03424    0.02942
 35 Pd    0.06630   -0.08934   -0.00327
 36 Pt   -0.28198   -0.20840   -0.26620
 37 Pt    0.21371   -0.02916   -0.20126
 38 Ag    0.02053    0.00304    0.02993
 39 Pt    0.23273    0.46607   -0.12289
 40 Ru    0.10869   -0.14046    0.02593
 41 Pt    0.04484   -0.07853    0.02991
 42 Ir    0.02163    0.00084    0.12296
 43 Pt    0.00661    0.17009   -0.06333
 44 Ag   -0.04120    0.03932    0.03180
 45 O    -0.19902   -0.16031    0.11669

System changes: positions 

Initializing position-dependent things.

Density initialized from wave functions
                                             
                                             
                                             
                                             
                                             
                                             
                               Ag            
                  Ir    Pt                   
           O Pt    PRu   PPt    Pd           
                     Ag                      
       Pt    APt    Pd     Ru                
        Ag            Pt                     
               Ag    Pt     Pt     Ag        
                       Pd     Pt             
                Ru                           
           Ag    PAg    PPt    Pd            
                                             
            Ir     Pt    PAg    Pd           
       Pd    PPd    APt    Ag                
                                             
        Pd     Pt     Ag                     
                                             
                                             
                                             
                                             
                                             

Positions:
   0 Pd     0.000000    1.637674   10.000000    ( 0.0000,  0.0000,  0.0000)
   1 Pt     2.836535    1.637674   10.000000    ( 0.0000,  0.0000,  0.0000)
   2 Ag     5.673071    1.637674   10.000000    ( 0.0000,  0.0000,  0.0000)
   3 Pd     1.418268    4.094186   10.000000    ( 0.0000,  0.0000,  0.0000)
   4 Ag     4.254803    4.094186   10.000000    ( 0.0000,  0.0000,  0.0000)
   5 Ag     7.091338    4.094186   10.000000    ( 0.0000,  0.0000,  0.0000)
   6 Ag     2.836535    6.550698   10.000000    ( 0.0000,  0.0000,  0.0000)
   7 Pd     5.673071    6.550698   10.000000    ( 0.0000,  0.0000,  0.0000)
   8 Pd     8.509606    6.550698   10.000000    ( 0.0000,  0.0000,  0.0000)
   9 Pd     0.000000    0.000000   12.317643    ( 0.0000,  0.0000,  0.0000)
  10 Pd     2.836535    0.000000   12.317643    ( 0.0000,  0.0000,  0.0000)
  11 Pt     5.673071    0.000000   12.317643    ( 0.0000,  0.0000,  0.0000)
  12 Ir     1.418268    2.456512   12.317643    ( 0.0000,  0.0000,  0.0000)
  13 Pt     4.254803    2.456512   12.317643    ( 0.0000,  0.0000,  0.0000)
  14 Ag     7.091338    2.456512   12.317643    ( 0.0000,  0.0000,  0.0000)
  15 Pt     2.836535    4.913023   12.317643    ( 0.0000,  0.0000,  0.0000)
  16 Pd     5.673071    4.913023   12.317643    ( 0.0000,  0.0000,  0.0000)
  17 Pd     8.509606    4.913023   12.317643    ( 0.0000,  0.0000,  0.0000)
  18 Ag     1.386062    0.765530   14.610659    ( 0.0000,  0.0000,  0.0000)
  19 Ag     4.220094    0.785770   14.657455    ( 0.0000,  0.0000,  0.0000)
  20 Pt     7.060083    0.790647   14.660217    ( 0.0000,  0.0000,  0.0000)
  21 Ru     2.752518    3.307296   14.385657    ( 0.0000,  0.0000,  0.0000)
  22 Pd     5.604285    3.219067   14.640209    ( 0.0000,  0.0000,  0.0000)
  23 Pt     8.526158    3.260535   14.663232    ( 0.0000,  0.0000,  0.0000)
  24 Pt     4.169659    5.655158   14.616188    ( 0.0000,  0.0000,  0.0000)
  25 Pt     7.048358    5.607173   14.671167    ( 0.0000,  0.0000,  0.0000)
  26 Ag     9.875223    5.745938   14.699136    ( 0.0000,  0.0000,  0.0000)
  27 Ag     0.009485    1.605801   16.991363    ( 0.0000,  0.0000,  0.0000)
  28 Ag     2.792300    1.620614   16.891042    ( 0.0000,  0.0000,  0.0000)
  29 Pt     5.663404    1.631597   17.007176    ( 0.0000,  0.0000,  0.0000)
  30 Ag     1.338860    4.080405   17.026340    ( 0.0000,  0.0000,  0.0000)
  31 Pd     4.162628    4.031659   16.807566    ( 0.0000,  0.0000,  0.0000)
  32 Ru     6.962107    4.062367   16.866144    ( 0.0000,  0.0000,  0.0000)
  33 Pd     2.822798    6.582043   17.060817    ( 0.0000,  0.0000,  0.0000)
  34 Pt     5.653985    6.425924   16.906037    ( 0.0000,  0.0000,  0.0000)
  35 Pd     8.409668    6.516580   17.097546    ( 0.0000,  0.0000,  0.0000)
  36 Pt     0.008849   -0.086323   19.351899    ( 0.0000,  0.0000,  0.0000)
  37 Pt     2.892178    0.036323   19.303847    ( 0.0000,  0.0000,  0.0000)
  38 Ag     5.706450    0.007446   19.478760    ( 0.0000,  0.0000,  0.0000)
  39 Pt     1.574156    2.584841   19.501802    ( 0.0000,  0.0000,  0.0000)
  40 Ru     4.303224    2.629438   19.092120    ( 0.0000,  0.0000,  0.0000)
  41 Pt     7.077941    2.498774   19.202376    ( 0.0000,  0.0000,  0.0000)
  42 Ir     3.023153    4.803464   19.132478    ( 0.0000,  0.0000,  0.0000)
  43 Pt     5.709592    4.838337   19.154930    ( 0.0000,  0.0000,  0.0000)
  44 Ag     8.565282    4.905479   19.517920    ( 0.0000,  0.0000,  0.0000)
  45 O      1.432370    0.815596   20.540802    ( 0.0000,  0.0000,  0.0000)

Unit cell:
           periodic     x           y           z      points  spacing
  1. axis:    yes    8.509606    0.000000    0.000000    40     0.1842
  2. axis:    yes    4.254803    7.369535    0.000000    40     0.1842
  3. axis:    no     0.000000    0.000000   29.270571   140     0.2091

  Lengths:   8.509606   8.509606  29.270571
  Angles:   90.000000  90.000000  60.000000

Effective grid spacing dv^(1/3) = 0.2016

     iter     time        total  log10-change:
                         energy  eigst   dens
iter:   1 23:20:13  -193.573496  -3.66
iter:   2 23:21:14  -237.572260  -2.68  -2.02
iter:   3 23:22:15  -192.830130  -2.93  -1.46
iter:   4 23:23:15  -191.003451  -4.01  -2.15
iter:   5 23:24:16  -190.815771  -4.79  -2.58
iter:   6 23:25:17  -190.798946c -5.43  -3.01
iter:   7 23:26:18  -190.788432c -5.71  -3.17
iter:   8 23:27:20  -190.782719c -5.58  -3.26
iter:   9 23:28:22  -190.785188c -6.06  -3.10
iter:  10 23:29:24  -190.776850c -6.25  -3.41
iter:  11 23:30:25  -190.776338c -6.39  -3.61
iter:  12 23:31:27  -190.776516c -6.64  -3.60
iter:  13 23:32:29  -190.776686c -6.88  -3.79
iter:  14 23:33:30  -190.776070c -7.32  -3.94
iter:  15 23:34:32  -190.775916c -6.90  -3.88
iter:  16 23:35:33  -190.779357c -7.35  -4.07c
iter:  17 23:36:35  -190.776779c -7.70c -3.89
iter:  18 23:37:37  -190.776506c -7.95c -4.29c

Converged after 18 iterations.

Dipole moment: (-0.833768, 10.831628, -0.299594) |e|*Ang

Energy contributions relative to reference atoms: (reference = -12373358.334139)

Kinetic:       -220.534562
Potential:      +96.287000
External:        +0.000000
XC:             -58.572835
Entropy (-ST):   -1.848296
Local:           -7.031960
--------------------------
Free energy:   -191.700654
Extrapolated:  -190.776506

Showing only first 2 kpts
 Kpt  Band  Eigenvalues  Occupancy
  0   366      0.76240    1.08833
  0   367      0.79880    0.90685
  0   368      0.81447    0.82989
  0   369      0.84688    0.67807

  1   366      0.65008    1.57178
  1   367      0.66334    1.52546
  1   368      0.68065    1.46003
  1   369      0.74110    1.19266


Fermi level: 0.78012

No gap

Forces in eV/Ang:
  0 Pd    0.70612    0.06162    0.08681
  1 Pt   -0.60100   -0.16248    0.54173
  2 Ag   -0.09507   -0.07958   -0.56681
  3 Pd   -0.04707   -0.32383    0.20714
  4 Ag   -0.00385    0.03277   -0.57756
  5 Ag    0.14283    0.16615   -0.50108
  6 Ag    0.03566   -0.00564   -0.48064
  7 Pd    0.23604    0.35014    0.05667
  8 Pd   -0.12483    0.13158    0.18612
  9 Pd    0.01574    0.09184   -0.02493
 10 Pd   -0.00924   -0.04289   -0.10694
 11 Pt   -0.05278   -0.15701    0.12470
 12 Ir    0.67571    0.15879   -0.01388
 13 Pt   -0.65147   -0.19425    0.24794
 14 Ag    0.11695   -0.01914    0.10464
 15 Pt   -0.28462    0.03225    0.14869
 16 Pd   -0.06225    0.26114    0.15328
 17 Pd    0.13460    0.00789    0.16074
 18 Ag   -0.01710    0.00625    0.00268
 19 Ag   -0.04280   -0.02121    0.01244
 20 Pt   -0.00386   -0.01710   -0.00333
 21 Ru    0.00652   -0.02510   -0.00587
 22 Pd    0.01422   -0.01457   -0.00792
 23 Pt   -0.00950   -0.02461    0.02079
 24 Pt   -0.00576    0.00471   -0.00307
 25 Pt   -0.03078   -0.00018   -0.00703
 26 Ag   -0.00641   -0.01470    0.08824
 27 Ag    0.00714   -0.04305    0.13440
 28 Ag   -0.04577   -0.01984    0.19122
 29 Pt   -0.00446   -0.03914   -0.08543
 30 Ag   -0.05122    0.03956   -0.05499
 31 Pd   -0.01861   -0.01190   -0.01281
 32 Ru   -0.02581    0.02582   -0.04392
 33 Pd   -0.09265   -0.08300   -0.00854
 34 Pt   -0.00172   -0.02600    0.00186
 35 Pd    0.10098   -0.10199   -0.04525
 36 Pt   -0.13286   -0.10396   -0.23070
 37 Pt   -0.03566    0.10832   -0.07264
 38 Ag    0.00881   -0.00471    0.05709
 39 Pt    0.19482    0.06756   -0.00877
 40 Ru    0.06809   -0.14188    0.03479
 41 Pt    0.06236   -0.05937    0.04820
 42 Ir    0.07831    0.03435    0.13126
 43 Pt    0.02636    0.15646   -0.03278
 44 Ag   -0.05078    0.04429    0.05603
 45 O    -0.10018   -0.00431    0.04815

System changes: positions 

Initializing position-dependent things.

Density initialized from wave functions
                                             
                                             
                                             
                                             
                                             
                                             
                               Ag            
                  Ir    Pt                   
           O Pt    PRu   PPt    Pd           
                     Ag                      
       Pt    APt    Pd     Ru                
        Ag            Pt                     
               Ag    Pt     Pt     Ag        
                       Pd     Pt             
                Ru                           
           Ag    PAg    PPt    Pd            
                                             
            Ir     Pt    PAg    Pd           
       Pd    PPd    APt    Ag                
                                             
        Pd     Pt     Ag                     
                                             
                                             
                                             
                                             
                                             

Positions:
   0 Pd     0.000000    1.637674   10.000000    ( 0.0000,  0.0000,  0.0000)
   1 Pt     2.836535    1.637674   10.000000    ( 0.0000,  0.0000,  0.0000)
   2 Ag     5.673071    1.637674   10.000000    ( 0.0000,  0.0000,  0.0000)
   3 Pd     1.418268    4.094186   10.000000    ( 0.0000,  0.0000,  0.0000)
   4 Ag     4.254803    4.094186   10.000000    ( 0.0000,  0.0000,  0.0000)
   5 Ag     7.091338    4.094186   10.000000    ( 0.0000,  0.0000,  0.0000)
   6 Ag     2.836535    6.550698   10.000000    ( 0.0000,  0.0000,  0.0000)
   7 Pd     5.673071    6.550698   10.000000    ( 0.0000,  0.0000,  0.0000)
   8 Pd     8.509606    6.550698   10.000000    ( 0.0000,  0.0000,  0.0000)
   9 Pd     0.000000    0.000000   12.317643    ( 0.0000,  0.0000,  0.0000)
  10 Pd     2.836535    0.000000   12.317643    ( 0.0000,  0.0000,  0.0000)
  11 Pt     5.673071    0.000000   12.317643    ( 0.0000,  0.0000,  0.0000)
  12 Ir     1.418268    2.456512   12.317643    ( 0.0000,  0.0000,  0.0000)
  13 Pt     4.254803    2.456512   12.317643    ( 0.0000,  0.0000,  0.0000)
  14 Ag     7.091338    2.456512   12.317643    ( 0.0000,  0.0000,  0.0000)
  15 Pt     2.836535    4.913023   12.317643    ( 0.0000,  0.0000,  0.0000)
  16 Pd     5.673071    4.913023   12.317643    ( 0.0000,  0.0000,  0.0000)
  17 Pd     8.509606    4.913023   12.317643    ( 0.0000,  0.0000,  0.0000)
  18 Ag     1.385161    0.765795   14.610129    ( 0.0000,  0.0000,  0.0000)
  19 Ag     4.218670    0.784590   14.657860    ( 0.0000,  0.0000,  0.0000)
  20 Pt     7.059062    0.789148   14.659625    ( 0.0000,  0.0000,  0.0000)
  21 Ru     2.753025    3.306253   14.385136    ( 0.0000,  0.0000,  0.0000)
  22 Pd     5.604749    3.218366   14.640092    ( 0.0000,  0.0000,  0.0000)
  23 Pt     8.525846    3.259848   14.663973    ( 0.0000,  0.0000,  0.0000)
  24 Pt     4.169333    5.655432   14.616407    ( 0.0000,  0.0000,  0.0000)
  25 Pt     7.047279    5.607119   14.671251    ( 0.0000,  0.0000,  0.0000)
  26 Ag     9.874662    5.745011   14.702958    ( 0.0000,  0.0000,  0.0000)
  27 Ag     0.008824    1.603472   16.996137    ( 0.0000,  0.0000,  0.0000)
  28 Ag     2.790585    1.619653   16.898805    ( 0.0000,  0.0000,  0.0000)
  29 Pt     5.662586    1.629628   17.003894    ( 0.0000,  0.0000,  0.0000)
  30 Ag     1.336577    4.081678   17.025704    ( 0.0000,  0.0000,  0.0000)
  31 Pd     4.162210    4.031220   16.806560    ( 0.0000,  0.0000,  0.0000)
  32 Ru     6.961402    4.063445   16.864523    ( 0.0000,  0.0000,  0.0000)
  33 Pd     2.821219    6.579926   17.062999    ( 0.0000,  0.0000,  0.0000)
  34 Pt     5.653394    6.424306   16.905857    ( 0.0000,  0.0000,  0.0000)
  35 Pd     8.412049    6.513391   17.098469    ( 0.0000,  0.0000,  0.0000)
  36 Pt    -0.000905   -0.093814   19.346773    ( 0.0000,  0.0000,  0.0000)
  37 Pt     2.899033    0.034951   19.301387    ( 0.0000,  0.0000,  0.0000)
  38 Ag     5.706971    0.007327   19.480155    ( 0.0000,  0.0000,  0.0000)
  39 Pt     1.582914    2.600478   19.503491    ( 0.0000,  0.0000,  0.0000)
  40 Ru     4.310538    2.625809   19.092920    ( 0.0000,  0.0000,  0.0000)
  41 Pt     7.077735    2.496782   19.203088    ( 0.0000,  0.0000,  0.0000)
  42 Ir     3.023688    4.802847   19.136686    ( 0.0000,  0.0000,  0.0000)
  43 Pt     5.710219    4.842215   19.152463    ( 0.0000,  0.0000,  0.0000)
  44 Ag     8.563808    4.907675   19.519394    ( 0.0000,  0.0000,  0.0000)
  45 O      1.424439    0.810891   20.533251    ( 0.0000,  0.0000,  0.0000)

Unit cell:
           periodic     x           y           z      points  spacing
  1. axis:    yes    8.509606    0.000000    0.000000    40     0.1842
  2. axis:    yes    4.254803    7.369535    0.000000    40     0.1842
  3. axis:    no     0.000000    0.000000   29.270571   140     0.2091

  Lengths:   8.509606   8.509606  29.270571
  Angles:   90.000000  90.000000  60.000000

Effective grid spacing dv^(1/3) = 0.2016

     iter     time        total  log10-change:
                         energy  eigst   dens
iter:   1 23:38:58  -190.938209  -4.26
iter:   2 23:39:59  -192.994451  -4.06  -2.70
iter:   3 23:41:00  -190.812803  -4.30  -2.04
iter:   4 23:42:00  -190.796161  -5.67  -3.13
iter:   5 23:43:01  -190.787509c -6.03  -3.30
iter:   6 23:44:01  -190.789103c -6.75  -3.50
iter:   7 23:45:02  -190.788425c -6.78  -3.68
iter:   8 23:46:03  -190.786645c -6.81  -3.82
iter:   9 23:47:03  -190.790798c -7.07  -3.72
iter:  10 23:48:04  -190.788270c -7.41c -3.73
iter:  11 23:49:05  -190.787542c -7.20  -4.06c
iter:  12 23:50:05  -190.789708c -7.45c -4.09c

Converged after 12 iterations.

Dipole moment: (-0.534198, 11.057857, -0.304974) |e|*Ang

Energy contributions relative to reference atoms: (reference = -12373358.334139)

Kinetic:       -221.012216
Potential:      +96.722426
External:        +0.000000
XC:             -58.531633
Entropy (-ST):   -1.844603
Local:           -7.045984
--------------------------
Free energy:   -191.712009
Extrapolated:  -190.789708

Showing only first 2 kpts
 Kpt  Band  Eigenvalues  Occupancy
  0   366      0.76262    1.08944
  0   367      0.79941    0.90601
  0   368      0.81422    0.83324
  0   369      0.84704    0.67932

  1   366      0.65019    1.57291
  1   367      0.66528    1.52004
  1   368      0.68194    1.45666
  1   369      0.74144    1.19314


Fermi level: 0.78056

No gap

Forces in eV/Ang:
  0 Pd    0.70433    0.06187    0.10130
  1 Pt   -0.59728   -0.16338    0.55770
  2 Ag   -0.09465   -0.07767   -0.55865
  3 Pd   -0.04566   -0.32533    0.22351
  4 Ag   -0.00291    0.03155   -0.56853
  5 Ag    0.14149    0.16450   -0.49128
  6 Ag    0.03584   -0.00561   -0.47207
  7 Pd    0.23706    0.35039    0.07259
  8 Pd   -0.12526    0.13320    0.20206
  9 Pd    0.01258    0.08992   -0.01574
 10 Pd   -0.00708   -0.04362   -0.08949
 11 Pt   -0.05476   -0.16258    0.14106
 12 Ir    0.67570    0.16197   -0.00039
 13 Pt   -0.64866   -0.19596    0.25911
 14 Ag    0.11587   -0.01870    0.11163
 15 Pt   -0.28905    0.03287    0.16820
 16 Pd   -0.06385    0.25752    0.16110
 17 Pd    0.13800    0.00916    0.17710
 18 Ag   -0.00740    0.01712    0.04009
 19 Ag   -0.05395   -0.00906    0.02776
 20 Pt    0.00705   -0.00691    0.01383
 21 Ru    0.00462   -0.02518    0.02099
 22 Pd   -0.00029   -0.01926   -0.00533
 23 Pt    0.00026   -0.03476    0.03143
 24 Pt   -0.01384   -0.00280   -0.00344
 25 Pt   -0.01776    0.00832   -0.01474
 26 Ag   -0.00329   -0.01568    0.05793
 27 Ag    0.01905   -0.02340    0.10017
 28 Ag   -0.04690   -0.01571    0.13520
 29 Pt    0.00537   -0.00226   -0.07027
 30 Ag   -0.02367   -0.00659   -0.04431
 31 Pd   -0.03338   -0.03289    0.02037
 32 Ru   -0.02218   -0.01342   -0.02359
 33 Pd   -0.07296   -0.07635   -0.05358
 34 Pt    0.00587    0.01658   -0.01987
 35 Pd    0.05748   -0.06000   -0.07601
 36 Pt    0.03016    0.00484   -0.17510
 37 Pt   -0.19461    0.17589   -0.03022
 38 Ag   -0.00281    0.01083    0.05028
 39 Pt    0.14209   -0.16486    0.01157
 40 Ru    0.03268   -0.07528    0.01248
 41 Pt    0.07127   -0.02675    0.02110
 42 Ir    0.14013   -0.00057    0.08075
 43 Pt    0.01735    0.08989   -0.02819
 44 Ag   -0.05741    0.01557    0.04769
 45 O    -0.10947   -0.03391   -0.00641

System changes: positions 

Initializing position-dependent things.

Density initialized from wave functions
                                             
                                             
                                             
                                             
                                             
                                             
                               Ag            
                  Ir    Pt                   
           O Pt   PdRu   PPt    Pd           
                     Ag                      
       Pt    APt    Pd     Ru                
        Ag            Pt                     
               Ag    Pt     Pt     Ag        
                       Pd     Pt             
                Ru                           
           Ag    PAg    PPt    Pd            
                                             
            Ir     Pt    PAg    Pd           
       Pd    PPd    APt    Ag                
                                             
        Pd     Pt     Ag                     
                                             
                                             
                                             
                                             
                                             

Positions:
   0 Pd     0.000000    1.637674   10.000000    ( 0.0000,  0.0000,  0.0000)
   1 Pt     2.836535    1.637674   10.000000    ( 0.0000,  0.0000,  0.0000)
   2 Ag     5.673071    1.637674   10.000000    ( 0.0000,  0.0000,  0.0000)
   3 Pd     1.418268    4.094186   10.000000    ( 0.0000,  0.0000,  0.0000)
   4 Ag     4.254803    4.094186   10.000000    ( 0.0000,  0.0000,  0.0000)
   5 Ag     7.091338    4.094186   10.000000    ( 0.0000,  0.0000,  0.0000)
   6 Ag     2.836535    6.550698   10.000000    ( 0.0000,  0.0000,  0.0000)
   7 Pd     5.673071    6.550698   10.000000    ( 0.0000,  0.0000,  0.0000)
   8 Pd     8.509606    6.550698   10.000000    ( 0.0000,  0.0000,  0.0000)
   9 Pd     0.000000    0.000000   12.317643    ( 0.0000,  0.0000,  0.0000)
  10 Pd     2.836535    0.000000   12.317643    ( 0.0000,  0.0000,  0.0000)
  11 Pt     5.673071    0.000000   12.317643    ( 0.0000,  0.0000,  0.0000)
  12 Ir     1.418268    2.456512   12.317643    ( 0.0000,  0.0000,  0.0000)
  13 Pt     4.254803    2.456512   12.317643    ( 0.0000,  0.0000,  0.0000)
  14 Ag     7.091338    2.456512   12.317643    ( 0.0000,  0.0000,  0.0000)
  15 Pt     2.836535    4.913023   12.317643    ( 0.0000,  0.0000,  0.0000)
  16 Pd     5.673071    4.913023   12.317643    ( 0.0000,  0.0000,  0.0000)
  17 Pd     8.509606    4.913023   12.317643    ( 0.0000,  0.0000,  0.0000)
  18 Ag     1.384640    0.766064   14.610578    ( 0.0000,  0.0000,  0.0000)
  19 Ag     4.217033    0.784009   14.658503    ( 0.0000,  0.0000,  0.0000)
  20 Pt     7.059183    0.788801   14.659741    ( 0.0000,  0.0000,  0.0000)
  21 Ru     2.753286    3.305205   14.385345    ( 0.0000,  0.0000,  0.0000)
  22 Pd     5.605125    3.217726   14.639920    ( 0.0000,  0.0000,  0.0000)
  23 Pt     8.525616    3.258799   14.664841    ( 0.0000,  0.0000,  0.0000)
  24 Pt     4.169117    5.655629   14.616456    ( 0.0000,  0.0000,  0.0000)
  25 Pt     7.046265    5.607288   14.671104    ( 0.0000,  0.0000,  0.0000)
  26 Ag     9.874480    5.744637   14.705971    ( 0.0000,  0.0000,  0.0000)
  27 Ag     0.008936    1.602217   17.000633    ( 0.0000,  0.0000,  0.0000)
  28 Ag     2.789311    1.619118   16.904899    ( 0.0000,  0.0000,  0.0000)
  29 Pt     5.662576    1.629053   17.001237    ( 0.0000,  0.0000,  0.0000)
  30 Ag     1.335081    4.082983   17.023790    ( 0.0000,  0.0000,  0.0000)
  31 Pd     4.161650    4.030625   16.806697    ( 0.0000,  0.0000,  0.0000)
  32 Ru     6.960064    4.063940   16.863395    ( 0.0000,  0.0000,  0.0000)
  33 Pd     2.817967    6.576856   17.061904    ( 0.0000,  0.0000,  0.0000)
  34 Pt     5.653478    6.423209   16.905413    ( 0.0000,  0.0000,  0.0000)
  35 Pd     8.415381    6.510099   17.096550    ( 0.0000,  0.0000,  0.0000)
  36 Pt    -0.003001   -0.095967   19.337845    ( 0.0000,  0.0000,  0.0000)
  37 Pt     2.895859    0.039308   19.297063    ( 0.0000,  0.0000,  0.0000)
  38 Ag     5.707014    0.007405   19.481837    ( 0.0000,  0.0000,  0.0000)
  39 Pt     1.589253    2.601853   19.500331    ( 0.0000,  0.0000,  0.0000)
  40 Ru     4.312930    2.621891   19.093659    ( 0.0000,  0.0000,  0.0000)
  41 Pt     7.079660    2.495156   19.204405    ( 0.0000,  0.0000,  0.0000)
  42 Ir     3.027140    4.803142   19.140706    ( 0.0000,  0.0000,  0.0000)
  43 Pt     5.710835    4.846705   19.151019    ( 0.0000,  0.0000,  0.0000)
  44 Ag     8.562179    4.908793   19.521001    ( 0.0000,  0.0000,  0.0000)
  45 O      1.419537    0.808122   20.541125    ( 0.0000,  0.0000,  0.0000)

Unit cell:
           periodic     x           y           z      points  spacing
  1. axis:    yes    8.509606    0.000000    0.000000    40     0.1842
  2. axis:    yes    4.254803    7.369535    0.000000    40     0.1842
  3. axis:    no     0.000000    0.000000   29.270571   140     0.2091

  Lengths:   8.509606   8.509606  29.270571
  Angles:   90.000000  90.000000  60.000000

Effective grid spacing dv^(1/3) = 0.2016

     iter     time        total  log10-change:
                         energy  eigst   dens
iter:   1 23:51:26  -192.832203  -4.06
iter:   2 23:52:26  -235.003833  -2.65  -2.06
iter:   3 23:53:27  -192.901202  -3.09  -1.45
iter:   4 23:54:27  -191.111140  -4.14  -2.17
iter:   5 23:55:28  -190.838691  -4.83  -2.60
iter:   6 23:56:28  -190.805067c -5.29  -3.12
iter:   7 23:57:29  -190.806531c -5.69  -3.39
iter:   8 23:58:29  -190.796143c -5.76  -3.40
iter:   9 23:59:30  -190.795476c -6.26  -3.71
iter:  10 00:00:30  -190.797360c -6.66  -3.71
iter:  11 00:01:31  -190.794434c -6.65  -3.78
iter:  12 00:02:31  -190.796397c -7.03  -3.93
iter:  13 00:03:32  -190.796591c -7.14  -4.01c
iter:  14 00:04:32  -190.794894c -7.53c -4.01c

Converged after 14 iterations.

Dipole moment: (-1.008010, 10.831100, -0.307813) |e|*Ang

Energy contributions relative to reference atoms: (reference = -12373358.334139)

Kinetic:       -220.122930
Potential:      +95.781302
External:        +0.000000
XC:             -58.488041
Entropy (-ST):   -1.848827
Local:           -7.040812
--------------------------
Free energy:   -191.719308
Extrapolated:  -190.794894

Showing only first 2 kpts
 Kpt  Band  Eigenvalues  Occupancy
  0   366      0.76050    1.08826
  0   367      0.79579    0.91222
  0   368      0.81251    0.83008
  0   369      0.84468    0.67931

  1   366      0.64810    1.57199
  1   367      0.66250    1.52154
  1   368      0.67860    1.46050
  1   369      0.73949    1.19114


Fermi level: 0.77819

No gap

Forces in eV/Ang:
  0 Pd    0.71899    0.05856    0.11173
  1 Pt   -0.60586   -0.16607    0.56635
  2 Ag   -0.09833   -0.08097   -0.54159
  3 Pd   -0.04605   -0.33090    0.23113
  4 Ag   -0.00783    0.03007   -0.55326
  5 Ag    0.14568    0.16699   -0.47585
  6 Ag    0.03612   -0.00604   -0.45533
  7 Pd    0.24111    0.36156    0.08604
  8 Pd   -0.13147    0.13420    0.21508
  9 Pd    0.01386    0.08969   -0.02787
 10 Pd   -0.00836   -0.04102   -0.10922
 11 Pt   -0.05681   -0.16414    0.13770
 12 Ir    0.67621    0.16300   -0.01760
 13 Pt   -0.65323   -0.19934    0.25009
 14 Ag    0.11795   -0.02120    0.10634
 15 Pt   -0.29435    0.02832    0.16423
 16 Pd   -0.06661    0.26232    0.15271
 17 Pd    0.14504    0.00955    0.16964
 18 Ag   -0.00835    0.01519    0.03397
 19 Ag   -0.04815   -0.00607    0.02354
 20 Pt    0.00408   -0.01190    0.00343
 21 Ru    0.00289   -0.01699   -0.00125
 22 Pd   -0.00488   -0.01483   -0.01714
 23 Pt   -0.00763   -0.02998    0.01428
 24 Pt   -0.01026   -0.00483   -0.01402
 25 Pt   -0.01281    0.00005   -0.02536
 26 Ag   -0.00564   -0.01462    0.01724
 27 Ag    0.00438   -0.01480    0.06364
 28 Ag   -0.02572   -0.01512    0.09021
 29 Pt    0.00592   -0.00429   -0.03299
 30 Ag   -0.00833   -0.01006   -0.00460
 31 Pd   -0.02167   -0.03226    0.02988
 32 Ru   -0.01941   -0.01920   -0.00737
 33 Pd   -0.06334   -0.06676   -0.02574
 34 Pt    0.00216    0.00618   -0.03464
 35 Pd    0.03577   -0.04178   -0.02378
 36 Pt    0.04650    0.01781   -0.06572
 37 Pt   -0.15753    0.11607    0.02446
 38 Ag   -0.01936   -0.00369    0.04770
 39 Pt    0.11859   -0.13593    0.08185
 40 Ru    0.07155   -0.03163    0.00727
 41 Pt    0.01876   -0.00562    0.01057
 42 Ir    0.08591   -0.00686    0.04605
 43 Pt    0.02955    0.02270   -0.01767
 44 Ag   -0.02964    0.01896    0.04567
 45 O    -0.09653    0.00127   -0.16191

System changes: positions 

Initializing position-dependent things.

Density initialized from wave functions
                                             
                                             
                                             
                                             
                                             
                                             
                               Ag            
                  Ir    Pt                   
           O Pt   PdRu   PPt    Pd           
                     Ag                      
       Pt    APt    Pd     Ru                
        Ag            Pt                     
               Ag    Pt     Pt     Ag        
                       Pd     Pt             
                Ru                           
           Ag    PAg    PPt    Pd            
                                             
            Ir     Pt    PAg    Pd           
       Pd    PPd    APt    Ag                
                                             
        Pd     Pt     Ag                     
                                             
                                             
                                             
                                             
                                             

Positions:
   0 Pd     0.000000    1.637674   10.000000    ( 0.0000,  0.0000,  0.0000)
   1 Pt     2.836535    1.637674   10.000000    ( 0.0000,  0.0000,  0.0000)
   2 Ag     5.673071    1.637674   10.000000    ( 0.0000,  0.0000,  0.0000)
   3 Pd     1.418268    4.094186   10.000000    ( 0.0000,  0.0000,  0.0000)
   4 Ag     4.254803    4.094186   10.000000    ( 0.0000,  0.0000,  0.0000)
   5 Ag     7.091338    4.094186   10.000000    ( 0.0000,  0.0000,  0.0000)
   6 Ag     2.836535    6.550698   10.000000    ( 0.0000,  0.0000,  0.0000)
   7 Pd     5.673071    6.550698   10.000000    ( 0.0000,  0.0000,  0.0000)
   8 Pd     8.509606    6.550698   10.000000    ( 0.0000,  0.0000,  0.0000)
   9 Pd     0.000000    0.000000   12.317643    ( 0.0000,  0.0000,  0.0000)
  10 Pd     2.836535    0.000000   12.317643    ( 0.0000,  0.0000,  0.0000)
  11 Pt     5.673071    0.000000   12.317643    ( 0.0000,  0.0000,  0.0000)
  12 Ir     1.418268    2.456512   12.317643    ( 0.0000,  0.0000,  0.0000)
  13 Pt     4.254803    2.456512   12.317643    ( 0.0000,  0.0000,  0.0000)
  14 Ag     7.091338    2.456512   12.317643    ( 0.0000,  0.0000,  0.0000)
  15 Pt     2.836535    4.913023   12.317643    ( 0.0000,  0.0000,  0.0000)
  16 Pd     5.673071    4.913023   12.317643    ( 0.0000,  0.0000,  0.0000)
  17 Pd     8.509606    4.913023   12.317643    ( 0.0000,  0.0000,  0.0000)
  18 Ag     1.383476    0.766919   14.611604    ( 0.0000,  0.0000,  0.0000)
  19 Ag     4.213578    0.782670   14.659935    ( 0.0000,  0.0000,  0.0000)
  20 Pt     7.058646    0.787178   14.659568    ( 0.0000,  0.0000,  0.0000)
  21 Ru     2.753901    3.303310   14.385226    ( 0.0000,  0.0000,  0.0000)
  22 Pd     5.605472    3.216365   14.639312    ( 0.0000,  0.0000,  0.0000)
  23 Pt     8.525119    3.256758   14.666401    ( 0.0000,  0.0000,  0.0000)
  24 Pt     4.168402    5.655783   14.616292    ( 0.0000,  0.0000,  0.0000)
  25 Pt     7.044564    5.607427   14.670372    ( 0.0000,  0.0000,  0.0000)
  26 Ag     9.873808    5.743281   14.711008    ( 0.0000,  0.0000,  0.0000)
  27 Ag     0.008677    1.599401   17.008452    ( 0.0000,  0.0000,  0.0000)
  28 Ag     2.786509    1.617677   16.916563    ( 0.0000,  0.0000,  0.0000)
  29 Pt     5.662162    1.627338   16.996293    ( 0.0000,  0.0000,  0.0000)
  30 Ag     1.332364    4.084143   17.022088    ( 0.0000,  0.0000,  0.0000)
  31 Pd     4.160316    4.028915   16.807021    ( 0.0000,  0.0000,  0.0000)
  32 Ru     6.958236    4.064277   16.861402    ( 0.0000,  0.0000,  0.0000)
  33 Pd     2.813291    6.571674   17.061954    ( 0.0000,  0.0000,  0.0000)
  34 Pt     5.653176    6.421770   16.903907    ( 0.0000,  0.0000,  0.0000)
  35 Pd     8.419843    6.504843   17.095246    ( 0.0000,  0.0000,  0.0000)
  36 Pt    -0.009571   -0.101892   19.327260    ( 0.0000,  0.0000,  0.0000)
  37 Pt     2.894051    0.044376   19.293688    ( 0.0000,  0.0000,  0.0000)
  38 Ag     5.706878    0.007393   19.485162    ( 0.0000,  0.0000,  0.0000)
  39 Pt     1.602603    2.609594   19.502288    ( 0.0000,  0.0000,  0.0000)
  40 Ru     4.321721    2.616362   19.094796    ( 0.0000,  0.0000,  0.0000)
  41 Pt     7.081231    2.492725   19.205853    ( 0.0000,  0.0000,  0.0000)
  42 Ir     3.032384    4.802406   19.147286    ( 0.0000,  0.0000,  0.0000)
  43 Pt     5.712412    4.852529   19.147817    ( 0.0000,  0.0000,  0.0000)
  44 Ag     8.559183    4.911468   19.524280    ( 0.0000,  0.0000,  0.0000)
  45 O      1.407846    0.802663   20.535064    ( 0.0000,  0.0000,  0.0000)

Unit cell:
           periodic     x           y           z      points  spacing
  1. axis:    yes    8.509606    0.000000    0.000000    40     0.1842
  2. axis:    yes    4.254803    7.369535    0.000000    40     0.1842
  3. axis:    no     0.000000    0.000000   29.270571   140     0.2091

  Lengths:   8.509606   8.509606  29.270571
  Angles:   90.000000  90.000000  60.000000

Effective grid spacing dv^(1/3) = 0.2016

     iter     time        total  log10-change:
                         energy  eigst   dens
iter:   1 00:05:53  -191.020381  -4.11
iter:   2 00:06:54  -195.120253  -3.82  -2.62
iter:   3 00:07:55  -190.827399  -4.04  -1.91
iter:   4 00:08:55  -190.805732  -5.61  -3.22
iter:   5 00:09:56  -190.805740c -6.21  -3.43
iter:   6 00:10:57  -190.806504c -6.52  -3.57
iter:   7 00:11:58  -190.804311c -6.89  -3.64
iter:   8 00:13:00  -190.802190c -6.50  -3.73
iter:   9 00:14:01  -190.805150c -7.18  -3.80
iter:  10 00:15:03  -190.804431c -7.10  -3.80
iter:  11 00:16:05  -190.802706c -7.45c -3.99
iter:  12 00:17:07  -190.804140c -7.40c -4.08c

Converged after 12 iterations.

Dipole moment: (-1.612370, 10.630159, -0.308927) |e|*Ang

Energy contributions relative to reference atoms: (reference = -12373358.334139)

Kinetic:       -221.632840
Potential:      +97.204260
External:        +0.000000
XC:             -58.424285
Entropy (-ST):   -1.846707
Local:           -7.027921
--------------------------
Free energy:   -191.727493
Extrapolated:  -190.804140

Showing only first 2 kpts
 Kpt  Band  Eigenvalues  Occupancy
  0   366      0.76064    1.08824
  0   367      0.79447    0.91946
  0   368      0.81262    0.83019
  0   369      0.84512    0.67793

  1   366      0.64858    1.57084
  1   367      0.66364    1.51788
  1   368      0.67838    1.46194
  1   369      0.73952    1.19166


Fermi level: 0.77833

No gap

Forces in eV/Ang:
  0 Pd    0.70561    0.06139    0.10726
  1 Pt   -0.59724   -0.16297    0.56107
  2 Ag   -0.09615   -0.07759   -0.55281
  3 Pd   -0.04488   -0.32549    0.22763
  4 Ag   -0.00316    0.03046   -0.56386
  5 Ag    0.14048    0.16375   -0.48505
  6 Ag    0.03540   -0.00618   -0.46451
  7 Pd    0.23708    0.35102    0.07575
  8 Pd   -0.12441    0.13520    0.20804
  9 Pd    0.01327    0.09017   -0.01858
 10 Pd   -0.00883   -0.04236   -0.09234
 11 Pt   -0.05908   -0.16782    0.15726
 12 Ir    0.67128    0.16435   -0.00167
 13 Pt   -0.64530   -0.20263    0.25588
 14 Ag    0.11869   -0.01999    0.11195
 15 Pt   -0.30036    0.02817    0.18035
 16 Pd   -0.06506    0.25613    0.15703
 17 Pd    0.14600    0.00808    0.18775
 18 Ag   -0.00158    0.01950    0.05566
 19 Ag   -0.04561    0.00359    0.02962
 20 Pt    0.00552   -0.00211    0.01244
 21 Ru   -0.00326   -0.00871    0.01612
 22 Pd   -0.01720   -0.01225   -0.01110
 23 Pt   -0.00972   -0.03047    0.01450
 24 Pt   -0.00959   -0.01695   -0.00831
 25 Pt    0.00068   -0.00439   -0.02865
 26 Ag   -0.00868   -0.01462   -0.03558
 27 Ag   -0.00128    0.01045    0.00693
 28 Ag   -0.01095   -0.00886   -0.00078
 29 Pt    0.01653    0.01227   -0.00883
 30 Ag    0.01449   -0.05064    0.04425
 31 Pd   -0.02569   -0.04051    0.02866
 32 Ru    0.00071   -0.04518    0.00963
 33 Pd   -0.04569   -0.05021   -0.03711
 34 Pt    0.01106    0.02135   -0.06295
 35 Pd   -0.02139    0.00117   -0.00319
 36 Pt    0.09373    0.08302   -0.00421
 37 Pt   -0.16391    0.08569    0.06132
 38 Ag   -0.03708   -0.01085    0.03266
 39 Pt    0.03575   -0.21976    0.11797
 40 Ru    0.05553    0.03853   -0.01145
 41 Pt    0.01873    0.03318   -0.02043
 42 Ir    0.07402   -0.02361   -0.03116
 43 Pt    0.05868   -0.04839   -0.00995
 44 Ag   -0.01587   -0.01461    0.03128
 45 O    -0.08293    0.03933   -0.20609

System changes: positions 

Initializing position-dependent things.

Density initialized from wave functions
                                             
                                             
                                             
                                             
                                             
                                             
                               Ag            
                  Ir    Pt                   
           O Pt   PdRu   PPt    Pd           
                     Ag                      
       Pt    APt    Pd     Ru                
        Ag            Pt                     
               Ag    Pt     Pt     Ag        
                       Pd     Pt             
                Ru                           
           Ag    PAg    PPt    Pd            
                                             
            Ir     Pt    PAg    Pd           
       Pd    PPd    APt    Ag                
                                             
        Pd     Pt     Ag                     
                                             
                                             
                                             
                                             
                                             

Positions:
   0 Pd     0.000000    1.637674   10.000000    ( 0.0000,  0.0000,  0.0000)
   1 Pt     2.836535    1.637674   10.000000    ( 0.0000,  0.0000,  0.0000)
   2 Ag     5.673071    1.637674   10.000000    ( 0.0000,  0.0000,  0.0000)
   3 Pd     1.418268    4.094186   10.000000    ( 0.0000,  0.0000,  0.0000)
   4 Ag     4.254803    4.094186   10.000000    ( 0.0000,  0.0000,  0.0000)
   5 Ag     7.091338    4.094186   10.000000    ( 0.0000,  0.0000,  0.0000)
   6 Ag     2.836535    6.550698   10.000000    ( 0.0000,  0.0000,  0.0000)
   7 Pd     5.673071    6.550698   10.000000    ( 0.0000,  0.0000,  0.0000)
   8 Pd     8.509606    6.550698   10.000000    ( 0.0000,  0.0000,  0.0000)
   9 Pd     0.000000    0.000000   12.317643    ( 0.0000,  0.0000,  0.0000)
  10 Pd     2.836535    0.000000   12.317643    ( 0.0000,  0.0000,  0.0000)
  11 Pt     5.673071    0.000000   12.317643    ( 0.0000,  0.0000,  0.0000)
  12 Ir     1.418268    2.456512   12.317643    ( 0.0000,  0.0000,  0.0000)
  13 Pt     4.254803    2.456512   12.317643    ( 0.0000,  0.0000,  0.0000)
  14 Ag     7.091338    2.456512   12.317643    ( 0.0000,  0.0000,  0.0000)
[...]
  24 Pt     4.162538    5.652379   14.614738    ( 0.0000,  0.0000,  0.0000)
  25 Pt     7.037588    5.606567   14.662102    ( 0.0000,  0.0000,  0.0000)
  26 Ag     9.868665    5.733151   14.727484    ( 0.0000,  0.0000,  0.0000)
  27 Ag     0.007191    1.586734   17.042872    ( 0.0000,  0.0000,  0.0000)
  28 Ag     2.770759    1.608072   16.969610    ( 0.0000,  0.0000,  0.0000)
  29 Pt     5.662765    1.618850   16.971610    ( 0.0000,  0.0000,  0.0000)
  30 Ag     1.322810    4.076772   17.023832    ( 0.0000,  0.0000,  0.0000)
  31 Pd     4.148978    4.013868   16.812003    ( 0.0000,  0.0000,  0.0000)
  32 Ru     6.951919    4.057500   16.852324    ( 0.0000,  0.0000,  0.0000)
  33 Pd     2.786648    6.541354   17.057202    ( 0.0000,  0.0000,  0.0000)
  34 Pt     5.652775    6.421169   16.885695    ( 0.0000,  0.0000,  0.0000)
  35 Pd     8.432476    6.483881   17.090257    ( 0.0000,  0.0000,  0.0000)
  36 Pt    -0.027720   -0.118462   19.286300    ( 0.0000,  0.0000,  0.0000)
  37 Pt     2.861444    0.079613   19.297970    ( 0.0000,  0.0000,  0.0000)
  38 Ag     5.699420    0.005828   19.507057    ( 0.0000,  0.0000,  0.0000)
  39 Pt     1.672815    2.607186   19.547621    ( 0.0000,  0.0000,  0.0000)
  40 Ru     4.374823    2.599481   19.098638    ( 0.0000,  0.0000,  0.0000)
  41 Pt     7.089546    2.487296   19.207929    ( 0.0000,  0.0000,  0.0000)
  42 Ir     3.071790    4.794446   19.172717    ( 0.0000,  0.0000,  0.0000)
  43 Pt     5.730534    4.869370   19.131249    ( 0.0000,  0.0000,  0.0000)
  44 Ag     8.542499    4.921485   19.546655    ( 0.0000,  0.0000,  0.0000)
  45 O      1.336950    0.788556   20.427124    ( 0.0000,  0.0000,  0.0000)

Unit cell:
           periodic     x           y           z      points  spacing
  1. axis:    yes    8.509606    0.000000    0.000000    40     0.1842
  2. axis:    yes    4.254803    7.369535    0.000000    40     0.1842
  3. axis:    no     0.000000    0.000000   29.270571   140     0.2091

  Lengths:   8.509606   8.509606  29.270571
  Angles:   90.000000  90.000000  60.000000

Effective grid spacing dv^(1/3) = 0.2016

     iter     time        total  log10-change:
                         energy  eigst   dens
iter:   1 00:29:04  -192.715333  -2.78
iter:   2 00:30:05  -210.655963  -2.96  -2.14
iter:   3 00:31:07  -195.316110  -2.98  -1.64
iter:   4 00:32:09  -191.474401  -4.02  -1.98
iter:   5 00:33:10  -190.951891  -4.57  -2.36
iter:   6 00:34:11  -190.877494  -5.16  -2.62
iter:   7 00:35:13  -190.806195c -5.21  -2.71
iter:   8 00:36:14  -190.748153c -5.14  -2.87
iter:   9 00:37:15  -190.788991c -5.72  -3.03
iter:  10 00:38:16  -190.746440c -5.78  -2.91
iter:  11 00:39:17  -190.742633c -5.72  -3.17
iter:  12 00:40:17  -190.739179c -5.83  -3.10
iter:  13 00:41:18  -190.740955c -6.09  -3.37
iter:  14 00:42:18  -190.737796c -6.51  -3.43
iter:  15 00:43:18  -190.743429c -6.21  -3.45
iter:  16 00:44:19  -190.739356c -6.91  -3.54
iter:  17 00:45:20  -190.738637c -7.15  -3.67
iter:  18 00:46:21  -190.741599c -7.11  -3.78
iter:  19 00:47:22  -190.742016c -7.07  -3.79
iter:  20 00:48:22  -190.739237c -7.13  -3.83
iter:  21 00:49:23  -190.740011c -7.31  -4.02c
iter:  22 00:50:23  -190.739343c -7.52c -4.11c

Converged after 22 iterations.

Dipole moment: (-6.679351, 8.895235, -0.257232) |e|*Ang

Energy contributions relative to reference atoms: (reference = -12373358.334139)

Kinetic:       -214.408536
Potential:      +91.002945
External:        +0.000000
XC:             -59.394789
Entropy (-ST):   -1.837075
Local:           -7.020425
--------------------------
Free energy:   -191.657880
Extrapolated:  -190.739343

Showing only first 2 kpts
 Kpt  Band  Eigenvalues  Occupancy
  0   366      0.78812    1.07044
  0   367      0.80790    0.97165
  0   368      0.83947    0.81591
  0   369      0.87336    0.65861

  1   366      0.67698    1.55546
  1   367      0.68993    1.50909
  1   368      0.69890    1.47512
  1   369      0.76400    1.18883


Fermi level: 0.80223

No gap

Forces in eV/Ang:
  0 Pd    0.71617    0.06025    0.09446
  1 Pt   -0.60691   -0.17566    0.53933
  2 Ag   -0.09750   -0.08037   -0.56225
  3 Pd   -0.05115   -0.32528    0.21379
  4 Ag   -0.00215    0.03463   -0.57276
  5 Ag    0.14365    0.16844   -0.49652
  6 Ag    0.03578   -0.00710   -0.47224
  7 Pd    0.24356    0.35683    0.05812
  8 Pd   -0.12753    0.13665    0.19335
  9 Pd    0.03508    0.09645    0.00198
 10 Pd   -0.03596   -0.03028   -0.08010
 11 Pt   -0.07941   -0.17786    0.21331
 12 Ir    0.67034    0.14884    0.00949
 13 Pt   -0.65770   -0.22597    0.25919
 14 Ag    0.12977   -0.02730    0.11888
 15 Pt   -0.32207    0.00635    0.21665
 16 Pd   -0.07362    0.25746    0.14123
 17 Pd    0.15763   -0.00098    0.20294
 18 Ag   -0.01485   -0.01294   -0.01189
 19 Ag    0.05201    0.00298   -0.00030
 20 Pt   -0.02695   -0.01312    0.00292
 21 Ru   -0.03823    0.05130   -0.00504
 22 Pd   -0.04823    0.02008    0.00198
 23 Pt   -0.02817    0.02612   -0.01295
 24 Pt    0.00781   -0.04340    0.01467
 25 Pt    0.03334   -0.06670   -0.01196
 26 Ag   -0.03406   -0.00169   -0.19186
 27 Ag   -0.04297    0.01940   -0.21673
 28 Ag    0.10962    0.02427   -0.26550
 29 Pt    0.03441   -0.02797    0.12951
 30 Ag    0.08069   -0.13415    0.19500
 31 Pd    0.04370    0.01962   -0.03360
 32 Ru    0.02402   -0.01323   -0.02857
 33 Pd    0.05665    0.05028   -0.00821
 34 Pt   -0.03594   -0.06830   -0.04773
 35 Pd   -0.19801    0.13604    0.13909
 36 Pt   -0.44864   -0.17185   -0.26538
 37 Pt    0.53113   -0.45291   -0.21553
 38 Ag   -0.08364   -0.01322   -0.04635
 39 Pt   -0.05938    0.46833   -0.20283
 40 Ru   -0.03183    0.18298    0.00777
 41 Pt   -0.08613    0.01635   -0.01037
 42 Ir   -0.09833   -0.08075   -0.10803
 43 Pt    0.08252   -0.12829    0.04054
 44 Ag    0.15583   -0.11915    0.00133
 45 O    -0.01319    0.11962    1.14622

System changes: positions 

Initializing position-dependent things.

Density initialized from wave functions
                                             
                                             
                                             
                                             
                                             
                                             
                               Ag            
                  Ir     Pt                  
           O Pt   PdRu   PPt    Pd           
                     Ag                      
       Pt    APt    Pd     Ru                
        Ag     Ag     Pt                     
                     Pt     Pt     Ag        
                       Pd     Pt             
                Ru                           
           Ag    PAg    PPt    Pd            
                                             
            Ir     Pt     Ag    Pd           
       Pd    PPd    APt    Ag                
                                             
        Pd     Pt     Ag                     
                                             
                                             
                                             
                                             
                                             

Positions:
   0 Pd     0.000000    1.637674   10.000000    ( 0.0000,  0.0000,  0.0000)
   1 Pt     2.836535    1.637674   10.000000    ( 0.0000,  0.0000,  0.0000)
   2 Ag     5.673071    1.637674   10.000000    ( 0.0000,  0.0000,  0.0000)
   3 Pd     1.418268    4.094186   10.000000    ( 0.0000,  0.0000,  0.0000)
   4 Ag     4.254803    4.094186   10.000000    ( 0.0000,  0.0000,  0.0000)
   5 Ag     7.091338    4.094186   10.000000    ( 0.0000,  0.0000,  0.0000)
   6 Ag     2.836535    6.550698   10.000000    ( 0.0000,  0.0000,  0.0000)
   7 Pd     5.673071    6.550698   10.000000    ( 0.0000,  0.0000,  0.0000)
   8 Pd     8.509606    6.550698   10.000000    ( 0.0000,  0.0000,  0.0000)
   9 Pd     0.000000    0.000000   12.317643    ( 0.0000,  0.0000,  0.0000)
  10 Pd     2.836535    0.000000   12.317643    ( 0.0000,  0.0000,  0.0000)
  11 Pt     5.673071    0.000000   12.317643    ( 0.0000,  0.0000,  0.0000)
  12 Ir     1.418268    2.456512   12.317643    ( 0.0000,  0.0000,  0.0000)
  13 Pt     4.254803    2.456512   12.317643    ( 0.0000,  0.0000,  0.0000)
  14 Ag     7.091338    2.456512   12.317643    ( 0.0000,  0.0000,  0.0000)
  15 Pt     2.836535    4.913023   12.317643    ( 0.0000,  0.0000,  0.0000)
  16 Pd     5.673071    4.913023   12.317643    ( 0.0000,  0.0000,  0.0000)
  17 Pd     8.509606    4.913023   12.317643    ( 0.0000,  0.0000,  0.0000)
  18 Ag     1.381850    0.769188   14.616673    ( 0.0000,  0.0000,  0.0000)
  19 Ag     4.206691    0.781067   14.663963    ( 0.0000,  0.0000,  0.0000)
  20 Pt     7.057757    0.784513   14.660540    ( 0.0000,  0.0000,  0.0000)
  21 Ru     2.754345    3.301019   14.386313    ( 0.0000,  0.0000,  0.0000)
  22 Pd     5.604520    3.214158   14.638000    ( 0.0000,  0.0000,  0.0000)
  23 Pt     8.523776    3.252688   14.669632    ( 0.0000,  0.0000,  0.0000)
  24 Pt     4.166732    5.654476   14.615843    ( 0.0000,  0.0000,  0.0000)
  25 Pt     7.042838    5.606864   14.667789    ( 0.0000,  0.0000,  0.0000)
  26 Ag     9.872228    5.740404   14.714346    ( 0.0000,  0.0000,  0.0000)
  27 Ag     0.008152    1.596140   17.016917    ( 0.0000,  0.0000,  0.0000)
  28 Ag     2.782579    1.615007   16.929836    ( 0.0000,  0.0000,  0.0000)
  29 Pt     5.662658    1.624968   16.990105    ( 0.0000,  0.0000,  0.0000)
  30 Ag     1.330313    4.081105   17.023628    ( 0.0000,  0.0000,  0.0000)
  31 Pd     4.157149    4.024561   16.808545    ( 0.0000,  0.0000,  0.0000)
  32 Ru     6.956622    4.061948   16.858907    ( 0.0000,  0.0000,  0.0000)
  33 Pd     2.805721    6.563164   17.060074    ( 0.0000,  0.0000,  0.0000)
  34 Pt     5.653070    6.421667   16.898183    ( 0.0000,  0.0000,  0.0000)
  35 Pd     8.422344    6.499765   17.094251    ( 0.0000,  0.0000,  0.0000)
  36 Pt    -0.014255   -0.105747   19.315471    ( 0.0000,  0.0000,  0.0000)
  37 Pt     2.884512    0.053649   19.294934    ( 0.0000,  0.0000,  0.0000)
  38 Ag     5.704081    0.006786   19.491350    ( 0.0000,  0.0000,  0.0000)
  39 Pt     1.621706    2.606903   19.515321    ( 0.0000,  0.0000,  0.0000)
  40 Ru     4.336240    2.612811   19.095773    ( 0.0000,  0.0000,  0.0000)
  41 Pt     7.083294    2.491657   19.206202    ( 0.0000,  0.0000,  0.0000)
  42 Ir     3.043744    4.799919   19.153553    ( 0.0000,  0.0000,  0.0000)
  43 Pt     5.718218    4.856155   19.143477    ( 0.0000,  0.0000,  0.0000)
  44 Ag     8.555120    4.913614   19.530788    ( 0.0000,  0.0000,  0.0000)
  45 O      1.387956    0.800152   20.506321    ( 0.0000,  0.0000,  0.0000)

Unit cell:
           periodic     x           y           z      points  spacing
  1. axis:    yes    8.509606    0.000000    0.000000    40     0.1842
  2. axis:    yes    4.254803    7.369535    0.000000    40     0.1842
  3. axis:    no     0.000000    0.000000   29.270571   140     0.2091

  Lengths:   8.509606   8.509606  29.270571
  Angles:   90.000000  90.000000  60.000000

Effective grid spacing dv^(1/3) = 0.2016

     iter     time        total  log10-change:
                         energy  eigst   dens
iter:   1 00:51:43  -191.772369  -2.92
iter:   2 00:52:44  -202.148934  -3.31  -2.30
iter:   3 00:53:44  -191.227000  -3.44  -1.75
iter:   4 00:54:44  -191.088121  -4.43  -2.37
iter:   5 00:55:45  -190.874001c -4.64  -2.57
iter:   6 00:56:45  -190.839830c -5.51  -2.71
iter:   7 00:57:45  -190.825389c -5.77  -3.06
iter:   8 00:58:46  -190.821188c -5.35  -3.10
iter:   9 00:59:46  -190.821633c -5.51  -3.32
iter:  10 01:00:46  -190.818468c -6.26  -3.33
iter:  11 01:01:47  -190.813969c -6.00  -3.46
iter:  12 01:02:48  -190.825063c -6.36  -3.43
iter:  13 01:03:48  -190.814989c -6.56  -3.33
iter:  14 01:04:49  -190.816838c -7.13  -3.77
iter:  15 01:05:50  -190.814057c -7.17  -3.77
iter:  16 01:06:50  -190.814934c -7.06  -3.83
iter:  17 01:07:51  -190.814557c -7.19  -3.94
iter:  18 01:08:52  -190.817499c -7.09  -4.03c
iter:  19 01:09:52  -190.814709c -7.34  -3.80
iter:  20 01:10:54  -190.816055c -7.72c -4.20c

Converged after 20 iterations.

Dipole moment: (-3.116599, 10.157644, -0.294489) |e|*Ang

Energy contributions relative to reference atoms: (reference = -12373358.334139)

Kinetic:       -220.743863
Potential:      +96.505700
External:        +0.000000
XC:             -58.618837
Entropy (-ST):   -1.842734
Local:           -7.037688
--------------------------
Free energy:   -191.737422
Extrapolated:  -190.816055

Showing only first 2 kpts
 Kpt  Band  Eigenvalues  Occupancy
  0   366      0.76778    1.08452
  0   367      0.79780    0.93470
  0   368      0.81968    0.82699
  0   369      0.85334    0.66979

  1   366      0.65621    1.56667
  1   367      0.67053    1.51609
  1   368      0.68322    1.46803
  1   369      0.74571    1.19262


Fermi level: 0.78473

No gap

Forces in eV/Ang:
  0 Pd    0.71025    0.06103    0.09833
  1 Pt   -0.60121   -0.16833    0.54989
  2 Ag   -0.09634   -0.07796   -0.55993
  3 Pd   -0.04838   -0.32567    0.21997
  4 Ag   -0.00208    0.03311   -0.57147
  5 Ag    0.14288    0.16620   -0.49402
  6 Ag    0.03639   -0.00676   -0.47226
  7 Pd    0.23930    0.35363    0.06620
  8 Pd   -0.12523    0.13480    0.19802
  9 Pd    0.01831    0.09378   -0.00880
 10 Pd   -0.01854   -0.04057   -0.08457
 11 Pt   -0.06320   -0.16944    0.17202
 12 Ir    0.67131    0.15614    0.00597
 13 Pt   -0.65063   -0.20946    0.26221
 14 Ag    0.12260   -0.02321    0.11512
 15 Pt   -0.30346    0.02298    0.18984
 16 Pd   -0.06613    0.25781    0.15446
 17 Pd    0.14479    0.00637    0.18793
 18 Ag   -0.00560    0.00283    0.02440
 19 Ag   -0.00839   -0.00033    0.01963
 20 Pt   -0.01370   -0.00874    0.01109
 21 Ru   -0.01109    0.00703    0.00697
 22 Pd   -0.02115   -0.00692   -0.00548
 23 Pt   -0.01658   -0.00952    0.01273
 24 Pt   -0.00623   -0.02127    0.00204
 25 Pt    0.00645   -0.01972   -0.01250
 26 Ag   -0.01294   -0.00730   -0.05041
 27 Ag   -0.02309   -0.00035   -0.05414
 28 Ag    0.03315   -0.00162   -0.05493
 29 Pt    0.01543   -0.01689    0.02756
 30 Ag    0.02925   -0.04093    0.06316
 31 Pd   -0.00104   -0.01320    0.00531
 32 Ru    0.00711   -0.01638   -0.01074
 33 Pd   -0.02505   -0.02151   -0.01459
 34 Pt   -0.00749   -0.02238   -0.04655
 35 Pd   -0.04460    0.02065    0.02896
 36 Pt   -0.01409    0.00929   -0.03098
 37 Pt    0.00216   -0.04128   -0.00553
 38 Ag   -0.04541   -0.01289    0.00515
 39 Pt    0.03080   -0.01195    0.02197
 40 Ru    0.03402    0.04491    0.00379
 41 Pt   -0.03709    0.00975   -0.01720
 42 Ir    0.01098   -0.02410   -0.02590
 43 Pt    0.05501   -0.04371   -0.00758
 44 Ag    0.04891   -0.03153    0.02207
 45 O    -0.07777    0.02374    0.00327

Timing:                                      incl.     excl.
-------------------------------------------------------------------
Density initialized from wave functions:    27.588    27.587   0.2% |
 Symmetrize density:                         0.000     0.000   0.0% |
Forces:                                    138.476   138.476   1.2% |
Hamiltonian:                                15.302     0.094   0.0% |
 Atomic:                                     1.069     0.289   0.0% |
  XC Correction:                             0.780     0.780   0.0% |
 Calculate atomic Hamiltonians:              9.769     9.769   0.1% |
 Communicate:                                1.708     1.708   0.0% |
 Initialize Hamiltonian:                     0.001     0.001   0.0% |
 Poisson:                                    0.056     0.056   0.0% |
 XC 3D grid:                                 2.604     2.604   0.0% |
LCAO initialization:                       128.643     2.645   0.0% |
 LCAO eigensolver:                          14.202     0.001   0.0% |
  Blacs Orbital Layouts:                     0.274     0.000   0.0% |
   General diagonalize:                      0.269     0.269   0.0% |
   Redistribute coefs:                       0.002     0.002   0.0% |
   Send coefs to domains:                    0.002     0.002   0.0% |
  Calculate projections:                     0.003     0.003   0.0% |
  Distribute overlap matrix:                13.182     0.000   0.0% |
   Scalapack redistribute:                   0.006     0.006   0.0% |
   blocked summation:                       13.176    13.176   0.1% |
  Potential matrix:                          0.702     0.702   0.0% |
  SparseAtomicCorrection:                    0.004     0.004   0.0% |
  Sum over cells:                            0.036     0.036   0.0% |
 LCAO to grid:                             108.678   108.678   0.9% |
 Set positions (LCAO WFS):                   3.117     0.008   0.0% |
  Basic WFS set positions:                   0.003     0.003   0.0% |
  Basis functions set positions:             0.000     0.000   0.0% |
  P tci:                                     0.000     0.000   0.0% |
  ST tci:                                    0.293     0.293   0.0% |
  Scalapack redistribute:                    0.008     0.008   0.0% |
  blocked summation:                         2.690     2.690   0.0% |
  mktci:                                     0.114     0.114   0.0% |
PWDescriptor:                                0.545     0.545   0.0% |
Redistribute:                                0.010     0.010   0.0% |
SCF-cycle:                               11416.863   147.867   1.3% ||
 Davidson:                               10481.279  2364.498  20.1% |-------|
  Apply H:                                1126.161  1108.893   9.4% |---|
   HMM T:                                   17.268    17.268   0.1% |
  Subspace diag:                          1216.693     0.040   0.0% |
   calc_h_matrix:                          800.452   230.703   2.0% ||
    Apply H:                               569.749   560.151   4.8% |-|
     HMM T:                                  9.598     9.598   0.1% |
   diagonalize:                             40.834    40.834   0.3% |
   rotate_psi:                             375.367   375.367   3.2% ||
  calc. matrices:                         4030.500  2385.436  20.3% |-------|
   Apply H:                               1645.064  1619.207  13.7% |----|
    HMM T:                                  25.857    25.857   0.2% |
  diagonalize:                             589.710   589.710   5.0% |-|
  rotate_psi:                             1153.717  1153.717   9.8% |---|
 Density:                                  489.293     0.007   0.0% |
  Atomic density matrices:                   3.301     3.301   0.0% |
  Mix:                                     181.514   181.514   1.5% ||
  Multipole moments:                         0.300     0.300   0.0% |
  Pseudo density:                          304.170   304.161   2.6% ||
   Symmetrize density:                       0.009     0.009   0.0% |
 Hamiltonian:                              257.411     1.498   0.0% |
  Atomic:                                   16.744     4.455   0.0% |
   XC Correction:                           12.289    12.289   0.1% |
  Calculate atomic Hamiltonians:           161.184   161.184   1.4% ||
  Communicate:                              32.152    32.152   0.3% |
  Poisson:                                   0.942     0.942   0.0% |
  XC 3D grid:                               44.890    44.890   0.4% |
 Orthonormalize:                            41.012     0.004   0.0% |
  calc_s_matrix:                             6.667     6.667   0.1% |
  inverse-cholesky:                          2.029     2.029   0.0% |
  projections:                              21.198    21.198   0.2% |
  rotate_psi_s:                             11.114    11.114   0.1% |
Set symmetry:                                0.002     0.002   0.0% |
Other:                                      49.238    49.238   0.4% |
-------------------------------------------------------------------
Total:                                             11776.666 100.0%

Memory usage: 866.96 MiB
Date: Fri Jun 14 01:11:07 2024
