
  ___ ___ ___ _ _ _  
 |   |   |_  | | | | 
 | | | | | . | | | | 
 |__ |  _|___|_____|  22.1.0
 |___|_|             

User:   clausen@node488.cluster
Date:   Fri Jun 14 14:00:02 2024
Arch:   x86_64
Pid:    100732
Python: 3.10.4
gpaw:   /groups/kemi/clausen/miniconda3/envs/gpaw22/lib/python3.10/site-packages/gpaw
_gpaw:  /groups/kemi/clausen/miniconda3/envs/gpaw22/lib/python3.10/site-packages/
        _gpaw.cpython-310-x86_64-linux-gnu.so
ase:    /groups/kemi/clausen/miniconda3/envs/gpaw22/lib/python3.10/site-packages/ase (version 3.22.1)
numpy:  /groups/kemi/clausen/miniconda3/envs/gpaw22/lib/python3.10/site-packages/numpy (version 1.23.1)
scipy:  /groups/kemi/clausen/miniconda3/envs/gpaw22/lib/python3.10/site-packages/scipy (version 1.8.1)
libxc:  5.2.3
units:  Angstrom and eV
cores: 24
OpenMP: True
OMP_NUM_THREADS: 1

Input parameters:
  eigensolver: {name: dav,
                niter: 3}
  kpts: [4 4 1]
  mode: {ecut: 400.0,
         name: pw}
  xc: RPBE

System changes: positions, numbers, cell, pbc, initial_charges, initial_magmoms 

Initialize ...

Pd-setup:
  name: Palladium
  id: 6da19bfba079f22767af9506641940b9
  Z: 46.0
  valence: 16
  core: 30
  charge: 0.0
  file: /groups/kemi/clausen/miniconda3/envs/gpaw22/share/gpaw/Pd.RPBE.gz
  compensation charges: gauss, rc=0.38, lmax=2
  cutoffs: 2.38(filt), 2.28(core),
  valence states:
                energy  radius
    5s(0.00)    -3.225   1.228
    4p(6.00)   -51.131   1.360
    5p(0.00)    -0.373   1.360
    4d(10.00)    -3.964   1.228
    *s          23.987   1.228
    *d          23.247   1.228

  Using partial waves for Pd as LCAO basis

Pt-setup:
  name: Platinum
  id: f04f522592575c47ad794f6b4a415b4b
  Z: 78.0
  valence: 16
  core: 62
  charge: 0.0
  file: /groups/kemi/clausen/miniconda3/envs/gpaw22/share/gpaw/Pt.RPBE.gz
  compensation charges: gauss, rc=0.41, lmax=2
  cutoffs: 2.26(filt), 2.26(core),
  valence states:
                energy  radius
    6s(1.00)    -5.516   1.307
    5p(6.00)   -55.971   1.371
    6p(0.00)    -0.856   1.371
    5d(9.00)    -6.087   1.307
    *s          21.695   1.307
    *d          21.125   1.307

  Using partial waves for Pt as LCAO basis

Ag-setup:
  name: Silver
  id: c05e55bab2c3858b3f9398f6d75cb77c
  Z: 47.0
  valence: 17
  core: 30
  charge: 0.0
  file: /groups/kemi/clausen/miniconda3/envs/gpaw22/share/gpaw/Ag.RPBE.gz
  compensation charges: gauss, rc=0.40, lmax=2
  cutoffs: 2.35(filt), 2.19(core),
  valence states:
                energy  radius
    5s(1.00)    -4.277   1.286
    4p(6.00)   -58.523   1.328
    5p(0.00)    -0.755   1.328
    4d(10.00)    -7.386   1.180
    *s          22.934   1.286
    *d          19.826   1.180

  Using partial waves for Ag as LCAO basis

Ir-setup:
  name: Iridium
  id: 73b603359d1d5397a85ae3c2440f9033
  Z: 77.0
  valence: 15
  core: 62
  charge: 0.0
  file: /groups/kemi/clausen/miniconda3/envs/gpaw22/share/gpaw/Ir.RPBE.gz
  compensation charges: gauss, rc=0.40, lmax=2
  cutoffs: 2.40(filt), 2.36(core),
  valence states:
                energy  radius
    6s(2.00)    -6.219   1.296
    5p(6.00)   -54.684   1.328
    6p(0.00)    -1.215   1.328
    5d(7.00)    -7.118   1.286
    *s          20.992   1.296
    *d          20.093   1.286

  Using partial waves for Ir as LCAO basis

Ru-setup:
  name: Ruthenium
  id: 76477906e28f51dc1b29884d53556fe9
  Z: 44.0
  valence: 16
  core: 28
  charge: 0.0
  file: /groups/kemi/clausen/miniconda3/envs/gpaw22/share/gpaw/Ru.RPBE.gz
  compensation charges: gauss, rc=0.39, lmax=2
  cutoffs: 2.16(filt), 1.30(core),
  valence states:
                energy  radius
    4s(2.00)   -76.255   1.281
    5s(1.00)    -4.126   1.281
    4p(6.00)   -46.371   1.286
    5p(0.00)    -0.913   1.286
    4d(7.00)    -5.146   1.254
    *d          22.066   1.254

  Using partial waves for Ru as LCAO basis

O-setup:
  name: Oxygen
  id: 08071ca1eed670e7821b24b7eb4d558c
  Z: 8.0
  valence: 6
  core: 2
  charge: 0.0
  file: /groups/kemi/clausen/miniconda3/envs/gpaw22/share/gpaw/O.RPBE.gz
  compensation charges: gauss, rc=0.21, lmax=2
  cutoffs: 1.17(filt), 0.83(core),
  valence states:
                energy  radius
    2s(2.00)   -24.041   0.688
    2p(4.00)    -8.984   0.598
    *s           3.170   0.688
    *p          18.228   0.598
    *d           0.000   0.619

  Using partial waves for O as LCAO basis

H-setup:
  name: Hydrogen
  id: ea3f9156a1dc40d47a60fdce8f8bd75d
  Z: 1.0
  valence: 1
  core: 0
  charge: 0.0
  file: /groups/kemi/clausen/miniconda3/envs/gpaw22/share/gpaw/H.RPBE.gz
  compensation charges: gauss, rc=0.15, lmax=2
  cutoffs: 0.85(filt), 0.53(core),
  valence states:
                energy  radius
    1s(1.00)    -6.572   0.476
    *s          20.639   0.476
    *p           0.000   0.476

  Using partial waves for H as LCAO basis

Reference energy: -12373371.003080

Spin-paired calculation

Convergence criteria:
 Maximum [total energy] change in last 3 cyles: 0.0005 eV / electron
 Maximum integral of absolute [dens]ity change: 0.0001 electrons / valence electron
 Maximum integral of absolute [eigenst]ate change: 4e-08 eV^2 / valence electron
 Maximum number of scf [iter]ations: 333
 (Square brackets indicate name in SCF output, whereas a 'c' in
 the SCF output indicates the quantity has converged.)

Symmetries present (total): 1

  ( 1  0  0)
  ( 0  1  0)
  ( 0  0  1)

16 k-points: 4 x 4 x 1 Monkhorst-Pack grid
8 k-points in the irreducible part of the Brillouin zone
       k-points in crystal coordinates                weights
   0:     0.12500000   -0.37500000    0.00000000          2/16
   1:     0.12500000   -0.12500000    0.00000000          2/16
   2:     0.12500000    0.12500000    0.00000000          2/16
   3:     0.12500000    0.37500000    0.00000000          2/16
   4:     0.37500000   -0.37500000    0.00000000          2/16
   5:     0.37500000   -0.12500000    0.00000000          2/16
   6:     0.37500000    0.12500000    0.00000000          2/16
   7:     0.37500000    0.37500000    0.00000000          2/16

Wave functions: Plane wave expansion
  Cutoff energy: 400.000 eV
  Number of coefficients (min, max): 33288, 33380
  Pulay-stress correction: 0.000000 eV/Ang^3 (de/decut=0.000000)
  Using FFTW library
  ScaLapack parameters: grid=3x1, blocksize=64
  Wavefunction extrapolation:
    Improved wavefunction reuse through dual PAW basis 

Occupation numbers: Fermi-Dirac: width=0.1000 eV
 

Eigensolver
   Davidson(niter=3) 

Densities:
  Coarse grid: 40*40*140 grid
  Fine grid: 80*80*280 grid
  Total Charge: 0.000000 

Density mixing:
  Method: separate
  Backend: pulay
  Linear mixing parameter: 0.05
  Mixing with 5 old densities
  Damping of long wave oscillations: 50 

Hamiltonian:
  XC and Coulomb potentials evaluated on a 80*80*280 grid
  Using the RPBE Exchange-Correlation functional
  External potential:
    NoExternalPotential
 

XC parameters: RPBE with 2 nearest neighbor stencil

Memory estimate:
  Process memory now: 195.72 MiB
  Calculator: 564.18 MiB
    Density: 50.39 MiB
      Arrays: 14.92 MiB
      Localized functions: 29.74 MiB
      Mixer: 5.74 MiB
    Hamiltonian: 10.71 MiB
      Arrays: 9.75 MiB
      XC: 0.00 MiB
      Poisson: 0.00 MiB
      vbar: 0.96 MiB
    Wavefunctions: 503.07 MiB
      Arrays psit_nG: 227.67 MiB
      Eigensolver: 260.72 MiB
      Projections: 1.88 MiB
      Projectors: 3.99 MiB
      PW-descriptor: 8.80 MiB

Total number of cores used: 24
Parallelization over k-points: 8
Domain decomposition: 1 x 1 x 3
                      2 x 2 x 6 (xc only)

Number of atoms: 47
Number of atomic orbitals: 548
Number of bands in calculation: 447
Number of valence electrons: 738
Bands to converge: occupied

... initialized

Initializing position-dependent things.

Density initialized from atomic densities
Creating initial wave functions:
  447 bands from LCAO basis set

                                             
                                             
                                             
                                             
                                             
                                             
                            H                
                          O                  
                  Ir    Pt     Ag            
                                             
             Pt   PRu    PPt    Pd           
              Pt     Ag                      
       Pt    Ag     Pd     Ru                
        Ag     Ag     Pt           Ag        
                     Pt     Pt               
                Ru     Pd     Pt             
                                             
           Ag    PAg    PPt    Pd            
                                             
            Ir     Pt    PAg    Pd           
       Pd    PPd    APt    Ag                
                                             
        Pd     Pt     Ag                     
                                             
                                             
                                             
                                             
                                             

Positions:
   0 Pd     0.000000    1.637674   10.000000    ( 0.0000,  0.0000,  0.0000)
   1 Pt     2.836535    1.637674   10.000000    ( 0.0000,  0.0000,  0.0000)
   2 Ag     5.673071    1.637674   10.000000    ( 0.0000,  0.0000,  0.0000)
   3 Pd     1.418268    4.094186   10.000000    ( 0.0000,  0.0000,  0.0000)
   4 Ag     4.254803    4.094186   10.000000    ( 0.0000,  0.0000,  0.0000)
   5 Ag     7.091338    4.094186   10.000000    ( 0.0000,  0.0000,  0.0000)
   6 Ag     2.836535    6.550698   10.000000    ( 0.0000,  0.0000,  0.0000)
   7 Pd     5.673071    6.550698   10.000000    ( 0.0000,  0.0000,  0.0000)
   8 Pd     8.509606    6.550698   10.000000    ( 0.0000,  0.0000,  0.0000)
   9 Pd     0.000000    0.000000   12.317643    ( 0.0000,  0.0000,  0.0000)
  10 Pd     2.836535    0.000000   12.317643    ( 0.0000,  0.0000,  0.0000)
  11 Pt     5.673071    0.000000   12.317643    ( 0.0000,  0.0000,  0.0000)
  12 Ir     1.418268    2.456512   12.317643    ( 0.0000,  0.0000,  0.0000)
  13 Pt     4.254803    2.456512   12.317643    ( 0.0000,  0.0000,  0.0000)
  14 Ag     7.091338    2.456512   12.317643    ( 0.0000,  0.0000,  0.0000)
  15 Pt     2.836535    4.913023   12.317643    ( 0.0000,  0.0000,  0.0000)
  16 Pd     5.673071    4.913023   12.317643    ( 0.0000,  0.0000,  0.0000)
  17 Pd     8.509606    4.913023   12.317643    ( 0.0000,  0.0000,  0.0000)
  18 Ag     1.386531    0.763556   14.612127    ( 0.0000,  0.0000,  0.0000)
  19 Ag     4.217140    0.786897   14.656625    ( 0.0000,  0.0000,  0.0000)
  20 Pt     7.062906    0.797650   14.661830    ( 0.0000,  0.0000,  0.0000)
  21 Ru     2.750963    3.304886   14.388561    ( 0.0000,  0.0000,  0.0000)
  22 Pd     5.602551    3.218685   14.639951    ( 0.0000,  0.0000,  0.0000)
  23 Pt     8.522404    3.252925   14.664528    ( 0.0000,  0.0000,  0.0000)
  24 Pt     4.170018    5.653000   14.615813    ( 0.0000,  0.0000,  0.0000)
  25 Pt     7.045875    5.606680   14.668177    ( 0.0000,  0.0000,  0.0000)
  26 Ag     9.874604    5.745082   14.696712    ( 0.0000,  0.0000,  0.0000)
  27 Ag     0.008271    1.607036   16.990555    ( 0.0000,  0.0000,  0.0000)
  28 Ag     2.792579    1.619369   16.881405    ( 0.0000,  0.0000,  0.0000)
  29 Pt     5.667100    1.638371   17.010896    ( 0.0000,  0.0000,  0.0000)
  30 Ag     1.336657    4.090436   17.016493    ( 0.0000,  0.0000,  0.0000)
  31 Pd     4.156889    4.034058   16.812256    ( 0.0000,  0.0000,  0.0000)
  32 Ru     6.950997    4.060452   16.869499    ( 0.0000,  0.0000,  0.0000)
  33 Pd     2.789491    6.566972   17.027197    ( 0.0000,  0.0000,  0.0000)
  34 Pt     5.653668    6.422911   16.906578    ( 0.0000,  0.0000,  0.0000)
  35 Pd     8.427941    6.500649   17.069490    ( 0.0000,  0.0000,  0.0000)
  36 Pt     0.076782   -0.041353   19.274293    ( 0.0000,  0.0000,  0.0000)
  37 Pt     2.811452    0.089084   19.254665    ( 0.0000,  0.0000,  0.0000)
  38 Ag     5.710723    0.010761   19.489412    ( 0.0000,  0.0000,  0.0000)
  39 Pt     1.555073    2.469759   19.393081    ( 0.0000,  0.0000,  0.0000)
  40 Ru     4.240188    2.601647   19.102653    ( 0.0000,  0.0000,  0.0000)
  41 Pt     7.117679    2.492363   19.219346    ( 0.0000,  0.0000,  0.0000)
  42 Ir     3.044217    4.828007   19.146959    ( 0.0000,  0.0000,  0.0000)
  43 Pt     5.722064    4.861267   19.161462    ( 0.0000,  0.0000,  0.0000)
  44 Ag     8.573183    4.898414   19.530449    ( 0.0000,  0.0000,  0.0000)
  45 O      7.117679    2.492363   21.530449    ( 0.0000,  0.0000,  0.0000)
  46 H      7.767679    3.142363   21.930449    ( 0.0000,  0.0000,  0.0000)

Unit cell:
           periodic     x           y           z      points  spacing
  1. axis:    yes    8.509606    0.000000    0.000000    40     0.1842
  2. axis:    yes    4.254803    7.369535    0.000000    40     0.1842
  3. axis:    no     0.000000    0.000000   29.270571   140     0.2091

  Lengths:   8.509606   8.509606  29.270571
  Angles:   90.000000  90.000000  60.000000

Effective grid spacing dv^(1/3) = 0.2016

     iter     time        total  log10-change:
                         energy  eigst   dens
iter:   1 14:03:25  -250.573012
iter:   2 14:04:23  -360.894436  -1.40  -1.22
iter:   3 14:05:22  -218.567445  -1.98  -1.07
iter:   4 14:06:21  -206.560719  -2.46  -1.38
iter:   5 14:07:20  -203.313620  -2.62  -1.46
iter:   6 14:08:19  -202.044271  -2.73  -1.53
iter:   7 14:09:18  -197.409423  -3.00  -1.56
iter:   8 14:10:17  -197.494942  -3.08  -1.69
iter:   9 14:11:16  -196.002502  -3.02  -1.72
iter:  10 14:12:15  -195.311074  -4.07  -1.87
iter:  11 14:13:15  -194.724296  -3.24  -1.93
iter:  12 14:14:15  -194.659202  -4.01  -2.15
iter:  13 14:15:14  -194.592644c -4.12  -2.16
iter:  14 14:16:14  -194.455555c -4.36  -2.24
iter:  15 14:17:13  -194.259305c -3.97  -2.30
iter:  16 14:18:12  -194.607961c -4.35  -2.43
iter:  17 14:19:11  -194.193943  -4.28  -2.36
iter:  18 14:20:10  -194.210480  -4.44  -2.61
iter:  19 14:21:10  -194.157917c -4.95  -2.60
iter:  20 14:22:09  -194.137090c -4.92  -2.80
iter:  21 14:23:10  -194.131807c -5.33  -2.94
iter:  22 14:24:09  -194.156598c -5.31  -3.00
iter:  23 14:25:09  -194.136880c -5.74  -2.92
iter:  24 14:26:08  -194.130773c -5.44  -3.05
iter:  25 14:27:08  -194.136725c -5.82  -3.11
iter:  26 14:28:07  -194.133126c -5.99  -3.19
iter:  27 14:29:07  -194.129327c -5.90  -3.33
iter:  28 14:30:06  -194.130837c -6.16  -3.45
iter:  29 14:31:06  -194.130872c -6.28  -3.60
iter:  30 14:32:05  -194.130443c -7.28  -3.71
iter:  31 14:33:05  -194.132117c -6.96  -3.77
iter:  32 14:34:04  -194.130270c -7.36  -3.81
iter:  33 14:35:04  -194.130529c -7.20  -3.82
iter:  34 14:36:03  -194.131642c -7.62c -3.97
iter:  35 14:37:03  -194.130961c -7.87c -3.93
iter:  36 14:38:02  -194.130724c -7.50c -4.00
iter:  37 14:39:01  -194.131521c -7.79c -4.01c

Converged after 37 iterations.

Dipole moment: (-6.004482, 7.341289, -0.490700) |e|*Ang

Energy contributions relative to reference atoms: (reference = -12373371.003080)

Kinetic:       -233.561069
Potential:     +106.950064
External:        +0.000000
XC:             -59.736991
Entropy (-ST):   -1.912727
Local:           -6.827161
--------------------------
Free energy:   -195.087884
Extrapolated:  -194.131521

Showing only first 2 kpts
 Kpt  Band  Eigenvalues  Occupancy
  0   367      0.70854    0.90420
  0   368      0.72942    0.80216
  0   369      0.74622    0.72296
  0   370      0.78621    0.55022

  1   367      0.55607    1.58252
  1   368      0.59730    1.43015
  1   369      0.62716    1.30118
  1   370      0.64520    1.21711


Fermi level: 0.68932

No gap

Forces in eV/Ang:
  0 Pd    0.70471    0.07072    0.09179
  1 Pt   -0.59478   -0.15479    0.56399
  2 Ag   -0.09906   -0.07898   -0.55741
  3 Pd   -0.04342   -0.33543    0.20745
  4 Ag   -0.00868    0.03008   -0.57136
  5 Ag    0.14625    0.16042   -0.49598
  6 Ag    0.04256   -0.00366   -0.47733
  7 Pd    0.22473    0.34532    0.06663
  8 Pd   -0.12403    0.13581    0.19669
  9 Pd   -0.01245    0.09305   -0.01114
 10 Pd    0.00280   -0.03683   -0.11864
 11 Pt   -0.03194   -0.14735    0.14957
 12 Ir    0.68436    0.16589    0.01005
 13 Pt   -0.65832   -0.19186    0.27069
 14 Ag    0.10720   -0.02389    0.10293
 15 Pt   -0.28598    0.02322    0.17953
 16 Pd   -0.07653    0.25165    0.16155
 17 Pd    0.14423   -0.00932    0.19182
 18 Ag   -0.02819   -0.00490   -0.00728
 19 Ag   -0.00330   -0.01245   -0.01216
 20 Pt   -0.03079   -0.03253   -0.00319
 21 Ru    0.00510   -0.01748   -0.04093
 22 Pd   -0.00973    0.00368    0.04104
 23 Pt    0.00311    0.01908   -0.01700
 24 Pt   -0.00517    0.00912    0.01869
 25 Pt   -0.00358    0.03980   -0.04051
 26 Ag   -0.02498   -0.01501    0.00687
 27 Ag   -0.06243    0.00187    0.01441
 28 Ag    0.00841    0.00155    0.03492
 29 Pt    0.17818    0.07707    0.13993
 30 Ag   -0.03309   -0.03635   -0.00338
 31 Pd   -0.03020   -0.02558    0.06626
 32 Ru   -0.09714    0.00039    0.01775
 33 Pd   -0.01983   -0.03027    0.00678
 34 Pt    0.00973   -0.08416    0.03117
 35 Pd   -0.02745   -0.00083   -0.01150
 36 Pt    0.11892   -0.14545   -0.06711
 37 Pt    0.03090   -0.00705    0.05445
 38 Ag   -0.01654   -0.08152   -0.01018
 39 Pt    0.23945   -0.03402   -0.02127
 40 Ru   -0.18247    0.08129   -0.03244
 41 Pt   -0.13121   -0.04776    1.79513
 42 Ir    0.07995   -0.05202    0.02127
 43 Pt   -0.09180    0.11332   -0.05202
 44 Ag    0.08884    0.13924   -0.05628
 45 O     0.18242    0.20636   -1.13425
 46 H    -0.25960   -0.36377   -0.52977

System changes: positions 

Initializing position-dependent things.

Density initialized from wave functions
                                             
                                             
                                             
                                             
                                             
                                             
                            H                
                          O                  
                  Ir    Pt     Ag            
                                             
             Pt   PRu    PPt    Pd           
              Pt     Ag                      
       Pt    Ag     Pd     Ru                
        Ag     Ag     Pt           Ag        
                     Pt     Pt               
                Ru     Pd     Pt             
                                             
           Ag    PAg    PPt    Pd            
                                             
            Ir     Pt    PAg    Pd           
       Pd    PPd    APt    Ag                
                                             
        Pd     Pt     Ag                     
                                             
                                             
                                             
                                             
                                             

Positions:
   0 Pd     0.000000    1.637674   10.000000    ( 0.0000,  0.0000,  0.0000)
   1 Pt     2.836535    1.637674   10.000000    ( 0.0000,  0.0000,  0.0000)
   2 Ag     5.673071    1.637674   10.000000    ( 0.0000,  0.0000,  0.0000)
   3 Pd     1.418268    4.094186   10.000000    ( 0.0000,  0.0000,  0.0000)
   4 Ag     4.254803    4.094186   10.000000    ( 0.0000,  0.0000,  0.0000)
   5 Ag     7.091338    4.094186   10.000000    ( 0.0000,  0.0000,  0.0000)
   6 Ag     2.836535    6.550698   10.000000    ( 0.0000,  0.0000,  0.0000)
   7 Pd     5.673071    6.550698   10.000000    ( 0.0000,  0.0000,  0.0000)
   8 Pd     8.509606    6.550698   10.000000    ( 0.0000,  0.0000,  0.0000)
   9 Pd     0.000000    0.000000   12.317643    ( 0.0000,  0.0000,  0.0000)
  10 Pd     2.836535    0.000000   12.317643    ( 0.0000,  0.0000,  0.0000)
  11 Pt     5.673071    0.000000   12.317643    ( 0.0000,  0.0000,  0.0000)
  12 Ir     1.418268    2.456512   12.317643    ( 0.0000,  0.0000,  0.0000)
  13 Pt     4.254803    2.456512   12.317643    ( 0.0000,  0.0000,  0.0000)
  14 Ag     7.091338    2.456512   12.317643    ( 0.0000,  0.0000,  0.0000)
  15 Pt     2.836535    4.913023   12.317643    ( 0.0000,  0.0000,  0.0000)
  16 Pd     5.673071    4.913023   12.317643    ( 0.0000,  0.0000,  0.0000)
  17 Pd     8.509606    4.913023   12.317643    ( 0.0000,  0.0000,  0.0000)
  18 Ag     1.386128    0.763486   14.612023    ( 0.0000,  0.0000,  0.0000)
  19 Ag     4.217093    0.786719   14.656451    ( 0.0000,  0.0000,  0.0000)
  20 Pt     7.062467    0.797185   14.661784    ( 0.0000,  0.0000,  0.0000)
  21 Ru     2.751036    3.304636   14.387976    ( 0.0000,  0.0000,  0.0000)
  22 Pd     5.602412    3.218737   14.640538    ( 0.0000,  0.0000,  0.0000)
  23 Pt     8.522449    3.253198   14.664285    ( 0.0000,  0.0000,  0.0000)
  24 Pt     4.169944    5.653131   14.616080    ( 0.0000,  0.0000,  0.0000)
  25 Pt     7.045824    5.607249   14.667598    ( 0.0000,  0.0000,  0.0000)
  26 Ag     9.874247    5.744868   14.696810    ( 0.0000,  0.0000,  0.0000)
  27 Ag     0.007379    1.607063   16.990760    ( 0.0000,  0.0000,  0.0000)
  28 Ag     2.792699    1.619391   16.881903    ( 0.0000,  0.0000,  0.0000)
  29 Pt     5.669646    1.639472   17.012895    ( 0.0000,  0.0000,  0.0000)
  30 Ag     1.336185    4.089916   17.016444    ( 0.0000,  0.0000,  0.0000)
  31 Pd     4.156458    4.033693   16.813202    ( 0.0000,  0.0000,  0.0000)
  32 Ru     6.949609    4.060458   16.869752    ( 0.0000,  0.0000,  0.0000)
  33 Pd     2.789208    6.566539   17.027294    ( 0.0000,  0.0000,  0.0000)
  34 Pt     5.653807    6.421708   16.907023    ( 0.0000,  0.0000,  0.0000)
  35 Pd     8.427549    6.500637   17.069326    ( 0.0000,  0.0000,  0.0000)
  36 Pt     0.078481   -0.043431   19.273334    ( 0.0000,  0.0000,  0.0000)
  37 Pt     2.811893    0.088983   19.255443    ( 0.0000,  0.0000,  0.0000)
  38 Ag     5.710487    0.009597   19.489266    ( 0.0000,  0.0000,  0.0000)
  39 Pt     1.558494    2.469273   19.392777    ( 0.0000,  0.0000,  0.0000)
  40 Ru     4.237581    2.602808   19.102190    ( 0.0000,  0.0000,  0.0000)
  41 Pt     7.115805    2.491681   19.244991    ( 0.0000,  0.0000,  0.0000)
  42 Ir     3.045359    4.827264   19.147263    ( 0.0000,  0.0000,  0.0000)
  43 Pt     5.720752    4.862886   19.160718    ( 0.0000,  0.0000,  0.0000)
  44 Ag     8.574453    4.900403   19.529645    ( 0.0000,  0.0000,  0.0000)
  45 O      7.120285    2.495311   21.514246    ( 0.0000,  0.0000,  0.0000)
  46 H      7.763971    3.137166   21.922881    ( 0.0000,  0.0000,  0.0000)

Unit cell:
           periodic     x           y           z      points  spacing
  1. axis:    yes    8.509606    0.000000    0.000000    40     0.1842
  2. axis:    yes    4.254803    7.369535    0.000000    40     0.1842
  3. axis:    no     0.000000    0.000000   29.270571   140     0.2091

  Lengths:   8.509606   8.509606  29.270571
  Angles:   90.000000  90.000000  60.000000

Effective grid spacing dv^(1/3) = 0.2016

     iter     time        total  log10-change:
                         energy  eigst   dens
iter:   1 14:40:20  -195.051480  -4.24
iter:   2 14:41:19  -215.081641  -3.01  -2.23
iter:   3 14:42:18  -196.059779  -3.56  -1.59
iter:   4 14:43:16  -194.381157  -4.23  -2.17
iter:   5 14:44:15  -194.230501  -5.26  -2.69
iter:   6 14:45:14  -194.209103c -5.53  -3.18
iter:   7 14:46:13  -194.218372c -5.94  -3.36
iter:   8 14:47:13  -194.206618c -6.16  -3.38
iter:   9 14:48:12  -194.207020c -6.60  -3.70
iter:  10 14:49:11  -194.210459c -6.68  -3.74
iter:  11 14:50:11  -194.205356c -6.58  -3.55
iter:  12 14:51:10  -194.205035c -6.96  -3.79
iter:  13 14:52:10  -194.207058c -7.41c -3.91
iter:  14 14:53:09  -194.205230c -7.71c -4.00
iter:  15 14:54:08  -194.206311c -7.91c -4.15c

Converged after 15 iterations.

Dipole moment: (-6.254771, 7.446488, -0.465881) |e|*Ang

Energy contributions relative to reference atoms: (reference = -12373371.003080)

Kinetic:       -233.251347
Potential:     +106.831682
External:        +0.000000
XC:             -59.873974
Entropy (-ST):   -1.909392
Local:           -6.957977
--------------------------
Free energy:   -195.161007
Extrapolated:  -194.206311

Showing only first 2 kpts
 Kpt  Band  Eigenvalues  Occupancy
  0   367      0.72095    0.90219
  0   368      0.74078    0.80522
  0   369      0.75782    0.72479
  0   370      0.79835    0.54966

  1   367      0.56734    1.58493
  1   368      0.60768    1.43677
  1   369      0.63958    1.29926
  1   370      0.65703    1.21793


Fermi level: 0.70132

No gap

Forces in eV/Ang:
  0 Pd    0.70779    0.06824    0.10009
  1 Pt   -0.60063   -0.16063    0.57198
  2 Ag   -0.09833   -0.08003   -0.55349
  3 Pd   -0.04352   -0.33393    0.20866
  4 Ag   -0.00829    0.03326   -0.57051
  5 Ag    0.14512    0.16215   -0.48982
  6 Ag    0.04271   -0.00481   -0.47535
  7 Pd    0.22553    0.34698    0.07484
  8 Pd   -0.12625    0.13424    0.20244
  9 Pd   -0.01066    0.09339   -0.01687
 10 Pd    0.00034   -0.03600   -0.12471
 11 Pt   -0.03258   -0.14840    0.14610
 12 Ir    0.67850    0.15998   -0.00477
 13 Pt   -0.65543   -0.19138    0.26679
 14 Ag    0.10737   -0.02144    0.10278
 15 Pt   -0.28374    0.02738    0.17448
 16 Pd   -0.07615    0.24924    0.16018
 17 Pd    0.14144   -0.01184    0.18695
 18 Ag   -0.02652   -0.00221   -0.00117
 19 Ag   -0.00137   -0.00714   -0.00517
 20 Pt   -0.02757   -0.02148    0.00383
 21 Ru    0.01132   -0.01734   -0.02423
 22 Pd   -0.01106    0.00369    0.03308
 23 Pt   -0.00619    0.01044   -0.01021
 24 Pt    0.00019    0.00195    0.01297
 25 Pt   -0.00923    0.03245   -0.04132
 26 Ag   -0.02295   -0.01492    0.00432
 27 Ag   -0.10165    0.04020    0.08766
 28 Ag    0.00218   -0.00735    0.01604
 29 Pt    0.21274    0.10072    0.19808
 30 Ag   -0.05435   -0.04186    0.00575
 31 Pd   -0.01801   -0.02734    0.04213
 32 Ru   -0.07455   -0.03573    0.06547
 33 Pd   -0.02300   -0.01192    0.01096
 34 Pt    0.00660   -0.06277    0.01204
 35 Pd   -0.01783   -0.00479   -0.00803
 36 Pt    0.09423   -0.11545   -0.08038
 37 Pt    0.04505   -0.01658    0.05389
 38 Ag   -0.01456   -0.07310   -0.01750
 39 Pt    0.19530   -0.02952   -0.06155
 40 Ru   -0.12038    0.03985   -0.04116
 41 Pt   -0.12864   -0.07860    1.48080
 42 Ir    0.03799   -0.01474    0.02513
 43 Pt   -0.05567    0.08675   -0.08215
 44 Ag    0.08938    0.13664   -0.09598
 45 O     0.03649    0.05507   -1.11053
 46 H    -0.10643   -0.21430   -0.47580

System changes: positions 

Initializing position-dependent things.

Density initialized from wave functions
                                             
                                             
                                             
                                             
                                             
                                             
                            H                
                          O                  
                  Ir    Pt      Ag           
             Pt           Pt                 
                  PRu    Pt     Pd           
       Pt    APt    PAg    Ru                
                                             
        Ag     Ag    PPt    Pt     Ag        
                                             
                Ru     Pd     Pt             
           Ag    PAg    PPt    Pd            
                                             
            Ir     Pt    PAg    Pd           
       Pd     Pd     Pt                      
             Pd     Ag     Ag                
        Pd     Pt     Ag                     
                                             
                                             
                                             
                                             
                                             

Positions:
   0 Pd     0.000000    1.637674   10.000000    ( 0.0000,  0.0000,  0.0000)
   1 Pt     2.836535    1.637674   10.000000    ( 0.0000,  0.0000,  0.0000)
   2 Ag     5.673071    1.637674   10.000000    ( 0.0000,  0.0000,  0.0000)
   3 Pd     1.418268    4.094186   10.000000    ( 0.0000,  0.0000,  0.0000)
   4 Ag     4.254803    4.094186   10.000000    ( 0.0000,  0.0000,  0.0000)
   5 Ag     7.091338    4.094186   10.000000    ( 0.0000,  0.0000,  0.0000)
   6 Ag     2.836535    6.550698   10.000000    ( 0.0000,  0.0000,  0.0000)
   7 Pd     5.673071    6.550698   10.000000    ( 0.0000,  0.0000,  0.0000)
   8 Pd     8.509606    6.550698   10.000000    ( 0.0000,  0.0000,  0.0000)
   9 Pd     0.000000    0.000000   12.317643    ( 0.0000,  0.0000,  0.0000)
  10 Pd     2.836535    0.000000   12.317643    ( 0.0000,  0.0000,  0.0000)
  11 Pt     5.673071    0.000000   12.317643    ( 0.0000,  0.0000,  0.0000)
  12 Ir     1.418268    2.456512   12.317643    ( 0.0000,  0.0000,  0.0000)
  13 Pt     4.254803    2.456512   12.317643    ( 0.0000,  0.0000,  0.0000)
  14 Ag     7.091338    2.456512   12.317643    ( 0.0000,  0.0000,  0.0000)
  15 Pt     2.836535    4.913023   12.317643    ( 0.0000,  0.0000,  0.0000)
  16 Pd     5.673071    4.913023   12.317643    ( 0.0000,  0.0000,  0.0000)
  17 Pd     8.509606    4.913023   12.317643    ( 0.0000,  0.0000,  0.0000)
  18 Ag     1.383169    0.763204   14.611807    ( 0.0000,  0.0000,  0.0000)
  19 Ag     4.216915    0.785855   14.655781    ( 0.0000,  0.0000,  0.0000)
  20 Pt     7.059370    0.794653   14.662109    ( 0.0000,  0.0000,  0.0000)
  21 Ru     2.752202    3.302716   14.385060    ( 0.0000,  0.0000,  0.0000)
  22 Pd     5.601207    3.219146   14.644310    ( 0.0000,  0.0000,  0.0000)
  23 Pt     8.521894    3.254474   14.663060    ( 0.0000,  0.0000,  0.0000)
  24 Pt     4.169889    5.653447   14.617596    ( 0.0000,  0.0000,  0.0000)
  25 Pt     7.044882    5.610944   14.663037    ( 0.0000,  0.0000,  0.0000)
  26 Ag     9.871678    5.743215   14.697324    ( 0.0000,  0.0000,  0.0000)
  27 Ag    -0.003320    1.610974   16.999434    ( 0.0000,  0.0000,  0.0000)
  28 Ag     2.793027    1.618702   16.883943    ( 0.0000,  0.0000,  0.0000)
  29 Pt     5.692705    1.650287   17.034000    ( 0.0000,  0.0000,  0.0000)
  30 Ag     1.330468    4.085361   17.016953    ( 0.0000,  0.0000,  0.0000)
  31 Pd     4.154294    4.030691   16.818203    ( 0.0000,  0.0000,  0.0000)
  32 Ru     6.941041    4.057010   16.876328    ( 0.0000,  0.0000,  0.0000)
  33 Pd     2.786707    6.564963   17.028449    ( 0.0000,  0.0000,  0.0000)
  34 Pt     5.654581    6.414461   16.908624    ( 0.0000,  0.0000,  0.0000)
  35 Pd     8.425441    6.500163   17.068388    ( 0.0000,  0.0000,  0.0000)
  36 Pt     0.089257   -0.056629   19.264624    ( 0.0000,  0.0000,  0.0000)
  37 Pt     2.816680    0.087281   19.261415    ( 0.0000,  0.0000,  0.0000)
  38 Ag     5.708848    0.001388   19.487432    ( 0.0000,  0.0000,  0.0000)
  39 Pt     1.580728    2.465943   19.386530    ( 0.0000,  0.0000,  0.0000)
  40 Ru     4.223387    2.607800   19.097757    ( 0.0000,  0.0000,  0.0000)
  41 Pt     7.101532    2.483415   19.413286    ( 0.0000,  0.0000,  0.0000)
  42 Ir     3.050153    4.825109   19.149990    ( 0.0000,  0.0000,  0.0000)
  43 Pt     5.714085    4.872860   19.152049    ( 0.0000,  0.0000,  0.0000)
  44 Ag     8.584337    4.915562   19.519580    ( 0.0000,  0.0000,  0.0000)
  45 O      7.126372    2.503529   21.391007    ( 0.0000,  0.0000,  0.0000)
  46 H      7.750042    3.111352   21.869466    ( 0.0000,  0.0000,  0.0000)

Unit cell:
           periodic     x           y           z      points  spacing
  1. axis:    yes    8.509606    0.000000    0.000000    40     0.1842
  2. axis:    yes    4.254803    7.369535    0.000000    40     0.1842
  3. axis:    no     0.000000    0.000000   29.270571   140     0.2091

  Lengths:   8.509606   8.509606  29.270571
  Angles:   90.000000  90.000000  60.000000

Effective grid spacing dv^(1/3) = 0.2016

     iter     time        total  log10-change:
                         energy  eigst   dens
iter:   1 14:55:28  -197.802106  -2.88
iter:   2 14:56:28  -210.150877  -2.86  -2.02
iter:   3 14:57:27  -217.345839  -2.68  -1.70
iter:   4 14:58:26  -195.260692  -3.29  -1.58
iter:   5 14:59:26  -194.602689  -4.10  -2.35
iter:   6 15:00:25  -194.616622  -4.83  -2.62
iter:   7 15:01:24  -194.531262c -4.72  -2.69
iter:   8 15:02:23  -194.555867c -5.08  -2.69
iter:   9 15:03:22  -194.462425c -4.81  -2.76
iter:  10 15:04:22  -194.455940c -5.24  -3.07
iter:  11 15:05:22  -194.452581c -5.60  -2.99
iter:  12 15:06:21  -194.449804c -6.17  -3.18
iter:  13 15:07:21  -194.442013c -6.34  -3.31
iter:  14 15:08:20  -194.447097c -5.86  -3.41
iter:  15 15:09:20  -194.447185c -6.42  -3.50
iter:  16 15:10:19  -194.444411c -6.68  -3.54
iter:  17 15:11:18  -194.444164c -6.73  -3.71
iter:  18 15:12:19  -194.443973c -6.83  -3.81
iter:  19 15:13:18  -194.441256c -6.91  -3.93
iter:  20 15:14:18  -194.442515c -7.64c -3.79
iter:  21 15:15:17  -194.442790c -7.53c -4.16c

Converged after 21 iterations.

Dipole moment: (-7.763186, 8.185479, -0.257068) |e|*Ang

Energy contributions relative to reference atoms: (reference = -12373371.003080)

Kinetic:       -227.731439
Potential:     +102.071849
External:        +0.000000
XC:             -60.869713
Entropy (-ST):   -1.890290
Local:           -6.968343
--------------------------
Free energy:   -195.387936
Extrapolated:  -194.442790

Showing only first 2 kpts
 Kpt  Band  Eigenvalues  Occupancy
  0   367      0.82084    0.89744
  0   368      0.83550    0.82561
  0   369      0.85209    0.74649
  0   370      0.89103    0.57493

  1   367      0.66715    1.58204
  1   368      0.69688    1.47531
  1   369      0.73984    1.29323
  1   370      0.75450    1.22488


Fermi level: 0.80026

No gap

Forces in eV/Ang:
  0 Pd    0.72568    0.06807    0.10577
  1 Pt   -0.61892   -0.17657    0.57933
  2 Ag   -0.10107   -0.08339   -0.54541
  3 Pd   -0.05217   -0.33509    0.21437
  4 Ag   -0.00752    0.03886   -0.56240
  5 Ag    0.15181    0.17001   -0.48276
  6 Ag    0.04353   -0.00675   -0.46484
  7 Pd    0.22969    0.35500    0.08736
  8 Pd   -0.13074    0.12954    0.20965
  9 Pd   -0.00851    0.08871   -0.02176
 10 Pd   -0.00261   -0.04902   -0.11401
 11 Pt   -0.03998   -0.15734    0.14248
 12 Ir    0.67589    0.15221   -0.01513
 13 Pt   -0.64264   -0.19431    0.27188
 14 Ag    0.10360   -0.01998    0.11196
 15 Pt   -0.27988    0.04219    0.17569
 16 Pd   -0.07937    0.25027    0.15688
 17 Pd    0.13868   -0.00556    0.17460
 18 Ag   -0.02921    0.01439    0.03110
 19 Ag    0.01191    0.00946    0.02837
 20 Pt   -0.00723    0.00236    0.02011
 21 Ru   -0.00590   -0.01686    0.00751
 22 Pd   -0.00628   -0.00505    0.02218
 23 Pt   -0.01352   -0.02185    0.00311
 24 Pt   -0.00819   -0.01319    0.01308
 25 Pt   -0.01602   -0.02216    0.02171
 26 Ag   -0.00854   -0.01770    0.00657
 27 Ag   -0.10344    0.06791    0.24945
 28 Ag    0.00515   -0.05560   -0.03044
 29 Pt    0.12348    0.11556    0.26899
 30 Ag   -0.00009   -0.00589   -0.01885
 31 Pd   -0.06433    0.00556   -0.04468
 32 Ru   -0.05135    0.07028   -0.06266
 33 Pd   -0.02258   -0.02951   -0.00706
 34 Pt    0.01022    0.02274   -0.08591
 35 Pd   -0.00536    0.02481   -0.01887
 36 Pt    0.03036   -0.05925    0.00329
 37 Pt    0.06445   -0.02780   -0.01968
 38 Ag    0.00036   -0.06298   -0.04109
 39 Pt    0.04725    0.02525   -0.01448
 40 Ru    0.01790   -0.08828    0.00615
 41 Pt   -0.03832   -0.11219   -0.67021
 42 Ir   -0.05596    0.05659   -0.03539
 43 Pt    0.07727   -0.00027    0.03239
 44 Ag    0.03614    0.01062   -0.07259
 45 O    -0.13226   -0.08474    0.89482
 46 H     0.00209   -0.09660   -0.54245

System changes: positions 

Initializing position-dependent things.

Density initialized from wave functions
                                             
                                             
                                             
                                             
                                             
                                             
                            H                
                          O                  
                  Ir    Pt      Ag           
                                             
             Pt   PRu    PPt    Pd           
       Pt     Pt     Ag                      
             Ag     Pd     Ru                
        Ag     Ag     Pt           Ag        
                     Pt     Pt               
                Ru     Pd     Pt             
                                             
           Ag    PAg    PPt    Pd            
                                             
            Ir     Pt    PAg    Pd           
       Pd    PPd    APt    Ag                
                                             
        Pd     Pt     Ag                     
                                             
                                             
                                             
                                             
                                             

Positions:
   0 Pd     0.000000    1.637674   10.000000    ( 0.0000,  0.0000,  0.0000)
   1 Pt     2.836535    1.637674   10.000000    ( 0.0000,  0.0000,  0.0000)
   2 Ag     5.673071    1.637674   10.000000    ( 0.0000,  0.0000,  0.0000)
   3 Pd     1.418268    4.094186   10.000000    ( 0.0000,  0.0000,  0.0000)
   4 Ag     4.254803    4.094186   10.000000    ( 0.0000,  0.0000,  0.0000)
   5 Ag     7.091338    4.094186   10.000000    ( 0.0000,  0.0000,  0.0000)
   6 Ag     2.836535    6.550698   10.000000    ( 0.0000,  0.0000,  0.0000)
   7 Pd     5.673071    6.550698   10.000000    ( 0.0000,  0.0000,  0.0000)
   8 Pd     8.509606    6.550698   10.000000    ( 0.0000,  0.0000,  0.0000)
   9 Pd     0.000000    0.000000   12.317643    ( 0.0000,  0.0000,  0.0000)
  10 Pd     2.836535    0.000000   12.317643    ( 0.0000,  0.0000,  0.0000)
  11 Pt     5.673071    0.000000   12.317643    ( 0.0000,  0.0000,  0.0000)
  12 Ir     1.418268    2.456512   12.317643    ( 0.0000,  0.0000,  0.0000)
  13 Pt     4.254803    2.456512   12.317643    ( 0.0000,  0.0000,  0.0000)
  14 Ag     7.091338    2.456512   12.317643    ( 0.0000,  0.0000,  0.0000)
  15 Pt     2.836535    4.913023   12.317643    ( 0.0000,  0.0000,  0.0000)
  16 Pd     5.673071    4.913023   12.317643    ( 0.0000,  0.0000,  0.0000)
  17 Pd     8.509606    4.913023   12.317643    ( 0.0000,  0.0000,  0.0000)
  18 Ag     1.383531    0.763415   14.612175    ( 0.0000,  0.0000,  0.0000)
  19 Ag     4.217077    0.786145   14.656223    ( 0.0000,  0.0000,  0.0000)
  20 Pt     7.059989    0.795244   14.662243    ( 0.0000,  0.0000,  0.0000)
  21 Ru     2.751879    3.302972   14.385790    ( 0.0000,  0.0000,  0.0000)
  22 Pd     5.601412    3.219002   14.643694    ( 0.0000,  0.0000,  0.0000)
  23 Pt     8.521880    3.253964   14.663366    ( 0.0000,  0.0000,  0.0000)
  24 Pt     4.169817    5.653241   14.617391    ( 0.0000,  0.0000,  0.0000)
  25 Pt     7.044929    5.609889   14.664282    ( 0.0000,  0.0000,  0.0000)
  26 Ag     9.872166    5.743403   14.697276    ( 0.0000,  0.0000,  0.0000)
  27 Ag    -0.001985    1.610794   17.000052    ( 0.0000,  0.0000,  0.0000)
  28 Ag     2.793007    1.618285   16.883175    ( 0.0000,  0.0000,  0.0000)
  29 Pt     5.688808    1.649052   17.032036    ( 0.0000,  0.0000,  0.0000)
  30 Ag     1.331750    4.086321   17.016644    ( 0.0000,  0.0000,  0.0000)
  31 Pd     4.154116    4.031421   16.816625    ( 0.0000,  0.0000,  0.0000)
  32 Ru     6.942430    4.058508   16.874206    ( 0.0000,  0.0000,  0.0000)
  33 Pd     2.787035    6.565011   17.028117    ( 0.0000,  0.0000,  0.0000)
  34 Pt     5.654513    6.416317   16.907383    ( 0.0000,  0.0000,  0.0000)
  35 Pd     8.425857    6.500524   17.068404    ( 0.0000,  0.0000,  0.0000)
  36 Pt     0.087157   -0.054285   19.266610    ( 0.0000,  0.0000,  0.0000)
  37 Pt     2.816270    0.087377   19.259874    ( 0.0000,  0.0000,  0.0000)
  38 Ag     5.709219    0.002578   19.487421    ( 0.0000,  0.0000,  0.0000)
  39 Pt     1.576237    2.466948   19.387784    ( 0.0000,  0.0000,  0.0000)
  40 Ru     4.226746    2.605776   19.098814    ( 0.0000,  0.0000,  0.0000)
  41 Pt     7.104335    2.484114   19.368714    ( 0.0000,  0.0000,  0.0000)
  42 Ir     3.048507    4.826171   19.149015    ( 0.0000,  0.0000,  0.0000)
  43 Pt     5.716371    4.870625   19.154327    ( 0.0000,  0.0000,  0.0000)
  44 Ag     8.582494    4.912276   19.521091    ( 0.0000,  0.0000,  0.0000)
  45 O      7.123659    2.500829   21.427821    ( 0.0000,  0.0000,  0.0000)
  46 H      7.753171    3.116128   21.875844    ( 0.0000,  0.0000,  0.0000)

Unit cell:
           periodic     x           y           z      points  spacing
  1. axis:    yes    8.509606    0.000000    0.000000    40     0.1842
  2. axis:    yes    4.254803    7.369535    0.000000    40     0.1842
  3. axis:    no     0.000000    0.000000   29.270571   140     0.2091

  Lengths:   8.509606   8.509606  29.270571
  Angles:   90.000000  90.000000  60.000000

Effective grid spacing dv^(1/3) = 0.2016

     iter     time        total  log10-change:
                         energy  eigst   dens
iter:   1 15:16:37  -194.703773  -3.90
iter:   2 15:17:36  -197.862323  -3.88  -2.57
iter:   3 15:18:36  -194.647482  -4.01  -1.95
iter:   4 15:19:35  -194.488113  -5.11  -2.64
iter:   5 15:20:35  -194.474527c -5.37  -2.93
iter:   6 15:21:34  -194.459330c -5.77  -2.92
iter:   7 15:22:34  -194.460205c -6.25  -3.27
iter:   8 15:23:33  -194.454739c -6.34  -3.43
iter:   9 15:24:32  -194.451298c -6.13  -3.33
iter:  10 15:25:32  -194.460906c -6.18  -3.64
iter:  11 15:26:31  -194.453185c -6.77  -3.38
iter:  12 15:27:31  -194.451531c -7.39  -3.84
iter:  13 15:28:30  -194.453070c -7.52c -4.02c

Converged after 13 iterations.

Dipole moment: (-7.434223, 8.099665, -0.328440) |e|*Ang

Energy contributions relative to reference atoms: (reference = -12373371.003080)

Kinetic:       -229.638928
Potential:     +103.766655
External:        +0.000000
XC:             -60.587215
Entropy (-ST):   -1.892578
Local:           -7.047292
--------------------------
Free energy:   -195.399358
Extrapolated:  -194.453070

Showing only first 2 kpts
 Kpt  Band  Eigenvalues  Occupancy
  0   367      0.78762    0.90151
  0   368      0.80463    0.81818
  0   369      0.82121    0.73939
  0   370      0.86087    0.56579

  1   367      0.63435    1.58335
  1   368      0.66678    1.46633
  1   369      0.70721    1.29429
  1   370      0.72179    1.22636


Fermi level: 0.76786

No gap

Forces in eV/Ang:
  0 Pd    0.71155    0.06739    0.11113
  1 Pt   -0.60590   -0.16856    0.58794
  2 Ag   -0.09772   -0.08051   -0.54694
  3 Pd   -0.04686   -0.33231    0.22165
  4 Ag   -0.00633    0.03709   -0.56258
  5 Ag    0.14677    0.16599   -0.48107
  6 Ag    0.04377   -0.00512   -0.46693
  7 Pd    0.22593    0.34663    0.09295
  8 Pd   -0.12762    0.13067    0.21583
  9 Pd   -0.00971    0.08925   -0.01800
 10 Pd   -0.00328   -0.04964   -0.11051
 11 Pt   -0.03594   -0.15470    0.14590
 12 Ir    0.67529    0.15539   -0.00801
 13 Pt   -0.64448   -0.19194    0.27032
 14 Ag    0.10400   -0.01884    0.10995
 15 Pt   -0.27934    0.03834    0.17625
 16 Pd   -0.07751    0.24960    0.15729
 17 Pd    0.13678   -0.00865    0.18157
 18 Ag   -0.02663    0.00756    0.01729
 19 Ag    0.01140    0.00320    0.02170
 20 Pt   -0.01714   -0.00523    0.01753
 21 Ru   -0.00016   -0.01531   -0.00253
 22 Pd   -0.00673   -0.00468    0.03448
 23 Pt   -0.01390   -0.00957   -0.00629
 24 Pt   -0.00663   -0.00779    0.01606
 25 Pt   -0.01019   -0.00355   -0.00256
 26 Ag   -0.01328   -0.01400    0.00644
 27 Ag   -0.08641    0.05043    0.18513
 28 Ag    0.01315   -0.03385   -0.00209
 29 Pt    0.11747    0.10783    0.21715
 30 Ag    0.00076   -0.00850   -0.01446
 31 Pd   -0.04680   -0.00125    0.00617
 32 Ru   -0.07351    0.07062   -0.03478
 33 Pd   -0.01740   -0.03760   -0.00532
 34 Pt    0.00200   -0.02317   -0.02865
 35 Pd   -0.00903    0.01948   -0.01383
 36 Pt    0.05689   -0.08301    0.01455
 37 Pt    0.04223   -0.01736   -0.02976
 38 Ag    0.00595   -0.05427   -0.00859
 39 Pt    0.09471    0.00053    0.00874
 40 Ru   -0.03225   -0.02075    0.02123
 41 Pt   -0.04647   -0.08275    0.58147
 42 Ir   -0.00498    0.01805   -0.05162
 43 Pt    0.01854    0.01909    0.02663
 44 Ag    0.02942    0.02215   -0.04486
 45 O    -0.23201   -0.17962   -0.19107
 46 H     0.14897    0.04807   -0.37270

System changes: positions 

Initializing position-dependent things.

Density initialized from wave functions
                                             
                                             
                                             
                                             
                                             
                                             
                            H                
                          O                  
                  Ir    Pt      Ag           
             Pt           Pt    Pd           
                  PRu    Pt                  
       Pt    APt    PAg    Ru                
                                             
        Ag     Ag    PPt    Pt     Ag        
                                             
                Ru     Pd     Pt             
           Ag    PAg    PPt    Pd            
                                             
            Ir     Pt    PAg    Pd           
       Pd     Pd     Pt                      
             Pd     Ag     Ag                
        Pd     Pt     Ag                     
                                             
                                             
                                             
                                             
                                             

Positions:
   0 Pd     0.000000    1.637674   10.000000    ( 0.0000,  0.0000,  0.0000)
   1 Pt     2.836535    1.637674   10.000000    ( 0.0000,  0.0000,  0.0000)
   2 Ag     5.673071    1.637674   10.000000    ( 0.0000,  0.0000,  0.0000)
   3 Pd     1.418268    4.094186   10.000000    ( 0.0000,  0.0000,  0.0000)
   4 Ag     4.254803    4.094186   10.000000    ( 0.0000,  0.0000,  0.0000)
   5 Ag     7.091338    4.094186   10.000000    ( 0.0000,  0.0000,  0.0000)
   6 Ag     2.836535    6.550698   10.000000    ( 0.0000,  0.0000,  0.0000)
   7 Pd     5.673071    6.550698   10.000000    ( 0.0000,  0.0000,  0.0000)
   8 Pd     8.509606    6.550698   10.000000    ( 0.0000,  0.0000,  0.0000)
   9 Pd     0.000000    0.000000   12.317643    ( 0.0000,  0.0000,  0.0000)
  10 Pd     2.836535    0.000000   12.317643    ( 0.0000,  0.0000,  0.0000)
  11 Pt     5.673071    0.000000   12.317643    ( 0.0000,  0.0000,  0.0000)
  12 Ir     1.418268    2.456512   12.317643    ( 0.0000,  0.0000,  0.0000)
  13 Pt     4.254803    2.456512   12.317643    ( 0.0000,  0.0000,  0.0000)
  14 Ag     7.091338    2.456512   12.317643    ( 0.0000,  0.0000,  0.0000)
  15 Pt     2.836535    4.913023   12.317643    ( 0.0000,  0.0000,  0.0000)
  16 Pd     5.673071    4.913023   12.317643    ( 0.0000,  0.0000,  0.0000)
  17 Pd     8.509606    4.913023   12.317643    ( 0.0000,  0.0000,  0.0000)
  18 Ag     1.382872    0.763505   14.612418    ( 0.0000,  0.0000,  0.0000)
  19 Ag     4.217203    0.786113   14.656446    ( 0.0000,  0.0000,  0.0000)
  20 Pt     7.059481    0.794928   14.662501    ( 0.0000,  0.0000,  0.0000)
  21 Ru     2.751969    3.302571   14.385471    ( 0.0000,  0.0000,  0.0000)
  22 Pd     5.601204    3.218984   14.644490    ( 0.0000,  0.0000,  0.0000)
  23 Pt     8.521658    3.253939   14.663185    ( 0.0000,  0.0000,  0.0000)
  24 Pt     4.169714    5.653163   14.617750    ( 0.0000,  0.0000,  0.0000)
  25 Pt     7.044685    5.610167   14.663868    ( 0.0000,  0.0000,  0.0000)
  26 Ag     9.871744    5.743038   14.697416    ( 0.0000,  0.0000,  0.0000)
  27 Ag    -0.004218    1.611863   17.003469    ( 0.0000,  0.0000,  0.0000)
  28 Ag     2.793186    1.617710   16.883276    ( 0.0000,  0.0000,  0.0000)
  29 Pt     5.692689    1.651553   17.037129    ( 0.0000,  0.0000,  0.0000)
  30 Ag     1.331187    4.085755   17.016485    ( 0.0000,  0.0000,  0.0000)
  31 Pd     4.153211    4.031120   16.817060    ( 0.0000,  0.0000,  0.0000)
  32 Ru     6.940656    4.059092   16.874282    ( 0.0000,  0.0000,  0.0000)
  33 Pd     2.786536    6.564375   17.028158    ( 0.0000,  0.0000,  0.0000)
  34 Pt     5.654655    6.415415   16.906989    ( 0.0000,  0.0000,  0.0000)
  35 Pd     8.425524    6.500749   17.068106    ( 0.0000,  0.0000,  0.0000)
  36 Pt     0.088935   -0.056665   19.265861    ( 0.0000,  0.0000,  0.0000)
  37 Pt     2.817375    0.086951   19.260158    ( 0.0000,  0.0000,  0.0000)
  38 Ag     5.709099    0.000986   19.487004    ( 0.0000,  0.0000,  0.0000)
  39 Pt     1.579636    2.466697   19.387205    ( 0.0000,  0.0000,  0.0000)
  40 Ru     4.224969    2.605825   19.098575    ( 0.0000,  0.0000,  0.0000)
  41 Pt     7.102283    2.482124   19.389265    ( 0.0000,  0.0000,  0.0000)
  42 Ir     3.048800    4.826277   19.148699    ( 0.0000,  0.0000,  0.0000)
  43 Pt     5.716091    4.871867   19.153822    ( 0.0000,  0.0000,  0.0000)
  44 Ag     8.583925    4.914098   19.519414    ( 0.0000,  0.0000,  0.0000)
  45 O      7.121906    2.499953   21.416672    ( 0.0000,  0.0000,  0.0000)
  46 H      7.752859    3.113304   21.864806    ( 0.0000,  0.0000,  0.0000)

Unit cell:
           periodic     x           y           z      points  spacing
  1. axis:    yes    8.509606    0.000000    0.000000    40     0.1842
  2. axis:    yes    4.254803    7.369535    0.000000    40     0.1842
  3. axis:    no     0.000000    0.000000   29.270571   140     0.2091

  Lengths:   8.509606   8.509606  29.270571
  Angles:   90.000000  90.000000  60.000000

Effective grid spacing dv^(1/3) = 0.2016

     iter     time        total  log10-change:
                         energy  eigst   dens
iter:   1 15:29:50  -195.426265  -4.16
iter:   2 15:30:49  -215.402558  -2.96  -2.21
iter:   3 15:31:48  -195.963046  -3.47  -1.60
iter:   4 15:32:48  -194.697185  -4.23  -2.24
iter:   5 15:33:47  -194.500800  -5.17  -2.64
iter:   6 15:34:47  -194.474910c -5.52  -3.15
iter:   7 15:35:46  -194.475434c -5.95  -3.42
iter:   8 15:36:46  -194.466100c -6.03  -3.47
iter:   9 15:37:45  -194.467459c -6.58  -3.67
iter:  10 15:38:44  -194.467549c -6.76  -3.83
iter:  11 15:39:43  -194.465012c -6.79  -3.92
iter:  12 15:40:42  -194.465861c -7.24  -3.79
iter:  13 15:41:41  -194.467223c -7.46c -4.10c

Converged after 13 iterations.

Dipole moment: (-7.646242, 8.258060, -0.307810) |e|*Ang

Energy contributions relative to reference atoms: (reference = -12373371.003080)

Kinetic:       -229.191201
Potential:     +103.343852
External:        +0.000000
XC:             -60.704411
Entropy (-ST):   -1.890436
Local:           -6.970244
--------------------------
Free energy:   -195.412441
Extrapolated:  -194.467223

Showing only first 2 kpts
 Kpt  Band  Eigenvalues  Occupancy
  0   367      0.79893    0.90188
  0   368      0.81553    0.82050
  0   369      0.83234    0.74058
  0   370      0.87097    0.57103

  1   367      0.64580    1.58312
  1   368      0.67693    1.47114
  1   369      0.71851    1.29467
  1   370      0.73309    1.22672


Fermi level: 0.77924

No gap

Forces in eV/Ang:
  0 Pd    0.71178    0.06688    0.11998
  1 Pt   -0.60512   -0.16433    0.59821
  2 Ag   -0.09728   -0.08211   -0.53539
  3 Pd   -0.04451   -0.33511    0.22975
  4 Ag   -0.01026    0.03515   -0.55261
  5 Ag    0.14859    0.16351   -0.47051
  6 Ag    0.04316   -0.00418   -0.45815
  7 Pd    0.22437    0.34998    0.10342
  8 Pd   -0.12598    0.13168    0.22458
  9 Pd   -0.01490    0.09129   -0.01504
 10 Pd   -0.00029   -0.04386   -0.10762
 11 Pt   -0.03507   -0.15281    0.15029
 12 Ir    0.67224    0.15735   -0.00684
 13 Pt   -0.64108   -0.19206    0.27527
 14 Ag    0.10241   -0.02137    0.11493
 15 Pt   -0.27932    0.03812    0.18197
 16 Pd   -0.08207    0.24393    0.16143
 17 Pd    0.14060   -0.01163    0.18187
 18 Ag   -0.02563    0.01511    0.02934
 19 Ag    0.01585    0.01210    0.03626
 20 Pt   -0.01552    0.00448    0.03090
 21 Ru    0.00117   -0.01679    0.00592
 22 Pd   -0.01382   -0.01601    0.02286
 23 Pt   -0.01303   -0.02313    0.01190
 24 Pt   -0.01200   -0.01096    0.00840
 25 Pt   -0.00939   -0.00884    0.00906
 26 Ag   -0.01004   -0.01176    0.00543
 27 Ag   -0.09543    0.08126    0.22110
 28 Ag    0.00479   -0.04361   -0.03584
 29 Pt    0.12162    0.10690    0.22294
 30 Ag   -0.03837   -0.02090   -0.01057
 31 Pd   -0.03432   -0.01237   -0.03203
 32 Ru   -0.02111    0.02410    0.01618
 33 Pd   -0.02112   -0.00015   -0.01679
 34 Pt    0.00593    0.01454   -0.06459
 35 Pd   -0.00206    0.01553   -0.03169
 36 Pt    0.03761   -0.04226    0.00099
 37 Pt    0.04260   -0.02738    0.02332
 38 Ag    0.00634   -0.05654   -0.02975
 39 Pt    0.03356    0.01018   -0.03127
 40 Ru    0.03683   -0.04410    0.00514
 41 Pt   -0.06185   -0.10334   -0.12672
 42 Ir   -0.03626    0.03702    0.01922
 43 Pt    0.06004   -0.01717   -0.00861
 44 Ag    0.03583    0.01295   -0.10188
 45 O    -0.23395   -0.20132    0.05579
 46 H     0.15736    0.04651   -0.38850

System changes: positions 

Initializing position-dependent things.

Density initialized from wave functions
                                             
                                             
                                             
                                             
                                             
                                             
                            H                
                          O                  
                  Ir    Pt      Ag           
             Pt   Pd      Pt    Pd           
                   Ru    Pt                  
       Pt    APt    PAg    Ru                
                                             
        Ag     Ag    PPt    Pt     Ag        
                                             
                Ru     Pd     Pt             
           Ag    PAg    PPt    Pd            
                                             
            Ir     Pt    PAg    Pd           
       Pd     Pd     Pt                      
             Pd     Ag     Ag                
        Pd     Pt     Ag                     
                                             
                                             
                                             
                                             
                                             

Positions:
   0 Pd     0.000000    1.637674   10.000000    ( 0.0000,  0.0000,  0.0000)
   1 Pt     2.836535    1.637674   10.000000    ( 0.0000,  0.0000,  0.0000)
   2 Ag     5.673071    1.637674   10.000000    ( 0.0000,  0.0000,  0.0000)
   3 Pd     1.418268    4.094186   10.000000    ( 0.0000,  0.0000,  0.0000)
   4 Ag     4.254803    4.094186   10.000000    ( 0.0000,  0.0000,  0.0000)
   5 Ag     7.091338    4.094186   10.000000    ( 0.0000,  0.0000,  0.0000)
   6 Ag     2.836535    6.550698   10.000000    ( 0.0000,  0.0000,  0.0000)
   7 Pd     5.673071    6.550698   10.000000    ( 0.0000,  0.0000,  0.0000)
   8 Pd     8.509606    6.550698   10.000000    ( 0.0000,  0.0000,  0.0000)
   9 Pd     0.000000    0.000000   12.317643    ( 0.0000,  0.0000,  0.0000)
  10 Pd     2.836535    0.000000   12.317643    ( 0.0000,  0.0000,  0.0000)
  11 Pt     5.673071    0.000000   12.317643    ( 0.0000,  0.0000,  0.0000)
  12 Ir     1.418268    2.456512   12.317643    ( 0.0000,  0.0000,  0.0000)
  13 Pt     4.254803    2.456512   12.317643    ( 0.0000,  0.0000,  0.0000)
  14 Ag     7.091338    2.456512   12.317643    ( 0.0000,  0.0000,  0.0000)
  15 Pt     2.836535    4.913023   12.317643    ( 0.0000,  0.0000,  0.0000)
  16 Pd     5.673071    4.913023   12.317643    ( 0.0000,  0.0000,  0.0000)
  17 Pd     8.509606    4.913023   12.317643    ( 0.0000,  0.0000,  0.0000)
  18 Ag     1.381956    0.763866   14.613162    ( 0.0000,  0.0000,  0.0000)
  19 Ag     4.217599    0.786332   14.657307    ( 0.0000,  0.0000,  0.0000)
  20 Pt     7.058888    0.794817   14.663255    ( 0.0000,  0.0000,  0.0000)
  21 Ru     2.752001    3.301998   14.385380    ( 0.0000,  0.0000,  0.0000)
  22 Pd     5.600822    3.218655   14.645436    ( 0.0000,  0.0000,  0.0000)
  23 Pt     8.521287    3.253460   14.663296    ( 0.0000,  0.0000,  0.0000)
  24 Pt     4.169391    5.652903   14.618155    ( 0.0000,  0.0000,  0.0000)
  25 Pt     7.044358    5.610110   14.663881    ( 0.0000,  0.0000,  0.0000)
  26 Ag     9.871303    5.742578   14.697619    ( 0.0000,  0.0000,  0.0000)
  27 Ag    -0.007329    1.614009   17.009870    ( 0.0000,  0.0000,  0.0000)
  28 Ag     2.793415    1.616466   16.882645    ( 0.0000,  0.0000,  0.0000)
  29 Pt     5.697212    1.655122   17.044532    ( 0.0000,  0.0000,  0.0000)
  30 Ag     1.330258    4.085075   17.016114    ( 0.0000,  0.0000,  0.0000)
  31 Pd     4.151871    4.030754   16.816664    ( 0.0000,  0.0000,  0.0000)
  32 Ru     6.939093    4.060207   16.874276    ( 0.0000,  0.0000,  0.0000)
  33 Pd     2.785829    6.563880   17.027824    ( 0.0000,  0.0000,  0.0000)
  34 Pt     5.654873    6.415189   16.905415    ( 0.0000,  0.0000,  0.0000)
  35 Pd     8.425264    6.501246   17.067289    ( 0.0000,  0.0000,  0.0000)
  36 Pt     0.090752   -0.058984   19.265579    ( 0.0000,  0.0000,  0.0000)
  37 Pt     2.818874    0.086172   19.260659    ( 0.0000,  0.0000,  0.0000)
  38 Ag     5.709162   -0.001108   19.486160    ( 0.0000,  0.0000,  0.0000)
  39 Pt     1.582333    2.466805   19.386447    ( 0.0000,  0.0000,  0.0000)
  40 Ru     4.224566    2.604940   19.098624    ( 0.0000,  0.0000,  0.0000)
  41 Pt     7.099944    2.478940   19.397413    ( 0.0000,  0.0000,  0.0000)
  42 Ir     3.048277    4.827048   19.148748    ( 0.0000,  0.0000,  0.0000)
  43 Pt     5.717155    4.872276   19.153619    ( 0.0000,  0.0000,  0.0000)
  44 Ag     8.585427    4.915307   19.516579    ( 0.0000,  0.0000,  0.0000)
  45 O      7.116541    2.495829   21.413849    ( 0.0000,  0.0000,  0.0000)
  46 H      7.755336    3.112108   21.850136    ( 0.0000,  0.0000,  0.0000)

Unit cell:
           periodic     x           y           z      points  spacing
  1. axis:    yes    8.509606    0.000000    0.000000    40     0.1842
  2. axis:    yes    4.254803    7.369535    0.000000    40     0.1842
  3. axis:    no     0.000000    0.000000   29.270571   140     0.2091

  Lengths:   8.509606   8.509606  29.270571
  Angles:   90.000000  90.000000  60.000000

Effective grid spacing dv^(1/3) = 0.2016

     iter     time        total  log10-change:
                         energy  eigst   dens
iter:   1 15:43:00  -195.093310  -4.39
iter:   2 15:43:59  -209.933330  -3.13  -2.29
iter:   3 15:44:58  -195.450040  -3.61  -1.66
iter:   4 15:45:57  -194.606447  -4.46  -2.33
iter:   5 15:46:56  -194.506056  -5.43  -2.79
iter:   6 15:47:55  -194.490720c -5.82  -3.23
iter:   7 15:48:54  -194.484071c -6.02  -3.45
iter:   8 15:49:53  -194.480092c -6.18  -3.67
iter:   9 15:50:53  -194.479441c -6.62  -3.92
iter:  10 15:51:52  -194.480519c -7.08  -4.06c
iter:  11 15:52:51  -194.478923c -7.09  -4.11c
iter:  12 15:53:50  -194.481508c -7.03  -4.04c
iter:  13 15:54:50  -194.480231c -7.65c -3.90
iter:  14 15:55:49  -194.479697c -8.09c -4.25c

Converged after 14 iterations.

Dipole moment: (-7.790270, 8.478378, -0.304070) |e|*Ang

Energy contributions relative to reference atoms: (reference = -12373371.003080)

Kinetic:       -229.047122
Potential:     +103.238575
External:        +0.000000
XC:             -60.730822
Entropy (-ST):   -1.890807
Local:           -6.994925
--------------------------
Free energy:   -195.425101
Extrapolated:  -194.479697

Showing only first 2 kpts
 Kpt  Band  Eigenvalues  Occupancy
  0   367      0.79873    0.90032
  0   368      0.81449    0.82310
  0   369      0.83186    0.74044
  0   370      0.86949    0.57499

  1   367      0.64496    1.58422
  1   368      0.67561    1.47428
  1   369      0.71808    1.29426
  1   370      0.73292    1.22511


Fermi level: 0.77873

No gap

Forces in eV/Ang:
  0 Pd    0.71013    0.06688    0.11021
  1 Pt   -0.60478   -0.16431    0.58310
  2 Ag   -0.09782   -0.08070   -0.54410
  3 Pd   -0.04437   -0.33265    0.21825
  4 Ag   -0.00798    0.03603   -0.56101
  5 Ag    0.14589    0.16352   -0.47917
  6 Ag    0.04382   -0.00520   -0.46567
  7 Pd    0.22234    0.34683    0.09211
  8 Pd   -0.12476    0.13160    0.21262
  9 Pd   -0.01567    0.09058   -0.01779
 10 Pd   -0.00150   -0.04359   -0.10804
 11 Pt   -0.03398   -0.15143    0.14740
 12 Ir    0.67152    0.15523   -0.01118
 13 Pt   -0.63854   -0.19292    0.27135
 14 Ag    0.10159   -0.02173    0.11199
 15 Pt   -0.27834    0.03912    0.17517
 16 Pd   -0.08207    0.24361    0.15569
 17 Pd    0.13954   -0.01306    0.17785
 18 Ag   -0.02754    0.01707    0.02399
 19 Ag    0.01975    0.01194    0.03254
 20 Pt   -0.01319    0.00813    0.03438
 21 Ru   -0.00167   -0.01676   -0.00220
 22 Pd   -0.01294   -0.02231    0.01389
 23 Pt   -0.01440   -0.02861    0.00459
 24 Pt   -0.01445   -0.00586   -0.00394
 25 Pt   -0.00466   -0.00598   -0.00848
 26 Ag   -0.00946   -0.00868   -0.00265
 27 Ag   -0.06135    0.06624    0.18564
 28 Ag    0.00396   -0.03813   -0.02982
 29 Pt    0.07426    0.07949    0.16377
 30 Ag   -0.02729   -0.01790   -0.01364
 31 Pd   -0.04090   -0.01105   -0.02182
 32 Ru   -0.01966    0.03583    0.00215
 33 Pd   -0.01484    0.00223   -0.01954
 34 Pt   -0.00879    0.02173   -0.04996
 35 Pd    0.00466    0.02206   -0.03194
 36 Pt    0.03704   -0.04178    0.02434
 37 Pt    0.03396   -0.02027    0.02401
 38 Ag    0.00882   -0.05897   -0.01113
 39 Pt    0.02322    0.00954    0.00070
 40 Ru    0.02879   -0.02520    0.02659
 41 Pt   -0.05201   -0.08580   -0.15549
 42 Ir   -0.01258    0.01732    0.01719
 43 Pt    0.04836   -0.02240    0.01108
 44 Ag    0.02159   -0.01319   -0.07138
 45 O    -0.16414   -0.12940    0.18209
 46 H     0.10311   -0.00666   -0.38645

System changes: positions 

Initializing position-dependent things.

Density initialized from wave functions
                                             
                                             
                                             
                                             
                                             
                                             
                            H                
                          O                  
                  Ir     Pt     Ag           
             Pt   Pd      Pt    Pd           
                   Ru    Pt                  
        Pt   APt    PAg    Ru                
                                             
        Ag     Ag    PPt    Pt     Ag        
                              Pt             
                Ru     Pd                    
           Ag    PAg    PPt    Pd            
                                             
            Ir     Pt     Ag    Pd           
       Pd     Pd     Pt                      
             Pd     Ag     Ag                
        Pd     Pt     Ag                     
                                             
                                             
                                             
                                             
                                             

Positions:
   0 Pd     0.000000    1.637674   10.000000    ( 0.0000,  0.0000,  0.0000)
   1 Pt     2.836535    1.637674   10.000000    ( 0.0000,  0.0000,  0.0000)
   2 Ag     5.673071    1.637674   10.000000    ( 0.0000,  0.0000,  0.0000)
   3 Pd     1.418268    4.094186   10.000000    ( 0.0000,  0.0000,  0.0000)
   4 Ag     4.254803    4.094186   10.000000    ( 0.0000,  0.0000,  0.0000)
   5 Ag     7.091338    4.094186   10.000000    ( 0.0000,  0.0000,  0.0000)
   6 Ag     2.836535    6.550698   10.000000    ( 0.0000,  0.0000,  0.0000)
   7 Pd     5.673071    6.550698   10.000000    ( 0.0000,  0.0000,  0.0000)
   8 Pd     8.509606    6.550698   10.000000    ( 0.0000,  0.0000,  0.0000)
   9 Pd     0.000000    0.000000   12.317643    ( 0.0000,  0.0000,  0.0000)
  10 Pd     2.836535    0.000000   12.317643    ( 0.0000,  0.0000,  0.0000)
  11 Pt     5.673071    0.000000   12.317643    ( 0.0000,  0.0000,  0.0000)
  12 Ir     1.418268    2.456512   12.317643    ( 0.0000,  0.0000,  0.0000)
  13 Pt     4.254803    2.456512   12.317643    ( 0.0000,  0.0000,  0.0000)
  14 Ag     7.091338    2.456512   12.317643    ( 0.0000,  0.0000,  0.0000)
  15 Pt     2.836535    4.913023   12.317643    ( 0.0000,  0.0000,  0.0000)
  16 Pd     5.673071    4.913023   12.317643    ( 0.0000,  0.0000,  0.0000)
  17 Pd     8.509606    4.913023   12.317643    ( 0.0000,  0.0000,  0.0000)
  18 Ag     1.377355    0.765865   14.616628    ( 0.0000,  0.0000,  0.0000)
  19 Ag     4.219909    0.787511   14.661537    ( 0.0000,  0.0000,  0.0000)
  20 Pt     7.056206    0.794693   14.667351    ( 0.0000,  0.0000,  0.0000)
  21 Ru     2.751934    3.299199   14.384629    ( 0.0000,  0.0000,  0.0000)
  22 Pd     5.599004    3.216529   14.649432    ( 0.0000,  0.0000,  0.0000)
  23 Pt     8.519284    3.250542   14.663460    ( 0.0000,  0.0000,  0.0000)
  24 Pt     4.167608    5.651868   14.619295    ( 0.0000,  0.0000,  0.0000)
  25 Pt     7.043050    5.609758   14.663037    ( 0.0000,  0.0000,  0.0000)
  26 Ag     9.869255    5.740545   14.698077    ( 0.0000,  0.0000,  0.0000)
  27 Ag    -0.020407    1.623861   17.039920    ( 0.0000,  0.0000,  0.0000)
  28 Ag     2.794509    1.610514   16.879666    ( 0.0000,  0.0000,  0.0000)
  29 Pt     5.715780    1.670945   17.077243    ( 0.0000,  0.0000,  0.0000)
  30 Ag     1.326564    4.082084   17.014023    ( 0.0000,  0.0000,  0.0000)
  31 Pd     4.144796    4.029161   16.814994    ( 0.0000,  0.0000,  0.0000)
  32 Ru     6.931788    4.066827   16.873101    ( 0.0000,  0.0000,  0.0000)
  33 Pd     2.782797    6.561650   17.025877    ( 0.0000,  0.0000,  0.0000)
  34 Pt     5.654921    6.414983   16.898268    ( 0.0000,  0.0000,  0.0000)
  35 Pd     8.424554    6.504242   17.063185    ( 0.0000,  0.0000,  0.0000)
  36 Pt     0.099237   -0.069864   19.266288    ( 0.0000,  0.0000,  0.0000)
  37 Pt     2.825665    0.082755   19.262784    ( 0.0000,  0.0000,  0.0000)
  38 Ag     5.709786   -0.011372   19.483256    ( 0.0000,  0.0000,  0.0000)
  39 Pt     1.593859    2.467510   19.385024    ( 0.0000,  0.0000,  0.0000)
  40 Ru     4.223096    2.601283   19.100632    ( 0.0000,  0.0000,  0.0000)
  41 Pt     7.089617    2.464292   19.427470    ( 0.0000,  0.0000,  0.0000)
  42 Ir     3.046775    4.829911   19.148595    ( 0.0000,  0.0000,  0.0000)
  43 Pt     5.722312    4.873258   19.154378    ( 0.0000,  0.0000,  0.0000)
  44 Ag     8.591462    4.918712   19.504694    ( 0.0000,  0.0000,  0.0000)
  45 O      7.092247    2.477900   21.413782    ( 0.0000,  0.0000,  0.0000)
  46 H      7.766539    3.105363   21.779466    ( 0.0000,  0.0000,  0.0000)

Unit cell:
           periodic     x           y           z      points  spacing
  1. axis:    yes    8.509606    0.000000    0.000000    40     0.1842
  2. axis:    yes    4.254803    7.369535    0.000000    40     0.1842
  3. axis:    no     0.000000    0.000000   29.270571   140     0.2091

  Lengths:   8.509606   8.509606  29.270571
  Angles:   90.000000  90.000000  60.000000

Effective grid spacing dv^(1/3) = 0.2016

     iter     time        total  log10-change:
                         energy  eigst   dens
iter:   1 15:57:08  -195.130006  -3.55
iter:   2 15:58:07  -208.077046  -3.30  -2.32
iter:   3 15:59:06  -194.973946  -3.45  -1.71
iter:   4 16:00:05  -194.560701  -4.64  -2.47
iter:   5 16:01:04  -194.524606  -5.37  -2.96
iter:   6 16:02:05  -194.524114c -5.94  -3.16
iter:   7 16:03:04  -194.521477c -6.15  -3.23
iter:   8 16:04:03  -194.510641c -5.34  -3.29
iter:   9 16:05:03  -194.522753c -6.20  -3.35
iter:  10 16:06:02  -194.514222c -6.52  -3.25
iter:  11 16:07:01  -194.509532c -6.69  -3.56
iter:  12 16:08:01  -194.512048c -6.62  -3.55
iter:  13 16:09:00  -194.512311c -7.18  -3.76
iter:  14 16:09:59  -194.511457c -7.20  -3.81
iter:  15 16:10:59  -194.512678c -7.49c -3.92
iter:  16 16:11:58  -194.512240c -7.61c -3.91
iter:  17 16:12:57  -194.510248c -7.52c -4.06c

Converged after 17 iterations.

Dipole moment: (-8.413707, 9.552850, -0.309284) |e|*Ang

Energy contributions relative to reference atoms: (reference = -12373371.003080)

Kinetic:       -227.806454
Potential:     +102.124997
External:        +0.000000
XC:             -60.892544
Entropy (-ST):   -1.888681
Local:           -6.991906
--------------------------
Free energy:   -195.454588
Extrapolated:  -194.510248

Showing only first 2 kpts
 Kpt  Band  Eigenvalues  Occupancy
  0   367      0.79409    0.90137
  0   368      0.80787    0.83372
  0   369      0.82747    0.74026
  0   370      0.86133    0.59039

  1   367      0.63945    1.58777
  1   368      0.66930    1.48154
  1   369      0.71408    1.29232
  1   370      0.72890    1.22317


Fermi level: 0.77430

No gap

Forces in eV/Ang:
  0 Pd    0.71115    0.06811    0.08515
  1 Pt   -0.61147   -0.16874    0.55471
  2 Ag   -0.09772   -0.08060   -0.56046
  3 Pd   -0.04964   -0.32931    0.19195
  4 Ag   -0.00524    0.03756   -0.57681
  5 Ag    0.14636    0.16492   -0.49722
  6 Ag    0.04349   -0.00526   -0.48031
  7 Pd    0.22338    0.34705    0.06956
  8 Pd   -0.12600    0.12931    0.18796
  9 Pd   -0.01946    0.08825   -0.01331
 10 Pd   -0.00494   -0.04238   -0.10334
 11 Pt   -0.03108   -0.15074    0.14865
 12 Ir    0.66711    0.15000   -0.02484
 13 Pt   -0.63271   -0.19549    0.26401
 14 Ag    0.09774   -0.02395    0.11369
 15 Pt   -0.27836    0.03976    0.16984
 16 Pd   -0.08357    0.24253    0.15429
 17 Pd    0.13755   -0.01592    0.17004
 18 Ag   -0.04292    0.01940    0.01685
 19 Ag    0.03623    0.01086    0.02648
 20 Pt    0.00820    0.03049    0.06888
 21 Ru   -0.01137    0.00128   -0.01167
 22 Pd   -0.00945   -0.03207    0.00123
 23 Pt   -0.02640   -0.03869    0.01668
 24 Pt   -0.01848    0.00421   -0.04062
 25 Pt    0.00461   -0.01610   -0.04873
 26 Ag   -0.00615   -0.00791   -0.02612
 27 Ag    0.07076    0.02658    0.05474
 28 Ag   -0.00269   -0.01844   -0.00736
 29 Pt   -0.10836   -0.03035   -0.07439
 30 Ag   -0.02551   -0.01089   -0.02279
 31 Pd   -0.04210   -0.00653   -0.00418
 32 Ru    0.03322    0.05138   -0.00437
 33 Pd    0.00593    0.03836   -0.02323
 34 Pt   -0.05648    0.04163   -0.00030
 35 Pd    0.02583    0.03407   -0.03787
 36 Pt    0.00706   -0.01149    0.04517
 37 Pt    0.00842   -0.00246    0.00984
 38 Ag    0.02830   -0.06540    0.01401
 39 Pt   -0.06141    0.00329    0.02488
 40 Ru    0.05821    0.02917    0.03250
 41 Pt   -0.08190   -0.07842   -0.49874
 42 Ir    0.05488   -0.02781   -0.00932
 43 Pt    0.04378   -0.06124   -0.01642
 44 Ag   -0.02333   -0.10363   -0.05156
 45 O    -0.02411    0.03392    0.70779
 46 H    -0.00893   -0.10972   -0.20194

System changes: positions 

Initializing position-dependent things.

Density initialized from wave functions
                                             
                                             
                                             
                                             
                                             
                                             
                            H                
                          O                  
                  Ir     Pt     Ag           
             Pt   Pd      Pt    Pd           
                   Ru    Pt                  
        Pt   APt    PAg    Ru                
                                             
        Ag     Ag    PPt    Pt     Ag        
                              Pt             
                Ru     Pd                    
           Ag    PAg    PPt    Pd            
                                             
            Ir     Pt     Ag    Pd           
       Pd     Pd     Pt                      
             Pd     Ag     Ag                
        Pd     Pt     Ag                     
                                             
                                             
                                             
                                             
                                             

Positions:
   0 Pd     0.000000    1.637674   10.000000    ( 0.0000,  0.0000,  0.0000)
   1 Pt     2.836535    1.637674   10.000000    ( 0.0000,  0.0000,  0.0000)
   2 Ag     5.673071    1.637674   10.000000    ( 0.0000,  0.0000,  0.0000)
   3 Pd     1.418268    4.094186   10.000000    ( 0.0000,  0.0000,  0.0000)
   4 Ag     4.254803    4.094186   10.000000    ( 0.0000,  0.0000,  0.0000)
   5 Ag     7.091338    4.094186   10.000000    ( 0.0000,  0.0000,  0.0000)
   6 Ag     2.836535    6.550698   10.000000    ( 0.0000,  0.0000,  0.0000)
   7 Pd     5.673071    6.550698   10.000000    ( 0.0000,  0.0000,  0.0000)
   8 Pd     8.509606    6.550698   10.000000    ( 0.0000,  0.0000,  0.0000)
   9 Pd     0.000000    0.000000   12.317643    ( 0.0000,  0.0000,  0.0000)
  10 Pd     2.836535    0.000000   12.317643    ( 0.0000,  0.0000,  0.0000)
  11 Pt     5.673071    0.000000   12.317643    ( 0.0000,  0.0000,  0.0000)
  12 Ir     1.418268    2.456512   12.317643    ( 0.0000,  0.0000,  0.0000)
  13 Pt     4.254803    2.456512   12.317643    ( 0.0000,  0.0000,  0.0000)
  14 Ag     7.091338    2.456512   12.317643    ( 0.0000,  0.0000,  0.0000)
  15 Pt     2.836535    4.913023   12.317643    ( 0.0000,  0.0000,  0.0000)
  16 Pd     5.673071    4.913023   12.317643    ( 0.0000,  0.0000,  0.0000)
  17 Pd     8.509606    4.913023   12.317643    ( 0.0000,  0.0000,  0.0000)
  18 Ag     1.375772    0.766604   14.617749    ( 0.0000,  0.0000,  0.0000)
  19 Ag     4.220971    0.787972   14.663002    ( 0.0000,  0.0000,  0.0000)
  20 Pt     7.055803    0.795171   14.669250    ( 0.0000,  0.0000,  0.0000)
  21 Ru     2.751701    3.298638   14.384507    ( 0.0000,  0.0000,  0.0000)
  22 Pd     5.598523    3.215637   14.650410    ( 0.0000,  0.0000,  0.0000)
  23 Pt     8.518425    3.249299   14.663771    ( 0.0000,  0.0000,  0.0000)
  24 Pt     4.166953    5.651603   14.619091    ( 0.0000,  0.0000,  0.0000)
  25 Pt     7.042788    5.609188   14.662531    ( 0.0000,  0.0000,  0.0000)
  26 Ag     9.868785    5.739976   14.697879    ( 0.0000,  0.0000,  0.0000)
  27 Ag    -0.022344    1.626476   17.048029    ( 0.0000,  0.0000,  0.0000)
  28 Ag     2.794808    1.608774   16.878834    ( 0.0000,  0.0000,  0.0000)
  29 Pt     5.717898    1.674170   17.083771    ( 0.0000,  0.0000,  0.0000)
  30 Ag     1.325807    4.081533   17.013128    ( 0.0000,  0.0000,  0.0000)
  31 Pd     4.142511    4.028930   16.814340    ( 0.0000,  0.0000,  0.0000)
  32 Ru     6.930570    4.069736   16.872092    ( 0.0000,  0.0000,  0.0000)
  33 Pd     2.782235    6.561432   17.025070    ( 0.0000,  0.0000,  0.0000)
  34 Pt     5.654189    6.415663   16.896433    ( 0.0000,  0.0000,  0.0000)
  35 Pd     8.424771    6.505497   17.061781    ( 0.0000,  0.0000,  0.0000)
  36 Pt     0.100926   -0.072215   19.267609    ( 0.0000,  0.0000,  0.0000)
  37 Pt     2.827287    0.081952   19.262631    ( 0.0000,  0.0000,  0.0000)
  38 Ag     5.710453   -0.014330   19.482816    ( 0.0000,  0.0000,  0.0000)
  39 Pt     1.594949    2.467897   19.385411    ( 0.0000,  0.0000,  0.0000)
  40 Ru     4.224152    2.600389   19.101843    ( 0.0000,  0.0000,  0.0000)
  41 Pt     7.086792    2.459917   19.422572    ( 0.0000,  0.0000,  0.0000)
  42 Ir     3.046814    4.830479   19.147705    ( 0.0000,  0.0000,  0.0000)
  43 Pt     5.724557    4.872233   19.154996    ( 0.0000,  0.0000,  0.0000)
  44 Ag     8.592082    4.917371   19.501678    ( 0.0000,  0.0000,  0.0000)
  45 O      7.084132    2.472248   21.428523    ( 0.0000,  0.0000,  0.0000)
  46 H      7.771175    3.104792   21.762341    ( 0.0000,  0.0000,  0.0000)

Unit cell:
           periodic     x           y           z      points  spacing
  1. axis:    yes    8.509606    0.000000    0.000000    40     0.1842
  2. axis:    yes    4.254803    7.369535    0.000000    40     0.1842
  3. axis:    no     0.000000    0.000000   29.270571   140     0.2091

  Lengths:   8.509606   8.509606  29.270571
  Angles:   90.000000  90.000000  60.000000

Effective grid spacing dv^(1/3) = 0.2016

     iter     time        total  log10-change:
                         energy  eigst   dens
iter:   1 16:14:17  -200.384310  -3.69
iter:   2 16:15:16  -272.998050  -2.37  -1.87
iter:   3 16:16:15  -198.469685  -2.65  -1.34
iter:   4 16:17:15  -194.954212  -3.76  -2.01
iter:   5 16:18:14  -194.589018  -4.45  -2.46
iter:   6 16:19:13  -194.545279  -5.16  -2.85
iter:   7 16:20:13  -194.530129c -5.36  -3.11
iter:   8 16:21:12  -194.534939c -5.63  -3.37
iter:   9 16:22:11  -194.524051c -6.02  -3.01
iter:  10 16:23:11  -194.523155c -6.11  -3.49
iter:  11 16:24:10  -194.521609c -6.65  -3.73
iter:  12 16:25:10  -194.521944c -6.78  -3.80
iter:  13 16:26:09  -194.521117c -7.09  -3.95
iter:  14 16:27:08  -194.521941c -6.86  -4.06c
iter:  15 16:28:08  -194.520178c -7.43c -4.17c

Converged after 15 iterations.

Dipole moment: (-8.473079, 9.860229, -0.336108) |e|*Ang

Energy contributions relative to reference atoms: (reference = -12373371.003080)

Kinetic:       -225.961552
Potential:     +100.301006
External:        +0.000000
XC:             -60.902973
Entropy (-ST):   -1.886453
Local:           -7.013432
--------------------------
Free energy:   -195.463404
Extrapolated:  -194.520178

Showing only first 2 kpts
 Kpt  Band  Eigenvalues  Occupancy
  0   367      0.78190    0.90644
  0   368      0.79709    0.83180
  0   369      0.81769    0.73375
  0   370      0.85026    0.58996

  1   367      0.62791    1.58898
  1   368      0.65781    1.48276
  1   369      0.70269    1.29331
  1   370      0.71744    1.22454


Fermi level: 0.76313

No gap

Forces in eV/Ang:
  0 Pd    0.69971    0.06716    0.08872
  1 Pt   -0.59737   -0.16000    0.55301
  2 Ag   -0.09802   -0.07907   -0.56022
  3 Pd   -0.04258   -0.32845    0.19477
  4 Ag   -0.00606    0.03560   -0.57878
  5 Ag    0.14146    0.16148   -0.49576
  6 Ag    0.04421   -0.00498   -0.48094
  7 Pd    0.21748    0.33883    0.07217
  8 Pd   -0.12271    0.13131    0.19163
  9 Pd   -0.01889    0.09248   -0.01551
 10 Pd   -0.00556   -0.03565   -0.09596
 11 Pt   -0.03158   -0.14919    0.15096
 12 Ir    0.66665    0.14653   -0.01646
 13 Pt   -0.63611   -0.19728    0.26763
 14 Ag    0.09790   -0.02701    0.11185
 15 Pt   -0.27912    0.03566    0.16828
 16 Pd   -0.08729    0.23991    0.15010
 17 Pd    0.14010   -0.01777    0.16762
 18 Ag   -0.02587    0.01340    0.00585
 19 Ag    0.01490    0.00097   -0.00034
 20 Pt    0.01713    0.02264    0.05666
 21 Ru   -0.01291    0.00186   -0.01786
 22 Pd   -0.00677   -0.00775   -0.00293
 23 Pt   -0.02227   -0.03240    0.01661
 24 Pt   -0.01359    0.00331   -0.03424
 25 Pt   -0.00051    0.00251   -0.03903
 26 Ag   -0.00171   -0.01124   -0.03068
 27 Ag    0.09338    0.00861    0.00274
 28 Ag   -0.01329    0.00610    0.02530
 29 Pt   -0.13390   -0.03922   -0.10167
 30 Ag   -0.00472    0.00311   -0.01726
 31 Pd   -0.02355   -0.00045    0.00891
 32 Ru    0.02631    0.04500   -0.00931
 33 Pd    0.01362    0.02942   -0.00584
 34 Pt   -0.05174    0.02253    0.01624
 35 Pd    0.01951    0.00908   -0.01591
 36 Pt   -0.01095   -0.02152    0.05119
 37 Pt    0.00465    0.00243   -0.00917
 38 Ag    0.03237   -0.04315    0.02182
 39 Pt   -0.02354    0.00127    0.02373
 40 Ru    0.05476    0.03103    0.04356
 41 Pt   -0.11216   -0.06666   -0.14039
 42 Ir    0.05235   -0.03960   -0.01540
 43 Pt    0.01081   -0.05040   -0.00802
 44 Ag   -0.02807   -0.09892   -0.03979
 45 O     0.12220    0.12509    0.19392
 46 H    -0.04562   -0.14466   -0.14993

System changes: positions 

Initializing position-dependent things.

Density initialized from wave functions
                                             
                                             
                                             
                                             
                                             
                                             
[...]
  20 Pt     7.053815    0.802795   14.693117    ( 0.0000,  0.0000,  0.0000)
  21 Ru     2.741156    3.294956   14.384172    ( 0.0000,  0.0000,  0.0000)
  22 Pd     5.585616    3.221086   14.646355    ( 0.0000,  0.0000,  0.0000)
  23 Pt     8.502337    3.242817   14.677924    ( 0.0000,  0.0000,  0.0000)
  24 Pt     4.158144    5.655767   14.617099    ( 0.0000,  0.0000,  0.0000)
  25 Pt     7.031315    5.615581   14.659574    ( 0.0000,  0.0000,  0.0000)
  26 Ag     9.863163    5.738113   14.686647    ( 0.0000,  0.0000,  0.0000)
  27 Ag    -0.019296    1.640266   17.095664    ( 0.0000,  0.0000,  0.0000)
  28 Ag     2.788390    1.609956   16.893989    ( 0.0000,  0.0000,  0.0000)
  29 Pt     5.701982    1.667197   17.062824    ( 0.0000,  0.0000,  0.0000)
  30 Ag     1.334120    4.088705   17.000969    ( 0.0000,  0.0000,  0.0000)
  31 Pd     4.135353    4.031136   16.814323    ( 0.0000,  0.0000,  0.0000)
  32 Ru     6.929978    4.079758   16.856081    ( 0.0000,  0.0000,  0.0000)
  33 Pd     2.786860    6.569686   17.028133    ( 0.0000,  0.0000,  0.0000)
  34 Pt     5.640312    6.421910   16.902923    ( 0.0000,  0.0000,  0.0000)
  35 Pd     8.424386    6.510635   17.051041    ( 0.0000,  0.0000,  0.0000)
  36 Pt     0.100184   -0.093801   19.294315    ( 0.0000,  0.0000,  0.0000)
  37 Pt     2.831953    0.060699   19.262796    ( 0.0000,  0.0000,  0.0000)
  38 Ag     5.708586   -0.102419   19.497732    ( 0.0000,  0.0000,  0.0000)
  39 Pt     1.618468    2.453614   19.403904    ( 0.0000,  0.0000,  0.0000)
  40 Ru     4.246375    2.584125   19.108248    ( 0.0000,  0.0000,  0.0000)
  41 Pt     6.980539    2.385914   19.424170    ( 0.0000,  0.0000,  0.0000)
  42 Ir     3.053814    4.809562   19.150003    ( 0.0000,  0.0000,  0.0000)
  43 Pt     5.738109    4.859261   19.144621    ( 0.0000,  0.0000,  0.0000)
  44 Ag     8.568071    4.835049   19.454365    ( 0.0000,  0.0000,  0.0000)
  45 O      7.087750    2.489053   21.436353    ( 0.0000,  0.0000,  0.0000)
  46 H      7.871301    3.047719   21.670651    ( 0.0000,  0.0000,  0.0000)

Unit cell:
           periodic     x           y           z      points  spacing
  1. axis:    yes    8.509606    0.000000    0.000000    40     0.1842
  2. axis:    yes    4.254803    7.369535    0.000000    40     0.1842
  3. axis:    no     0.000000    0.000000   29.270571   140     0.2091

  Lengths:   8.509606   8.509606  29.270571
  Angles:   90.000000  90.000000  60.000000

Effective grid spacing dv^(1/3) = 0.2016

     iter     time        total  log10-change:
                         energy  eigst   dens
iter:   1 19:23:21  -194.636322  -4.21
iter:   2 19:24:20  -195.713580  -4.38  -2.83
iter:   3 19:25:19  -194.705219  -4.42  -2.18
iter:   4 19:26:18  -194.571492  -5.34  -2.71
iter:   5 19:27:17  -194.571487c -6.29  -3.32
iter:   6 19:28:16  -194.561134c -6.44  -3.37
iter:   7 19:29:15  -194.563278c -6.98  -3.55
iter:   8 19:30:14  -194.561715c -6.87  -3.81
iter:   9 19:31:13  -194.562153c -6.87  -3.95
iter:  10 19:32:12  -194.561391c -7.06  -3.67
iter:  11 19:33:11  -194.563460c -7.41c -3.99
iter:  12 19:34:10  -194.561684c -7.78c -4.00
iter:  13 19:35:10  -194.563108c -7.91c -4.20c

Converged after 13 iterations.

Dipole moment: (-7.757359, 15.498392, -0.393286) |e|*Ang

Energy contributions relative to reference atoms: (reference = -12373371.003080)

Kinetic:       -228.588937
Potential:     +102.766219
External:        +0.000000
XC:             -60.818204
Entropy (-ST):   -1.866977
Local:           -6.988698
--------------------------
Free energy:   -195.496597
Extrapolated:  -194.563108

Showing only first 2 kpts
 Kpt  Band  Eigenvalues  Occupancy
  0   367      0.76432    0.89172
  0   368      0.77671    0.83096
  0   369      0.80152    0.71351
  0   370      0.83244    0.57867

  1   367      0.60731    1.58914
  1   368      0.63719    1.48302
  1   369      0.68188    1.29452
  1   370      0.70021    1.20872


Fermi level: 0.74258

No gap

Forces in eV/Ang:
  0 Pd    0.71146    0.06539    0.09598
  1 Pt   -0.60595   -0.17244    0.56588
  2 Ag   -0.09718   -0.08195   -0.55778
  3 Pd   -0.04918   -0.33316    0.21329
  4 Ag   -0.00662    0.03767   -0.57156
  5 Ag    0.14810    0.16772   -0.49284
  6 Ag    0.04414   -0.00401   -0.47665
  7 Pd    0.22698    0.34686    0.07868
  8 Pd   -0.12709    0.13079    0.20265
  9 Pd   -0.02280    0.10394    0.02834
 10 Pd   -0.02487   -0.03601   -0.07308
 11 Pt   -0.02296   -0.13368    0.17269
 12 Ir    0.64946    0.14184    0.00480
 13 Pt   -0.65770   -0.19781    0.26772
 14 Ag    0.09423   -0.03958    0.15832
 15 Pt   -0.27710    0.02497    0.16830
 16 Pd   -0.09283    0.24573    0.14437
 17 Pd    0.12018   -0.03121    0.17055
 18 Ag   -0.02556    0.01005    0.00657
 19 Ag    0.00372    0.01042    0.01504
 20 Pt   -0.00901    0.00384   -0.03081
 21 Ru    0.00638    0.02530    0.00018
 22 Pd   -0.00426   -0.01156   -0.01105
 23 Pt    0.00714    0.00860    0.00610
 24 Pt   -0.00250   -0.00141    0.01793
 25 Pt    0.00832   -0.01832    0.00545
 26 Ag   -0.00680    0.01553    0.03165
 27 Ag    0.02214   -0.00086   -0.04737
 28 Ag    0.00028   -0.00805   -0.03440
 29 Pt    0.00267   -0.01247    0.06903
 30 Ag   -0.00334   -0.01852   -0.00244
 31 Pd    0.04250   -0.00899    0.01258
 32 Ru   -0.00529    0.00232   -0.00944
 33 Pd   -0.01174   -0.03382    0.00478
 34 Pt    0.01727   -0.00440   -0.00079
 35 Pd    0.00583   -0.03641    0.01511
 36 Pt   -0.04515   -0.02508    0.01273
 37 Pt   -0.01292   -0.03534    0.02485
 38 Ag   -0.03808    0.01859    0.01389
 39 Pt    0.06806   -0.02921    0.01227
 40 Ru    0.02197   -0.02154    0.01516
 41 Pt   -0.03003    0.00805    0.04543
 42 Ir   -0.00392   -0.03857    0.03945
 43 Pt   -0.09763   -0.01642    0.01157
 44 Ag   -0.00306    0.01576   -0.00233
 45 O     0.07240    0.00762   -0.11624
 46 H    -0.04880   -0.10261    0.03998

System changes: positions 

Initializing position-dependent things.

Density initialized from wave functions
                                             
                                             
                                             
                                             
                                             
                                             
                             H               
                          O                  
                  Ir     Pt    Ag            
             Pt   PRu     Pt    Pd           
                         Pt                  
        Pt   APt    PAg    Ru                
                                             
        Ag     Ag    PPt    Pt     Ag        
                       Pd     Pt             
                Ru                           
           Ag    PAg    PPt    Pd            
                                             
            Ir     Pt     Ag    Pd           
       Pd     Pd     Pt                      
             Pd     Ag     Ag                
        Pd     Pt     Ag                     
                                             
                                             
                                             
                                             
                                             

Positions:
   0 Pd     0.000000    1.637674   10.000000    ( 0.0000,  0.0000,  0.0000)
   1 Pt     2.836535    1.637674   10.000000    ( 0.0000,  0.0000,  0.0000)
   2 Ag     5.673071    1.637674   10.000000    ( 0.0000,  0.0000,  0.0000)
   3 Pd     1.418268    4.094186   10.000000    ( 0.0000,  0.0000,  0.0000)
   4 Ag     4.254803    4.094186   10.000000    ( 0.0000,  0.0000,  0.0000)
   5 Ag     7.091338    4.094186   10.000000    ( 0.0000,  0.0000,  0.0000)
   6 Ag     2.836535    6.550698   10.000000    ( 0.0000,  0.0000,  0.0000)
   7 Pd     5.673071    6.550698   10.000000    ( 0.0000,  0.0000,  0.0000)
   8 Pd     8.509606    6.550698   10.000000    ( 0.0000,  0.0000,  0.0000)
   9 Pd     0.000000    0.000000   12.317643    ( 0.0000,  0.0000,  0.0000)
  10 Pd     2.836535    0.000000   12.317643    ( 0.0000,  0.0000,  0.0000)
  11 Pt     5.673071    0.000000   12.317643    ( 0.0000,  0.0000,  0.0000)
  12 Ir     1.418268    2.456512   12.317643    ( 0.0000,  0.0000,  0.0000)
  13 Pt     4.254803    2.456512   12.317643    ( 0.0000,  0.0000,  0.0000)
  14 Ag     7.091338    2.456512   12.317643    ( 0.0000,  0.0000,  0.0000)
  15 Pt     2.836535    4.913023   12.317643    ( 0.0000,  0.0000,  0.0000)
  16 Pd     5.673071    4.913023   12.317643    ( 0.0000,  0.0000,  0.0000)
  17 Pd     8.509606    4.913023   12.317643    ( 0.0000,  0.0000,  0.0000)
  18 Ag     1.368733    0.771401   14.627798    ( 0.0000,  0.0000,  0.0000)
  19 Ag     4.212168    0.787981   14.658172    ( 0.0000,  0.0000,  0.0000)
  20 Pt     7.053590    0.801962   14.689366    ( 0.0000,  0.0000,  0.0000)
  21 Ru     2.741635    3.295783   14.384408    ( 0.0000,  0.0000,  0.0000)
  22 Pd     5.586046    3.221530   14.645381    ( 0.0000,  0.0000,  0.0000)
  23 Pt     8.503829    3.244598   14.676910    ( 0.0000,  0.0000,  0.0000)
  24 Pt     4.158883    5.655895   14.618041    ( 0.0000,  0.0000,  0.0000)
  25 Pt     7.031779    5.615279   14.660802    ( 0.0000,  0.0000,  0.0000)
  26 Ag     9.863549    5.739139   14.687974    ( 0.0000,  0.0000,  0.0000)
  27 Ag    -0.019995    1.638055   17.088894    ( 0.0000,  0.0000,  0.0000)
  28 Ag     2.788776    1.610764   16.892964    ( 0.0000,  0.0000,  0.0000)
  29 Pt     5.703557    1.665552   17.062109    ( 0.0000,  0.0000,  0.0000)
  30 Ag     1.334893    4.088741   17.002055    ( 0.0000,  0.0000,  0.0000)
  31 Pd     4.137996    4.031110   16.814749    ( 0.0000,  0.0000,  0.0000)
  32 Ru     6.929896    4.076941   16.856116    ( 0.0000,  0.0000,  0.0000)
  33 Pd     2.786640    6.568439   17.028666    ( 0.0000,  0.0000,  0.0000)
  34 Pt     5.642392    6.421056   16.903278    ( 0.0000,  0.0000,  0.0000)
  35 Pd     8.424043    6.509195   17.052586    ( 0.0000,  0.0000,  0.0000)
  36 Pt     0.098106   -0.091596   19.292513    ( 0.0000,  0.0000,  0.0000)
  37 Pt     2.830634    0.060783   19.263274    ( 0.0000,  0.0000,  0.0000)
  38 Ag     5.706562   -0.098208   19.497624    ( 0.0000,  0.0000,  0.0000)
  39 Pt     1.618544    2.453131   19.403277    ( 0.0000,  0.0000,  0.0000)
  40 Ru     4.244879    2.583437   19.106330    ( 0.0000,  0.0000,  0.0000)
  41 Pt     6.985846    2.391198   19.424003    ( 0.0000,  0.0000,  0.0000)
  42 Ir     3.052429    4.809739   19.151135    ( 0.0000,  0.0000,  0.0000)
  43 Pt     5.734614    4.860581   19.145096    ( 0.0000,  0.0000,  0.0000)
  44 Ag     8.568252    4.838803   19.458048    ( 0.0000,  0.0000,  0.0000)
  45 O      7.092472    2.492371   21.430335    ( 0.0000,  0.0000,  0.0000)
  46 H      7.865290    3.049751   21.690506    ( 0.0000,  0.0000,  0.0000)

Unit cell:
           periodic     x           y           z      points  spacing
  1. axis:    yes    8.509606    0.000000    0.000000    40     0.1842
  2. axis:    yes    4.254803    7.369535    0.000000    40     0.1842
  3. axis:    no     0.000000    0.000000   29.270571   140     0.2091

  Lengths:   8.509606   8.509606  29.270571
  Angles:   90.000000  90.000000  60.000000

Effective grid spacing dv^(1/3) = 0.2016

     iter     time        total  log10-change:
                         energy  eigst   dens
iter:   1 19:36:31  -195.847462  -4.26
iter:   2 19:37:30  -225.459202  -2.84  -2.15
iter:   3 19:38:29  -196.374509  -3.31  -1.52
iter:   4 19:39:28  -194.800284  -4.27  -2.18
iter:   5 19:40:27  -194.604652  -5.11  -2.64
iter:   6 19:41:26  -194.570970c -5.50  -3.09
iter:   7 19:42:26  -194.572335c -5.88  -3.52
iter:   8 19:43:25  -194.564205c -6.12  -3.48
iter:   9 19:44:24  -194.563177c -6.43  -3.76
iter:  10 19:45:23  -194.564004c -6.86  -3.84
iter:  11 19:46:22  -194.562364c -6.84  -3.92
iter:  12 19:47:21  -194.561737c -7.01  -3.98
iter:  13 19:48:20  -194.564774c -7.26  -3.98
iter:  14 19:49:19  -194.561817c -7.44c -3.85
iter:  15 19:50:18  -194.562725c -7.70c -4.21c

Converged after 15 iterations.

Dipole moment: (-7.726218, 15.179216, -0.380815) |e|*Ang

Energy contributions relative to reference atoms: (reference = -12373371.003080)

Kinetic:       -227.440679
Potential:     +101.727668
External:        +0.000000
XC:             -60.921242
Entropy (-ST):   -1.869221
Local:           -6.993861
--------------------------
Free energy:   -195.497335
Extrapolated:  -194.562725

Showing only first 2 kpts
 Kpt  Band  Eigenvalues  Occupancy
  0   367      0.77203    0.88814
  0   368      0.78332    0.83282
  0   369      0.80767    0.71740
  0   370      0.83874    0.58151

  1   367      0.61435    1.58896
  1   368      0.64454    1.48165
  1   369      0.68912    1.29335
  1   370      0.70702    1.20960


Fermi level: 0.74957

No gap

Forces in eV/Ang:
  0 Pd    0.71026    0.06608    0.10859
  1 Pt   -0.60298   -0.16553    0.57854
  2 Ag   -0.09856   -0.08223   -0.54337
  3 Pd   -0.04683   -0.33435    0.22341
  4 Ag   -0.00867    0.03588   -0.55901
  5 Ag    0.14792    0.16569   -0.47934
  6 Ag    0.04394   -0.00446   -0.46357
  7 Pd    0.22347    0.34570    0.09194
  8 Pd   -0.12435    0.13170    0.21536
  9 Pd   -0.02326    0.10206    0.02708
 10 Pd   -0.02316   -0.03602   -0.07473
 11 Pt   -0.02425   -0.13568    0.17198
 12 Ir    0.65010    0.14611    0.00867
 13 Pt   -0.65860   -0.19508    0.26738
 14 Ag    0.09574   -0.03777    0.15453
 15 Pt   -0.27686    0.02529    0.17536
 16 Pd   -0.09511    0.24641    0.14837
 17 Pd    0.12474   -0.03056    0.17573
 18 Ag   -0.03381    0.01491    0.00790
 19 Ag    0.01421    0.01386    0.02204
 20 Pt   -0.00638    0.00955   -0.01360
 21 Ru    0.00545    0.02161   -0.00181
 22 Pd   -0.00374   -0.02127   -0.00552
 23 Pt    0.00486   -0.00252    0.00675
 24 Pt   -0.00450   -0.00228    0.00680
 25 Pt    0.00876   -0.02100   -0.00729
 26 Ag   -0.00669    0.01020    0.02372
 27 Ag    0.03550    0.00642   -0.02626
 28 Ag   -0.00059   -0.01453   -0.03292
 29 Pt   -0.00716   -0.00834    0.05836
 30 Ag   -0.01126   -0.02955   -0.00230
 31 Pd    0.02576   -0.01176    0.01380
 32 Ru    0.00280    0.01053   -0.00185
 33 Pd   -0.00688   -0.02503   -0.00178
 34 Pt    0.00228    0.00599   -0.00279
 35 Pd    0.00845   -0.02520    0.00593
 36 Pt   -0.03659   -0.02050   -0.00281
 37 Pt   -0.01498   -0.03273    0.00735
 38 Ag   -0.02744    0.01514    0.00059
 39 Pt    0.03848   -0.02288   -0.00508
 40 Ru    0.02741   -0.00793    0.00266
 41 Pt   -0.01589    0.00493   -0.04032
 42 Ir    0.00430   -0.04069    0.00638
 43 Pt   -0.07568   -0.02615    0.00102
 44 Ag   -0.00819   -0.00137   -0.00816
 45 O    -0.02103   -0.02930    0.03406
 46 H     0.05068   -0.03529   -0.00138

Timing:                                      incl.     excl.
-------------------------------------------------------------------
Density initialized from wave functions:    55.786    55.785   0.3% |
 Symmetrize density:                         0.001     0.001   0.0% |
Forces:                                    284.285   284.285   1.4% ||
Hamiltonian:                                32.547     0.160   0.0% |
 Atomic:                                     2.721     1.223   0.0% |
  XC Correction:                             1.498     1.498   0.0% |
 Calculate atomic Hamiltonians:             21.484    21.484   0.1% |
 Communicate:                                3.102     3.102   0.0% |
 Initialize Hamiltonian:                     0.001     0.001   0.0% |
 Poisson:                                    0.089     0.089   0.0% |
 XC 3D grid:                                 4.991     4.991   0.0% |
LCAO initialization:                       134.628     2.822   0.0% |
 LCAO eigensolver:                          15.670     0.001   0.0% |
  Blacs Orbital Layouts:                     0.289     0.000   0.0% |
   General diagonalize:                      0.285     0.285   0.0% |
   Redistribute coefs:                       0.002     0.002   0.0% |
   Send coefs to domains:                    0.001     0.001   0.0% |
  Calculate projections:                     0.003     0.003   0.0% |
  Distribute overlap matrix:                14.596     0.000   0.0% |
   Scalapack redistribute:                   0.008     0.008   0.0% |
   blocked summation:                       14.588    14.588   0.1% |
  Potential matrix:                          0.739     0.739   0.0% |
  SparseAtomicCorrection:                    0.004     0.004   0.0% |
  Sum over cells:                            0.038     0.038   0.0% |
 LCAO to grid:                             112.712   112.712   0.5% |
 Set positions (LCAO WFS):                   3.425     0.009   0.0% |
  Basic WFS set positions:                   0.002     0.002   0.0% |
  Basis functions set positions:             0.000     0.000   0.0% |
  P tci:                                     0.000     0.000   0.0% |
  ST tci:                                    0.291     0.291   0.0% |
  Scalapack redistribute:                    0.007     0.007   0.0% |
  blocked summation:                         3.003     3.003   0.0% |
  mktci:                                     0.112     0.112   0.0% |
PWDescriptor:                                0.547     0.547   0.0% |
Redistribute:                                0.016     0.016   0.0% |
SCF-cycle:                               20419.041   855.165   4.1% |-|
 Davidson:                               18203.052  4427.872  21.1% |-------|
  Apply H:                                1647.790  1615.832   7.7% |--|
   HMM T:                                   31.958    31.958   0.2% |
  Subspace diag:                          2053.811     0.051   0.0% |
   calc_h_matrix:                         1276.030   426.458   2.0% ||
    Apply H:                               849.572   832.210   4.0% |-|
     HMM T:                                 17.361    17.361   0.1% |
   diagonalize:                             72.719    72.719   0.3% |
   rotate_psi:                             705.011   705.011   3.4% ||
  calc. matrices:                         6866.067  4437.791  21.1% |-------|
   Apply H:                               2428.275  2379.905  11.3% |----|
    HMM T:                                  48.370    48.370   0.2% |
  diagonalize:                            1017.852  1017.852   4.8% |-|
  rotate_psi:                             2189.660  2189.660  10.4% |---|
 Density:                                  816.318     0.010   0.0% |
  Atomic density matrices:                   6.168     6.168   0.0% |
  Mix:                                     340.037   340.037   1.6% ||
  Multipole moments:                         0.517     0.517   0.0% |
  Pseudo density:                          469.586   469.575   2.2% ||
   Symmetrize density:                       0.011     0.011   0.0% |
 Hamiltonian:                              456.637     2.294   0.0% |
  Atomic:                                   38.063    16.963   0.1% |
   XC Correction:                           21.100    21.100   0.1% |
  Calculate atomic Hamiltonians:           303.208   303.208   1.4% ||
  Communicate:                              41.942    41.942   0.2% |
  Poisson:                                   1.285     1.285   0.0% |
  XC 3D grid:                               69.845    69.845   0.3% |
 Orthonormalize:                            87.869     0.005   0.0% |
  calc_s_matrix:                            14.185    14.185   0.1% |
  inverse-cholesky:                          4.168     4.168   0.0% |
  projections:                              45.707    45.707   0.2% |
  rotate_psi_s:                             23.805    23.805   0.1% |
Set symmetry:                                0.002     0.002   0.0% |
Other:                                     103.032   103.032   0.5% |
-------------------------------------------------------------------
Total:                                             21029.885 100.0%

Memory usage: 871.73 MiB
Date: Fri Jun 14 19:50:32 2024
