
  ___ ___ ___ _ _ _  
 |   |   |_  | | | | 
 | | | | | . | | | | 
 |__ |  _|___|_____|  22.1.0
 |___|_|             

User:   clausen@node491.cluster
Date:   Thu Jun 13 21:54:50 2024
Arch:   x86_64
Pid:    97422
Python: 3.10.4
gpaw:   /groups/kemi/clausen/miniconda3/envs/gpaw22/lib/python3.10/site-packages/gpaw
_gpaw:  /groups/kemi/clausen/miniconda3/envs/gpaw22/lib/python3.10/site-packages/
        _gpaw.cpython-310-x86_64-linux-gnu.so
ase:    /groups/kemi/clausen/miniconda3/envs/gpaw22/lib/python3.10/site-packages/ase (version 3.22.1)
numpy:  /groups/kemi/clausen/miniconda3/envs/gpaw22/lib/python3.10/site-packages/numpy (version 1.23.1)
scipy:  /groups/kemi/clausen/miniconda3/envs/gpaw22/lib/python3.10/site-packages/scipy (version 1.8.1)
libxc:  5.2.3
units:  Angstrom and eV
cores: 24
OpenMP: True
OMP_NUM_THREADS: 1

Input parameters:
  eigensolver: {name: dav,
                niter: 3}
  kpts: [4 4 1]
  mixer: {backend: pulay,
          beta: 0.05,
          method: difference,
          nmaxold: 5,
          weight: 50.0}
  mode: {ecut: 400.0,
         name: pw}
  xc: RPBE

System changes: positions, numbers, cell, pbc, initial_charges, initial_magmoms 

Initialize ...

Pd-setup:
  name: Palladium
  id: 6da19bfba079f22767af9506641940b9
  Z: 46.0
  valence: 16
  core: 30
  charge: 0.0
  file: /groups/kemi/clausen/miniconda3/envs/gpaw22/share/gpaw/Pd.RPBE.gz
  compensation charges: gauss, rc=0.38, lmax=2
  cutoffs: 2.38(filt), 2.28(core),
  valence states:
                energy  radius
    5s(0.00)    -3.225   1.228
    4p(6.00)   -51.131   1.360
    5p(0.00)    -0.373   1.360
    4d(10.00)    -3.964   1.228
    *s          23.987   1.228
    *d          23.247   1.228

  Using partial waves for Pd as LCAO basis

Pt-setup:
  name: Platinum
  id: f04f522592575c47ad794f6b4a415b4b
  Z: 78.0
  valence: 16
  core: 62
  charge: 0.0
  file: /groups/kemi/clausen/miniconda3/envs/gpaw22/share/gpaw/Pt.RPBE.gz
  compensation charges: gauss, rc=0.41, lmax=2
  cutoffs: 2.26(filt), 2.26(core),
  valence states:
                energy  radius
    6s(1.00)    -5.516   1.307
    5p(6.00)   -55.971   1.371
    6p(0.00)    -0.856   1.371
    5d(9.00)    -6.087   1.307
    *s          21.695   1.307
    *d          21.125   1.307

  Using partial waves for Pt as LCAO basis

Ag-setup:
  name: Silver
  id: c05e55bab2c3858b3f9398f6d75cb77c
  Z: 47.0
  valence: 17
  core: 30
  charge: 0.0
  file: /groups/kemi/clausen/miniconda3/envs/gpaw22/share/gpaw/Ag.RPBE.gz
  compensation charges: gauss, rc=0.40, lmax=2
  cutoffs: 2.35(filt), 2.19(core),
  valence states:
                energy  radius
    5s(1.00)    -4.277   1.286
    4p(6.00)   -58.523   1.328
    5p(0.00)    -0.755   1.328
    4d(10.00)    -7.386   1.180
    *s          22.934   1.286
    *d          19.826   1.180

  Using partial waves for Ag as LCAO basis

Ir-setup:
  name: Iridium
  id: 73b603359d1d5397a85ae3c2440f9033
  Z: 77.0
  valence: 15
  core: 62
  charge: 0.0
  file: /groups/kemi/clausen/miniconda3/envs/gpaw22/share/gpaw/Ir.RPBE.gz
  compensation charges: gauss, rc=0.40, lmax=2
  cutoffs: 2.40(filt), 2.36(core),
  valence states:
                energy  radius
    6s(2.00)    -6.219   1.296
    5p(6.00)   -54.684   1.328
    6p(0.00)    -1.215   1.328
    5d(7.00)    -7.118   1.286
    *s          20.992   1.296
    *d          20.093   1.286

  Using partial waves for Ir as LCAO basis

Ru-setup:
  name: Ruthenium
  id: 76477906e28f51dc1b29884d53556fe9
  Z: 44.0
  valence: 16
  core: 28
  charge: 0.0
  file: /groups/kemi/clausen/miniconda3/envs/gpaw22/share/gpaw/Ru.RPBE.gz
  compensation charges: gauss, rc=0.39, lmax=2
  cutoffs: 2.16(filt), 1.30(core),
  valence states:
                energy  radius
    4s(2.00)   -76.255   1.281
    5s(1.00)    -4.126   1.281
    4p(6.00)   -46.371   1.286
    5p(0.00)    -0.913   1.286
    4d(7.00)    -5.146   1.254
    *d          22.066   1.254

  Using partial waves for Ru as LCAO basis

H-setup:
  name: Hydrogen
  id: ea3f9156a1dc40d47a60fdce8f8bd75d
  Z: 1.0
  valence: 1
  core: 0
  charge: 0.0
  file: /groups/kemi/clausen/miniconda3/envs/gpaw22/share/gpaw/H.RPBE.gz
  compensation charges: gauss, rc=0.15, lmax=2
  cutoffs: 0.85(filt), 0.53(core),
  valence states:
                energy  radius
    1s(1.00)    -6.572   0.476
    *s          20.639   0.476
    *p           0.000   0.476

  Using partial waves for H as LCAO basis

Reference energy: -12371328.023897

Spin-paired calculation

Convergence criteria:
 Maximum [total energy] change in last 3 cyles: 0.0005 eV / electron
 Maximum integral of absolute [dens]ity change: 0.0001 electrons / valence electron
 Maximum integral of absolute [eigenst]ate change: 4e-08 eV^2 / valence electron
 Maximum number of scf [iter]ations: 333
 (Square brackets indicate name in SCF output, whereas a 'c' in
 the SCF output indicates the quantity has converged.)

Symmetries present (total): 1

  ( 1  0  0)
  ( 0  1  0)
  ( 0  0  1)

16 k-points: 4 x 4 x 1 Monkhorst-Pack grid
8 k-points in the irreducible part of the Brillouin zone
       k-points in crystal coordinates                weights
   0:     0.12500000   -0.37500000    0.00000000          2/16
   1:     0.12500000   -0.12500000    0.00000000          2/16
   2:     0.12500000    0.12500000    0.00000000          2/16
   3:     0.12500000    0.37500000    0.00000000          2/16
   4:     0.37500000   -0.37500000    0.00000000          2/16
   5:     0.37500000   -0.12500000    0.00000000          2/16
   6:     0.37500000    0.12500000    0.00000000          2/16
   7:     0.37500000    0.37500000    0.00000000          2/16

Wave functions: Plane wave expansion
  Cutoff energy: 400.000 eV
  Number of coefficients (min, max): 33288, 33380
  Pulay-stress correction: 0.000000 eV/Ang^3 (de/decut=0.000000)
  Using FFTW library
  ScaLapack parameters: grid=3x1, blocksize=64
  Wavefunction extrapolation:
    Improved wavefunction reuse through dual PAW basis 

Occupation numbers: Fermi-Dirac: width=0.1000 eV
 

Eigensolver
   Davidson(niter=3) 

Densities:
  Coarse grid: 40*40*140 grid
  Fine grid: 80*80*280 grid
  Total Charge: 0.000000 

Density mixing:
  Method: separate
  Backend: pulay
  Linear mixing parameter: 0.05
  Mixing with 5 old densities
  Damping of long wave oscillations: 50 

Hamiltonian:
  XC and Coulomb potentials evaluated on a 80*80*280 grid
  Using the RPBE Exchange-Correlation functional
  External potential:
    NoExternalPotential
 

XC parameters: RPBE with 2 nearest neighbor stencil

Memory estimate:
  Process memory now: 194.60 MiB
  Calculator: 557.13 MiB
    Density: 47.40 MiB
      Arrays: 14.92 MiB
      Localized functions: 26.74 MiB
      Mixer: 5.74 MiB
    Hamiltonian: 10.59 MiB
      Arrays: 9.75 MiB
      XC: 0.00 MiB
      Poisson: 0.00 MiB
      vbar: 0.84 MiB
    Wavefunctions: 499.14 MiB
      Arrays psit_nG: 226.15 MiB
      Eigensolver: 258.79 MiB
      Projections: 1.84 MiB
      Projectors: 3.57 MiB
      PW-descriptor: 8.80 MiB

Total number of cores used: 24
Parallelization over k-points: 8
Domain decomposition: 1 x 1 x 3
                      2 x 2 x 6 (xc only)

Number of atoms: 46
Number of atomic orbitals: 544
Number of bands in calculation: 444
Number of valence electrons: 732
Bands to converge: occupied

... initialized

Initializing position-dependent things.

Density initialized from atomic densities
Creating initial wave functions:
  444 bands from LCAO basis set

                                             
                                             
                                             
                                             
                                             
                                             
                               Ag            
                  Ir    Pt                   
             Pt   PRu    HPt    Pd           
                         Pt                  
       Pt    APt    PAg    Ru                
                                             
        Ag     Ag    PPt    Pt     Ag        
                       Pd     Pt             
                Ru                           
           Ag    PAg    PPt    Pd            
                                             
            Ir     Pt    PAg    Pd           
       Pd     Pd     Pt                      
             Pd     Ag     Ag                
        Pd     Pt     Ag                     
                                             
                                             
                                             
                                             
                                             

Positions:
   0 Pd     0.000000    1.637674   10.000000    ( 0.0000,  0.0000,  0.0000)
   1 Pt     2.836535    1.637674   10.000000    ( 0.0000,  0.0000,  0.0000)
   2 Ag     5.673071    1.637674   10.000000    ( 0.0000,  0.0000,  0.0000)
   3 Pd     1.418268    4.094186   10.000000    ( 0.0000,  0.0000,  0.0000)
   4 Ag     4.254803    4.094186   10.000000    ( 0.0000,  0.0000,  0.0000)
   5 Ag     7.091338    4.094186   10.000000    ( 0.0000,  0.0000,  0.0000)
   6 Ag     2.836535    6.550698   10.000000    ( 0.0000,  0.0000,  0.0000)
   7 Pd     5.673071    6.550698   10.000000    ( 0.0000,  0.0000,  0.0000)
   8 Pd     8.509606    6.550698   10.000000    ( 0.0000,  0.0000,  0.0000)
   9 Pd     0.000000    0.000000   12.317643    ( 0.0000,  0.0000,  0.0000)
  10 Pd     2.836535    0.000000   12.317643    ( 0.0000,  0.0000,  0.0000)
  11 Pt     5.673071    0.000000   12.317643    ( 0.0000,  0.0000,  0.0000)
  12 Ir     1.418268    2.456512   12.317643    ( 0.0000,  0.0000,  0.0000)
  13 Pt     4.254803    2.456512   12.317643    ( 0.0000,  0.0000,  0.0000)
  14 Ag     7.091338    2.456512   12.317643    ( 0.0000,  0.0000,  0.0000)
  15 Pt     2.836535    4.913023   12.317643    ( 0.0000,  0.0000,  0.0000)
  16 Pd     5.673071    4.913023   12.317643    ( 0.0000,  0.0000,  0.0000)
  17 Pd     8.509606    4.913023   12.317643    ( 0.0000,  0.0000,  0.0000)
  18 Ag     1.389069    0.761593   14.611341    ( 0.0000,  0.0000,  0.0000)
  19 Ag     4.222794    0.791242   14.654783    ( 0.0000,  0.0000,  0.0000)
  20 Pt     7.073540    0.805567   14.664382    ( 0.0000,  0.0000,  0.0000)
  21 Ru     2.749307    3.307485   14.388094    ( 0.0000,  0.0000,  0.0000)
  22 Pd     5.607707    3.222150   14.639274    ( 0.0000,  0.0000,  0.0000)
  23 Pt     8.524948    3.259735   14.660441    ( 0.0000,  0.0000,  0.0000)
  24 Pt     4.174602    5.656474   14.614052    ( 0.0000,  0.0000,  0.0000)
  25 Pt     7.045997    5.607689   14.670733    ( 0.0000,  0.0000,  0.0000)
  26 Ag     9.879948    5.755300   14.695121    ( 0.0000,  0.0000,  0.0000)
  27 Ag     0.017308    1.615647   16.996175    ( 0.0000,  0.0000,  0.0000)
  28 Ag     2.800366    1.626414   16.880782    ( 0.0000,  0.0000,  0.0000)
  29 Pt     5.672197    1.642004   17.012334    ( 0.0000,  0.0000,  0.0000)
  30 Ag     1.343075    4.094522   17.005234    ( 0.0000,  0.0000,  0.0000)
  31 Pd     4.166190    4.037462   16.812922    ( 0.0000,  0.0000,  0.0000)
  32 Ru     6.951751    4.066498   16.866913    ( 0.0000,  0.0000,  0.0000)
  33 Pd     2.796571    6.569134   17.026379    ( 0.0000,  0.0000,  0.0000)
  34 Pt     5.661494    6.420339   16.911143    ( 0.0000,  0.0000,  0.0000)
  35 Pd     8.433103    6.505308   17.066448    ( 0.0000,  0.0000,  0.0000)
  36 Pt     0.070793   -0.041697   19.273531    ( 0.0000,  0.0000,  0.0000)
  37 Pt     2.805116    0.091543   19.247171    ( 0.0000,  0.0000,  0.0000)
  38 Ag     5.703172    0.006706   19.481189    ( 0.0000,  0.0000,  0.0000)
  39 Pt     1.550859    2.466264   19.402929    ( 0.0000,  0.0000,  0.0000)
  40 Ru     4.237408    2.607644   19.096110    ( 0.0000,  0.0000,  0.0000)
  41 Pt     7.106116    2.494030   19.217545    ( 0.0000,  0.0000,  0.0000)
  42 Ir     3.043460    4.824551   19.141209    ( 0.0000,  0.0000,  0.0000)
  43 Pt     5.709443    4.866601   19.167406    ( 0.0000,  0.0000,  0.0000)
  44 Ag     8.567230    4.895418   19.518661    ( 0.0000,  0.0000,  0.0000)
  45 H      7.129896    0.819680   20.818661    ( 0.0000,  0.0000,  0.0000)

Unit cell:
           periodic     x           y           z      points  spacing
  1. axis:    yes    8.509606    0.000000    0.000000    40     0.1842
  2. axis:    yes    4.254803    7.369535    0.000000    40     0.1842
  3. axis:    no     0.000000    0.000000   29.270571   140     0.2091

  Lengths:   8.509606   8.509606  29.270571
  Angles:   90.000000  90.000000  60.000000

Effective grid spacing dv^(1/3) = 0.2016

     iter     time        total  log10-change:
                         energy  eigst   dens
iter:   1 21:58:29  -243.764272
iter:   2 21:59:37  -354.922851  -1.40  -1.22
iter:   3 22:00:45  -211.291862  -1.99  -1.08
iter:   4 22:01:54  -201.618970  -2.47  -1.39
iter:   5 22:03:04  -198.543663  -2.64  -1.46
iter:   6 22:04:13  -196.257772  -2.79  -1.53
iter:   7 22:05:22  -192.200071  -3.02  -1.57
iter:   8 22:06:33  -196.130760  -2.58  -1.71
iter:   9 22:07:44  -190.236574  -2.87  -1.72
iter:  10 22:08:55  -189.898622  -3.79  -2.08
iter:  11 22:10:06  -189.888437c -4.04  -2.13
iter:  12 22:11:17  -189.671281c -3.65  -2.16
iter:  13 22:12:28  -189.711877c -4.08  -2.27
iter:  14 22:13:39  -190.033434c -4.13  -2.35
iter:  15 22:14:50  -189.623704  -4.18  -2.23
iter:  16 22:16:02  -189.519407  -4.44  -2.46
iter:  17 22:17:14  -189.478060c -4.68  -2.60
iter:  18 22:18:26  -189.440445c -4.71  -2.68
iter:  19 22:19:38  -189.456674c -5.19  -2.78
iter:  20 22:20:50  -189.466889c -4.99  -2.77
iter:  21 22:22:03  -189.421221c -5.21  -2.69
iter:  22 22:23:15  -189.415970c -5.51  -2.90
iter:  23 22:24:27  -189.412779c -5.70  -2.97
iter:  24 22:25:41  -189.405934c -5.57  -3.01
iter:  25 22:26:52  -189.425188c -5.90  -3.10
iter:  26 22:28:03  -189.419886c -5.52  -3.04
iter:  27 22:29:12  -189.408538c -6.03  -2.96
iter:  28 22:30:21  -189.406869c -6.28  -3.23
iter:  29 22:31:31  -189.405621c -6.62  -3.29
iter:  30 22:32:41  -189.403863c -6.18  -3.34
iter:  31 22:33:52  -189.419303c -6.16  -3.38
iter:  32 22:35:02  -189.405199c -6.18  -3.29
iter:  33 22:36:13  -189.404747c -7.04  -3.53
iter:  34 22:37:23  -189.405312c -6.86  -3.64
iter:  35 22:38:34  -189.405181c -7.32  -3.74
iter:  36 22:39:44  -189.405019c -7.34  -3.76
iter:  37 22:40:54  -189.407425c -7.11  -3.85
iter:  38 22:42:04  -189.404898c -7.66c -3.79
iter:  39 22:43:14  -189.404278c -7.14  -3.95
iter:  40 22:44:24  -189.405527c -7.71c -4.15c

Converged after 40 iterations.

Dipole moment: (-5.521091, 7.130799, -0.279618) |e|*Ang

Energy contributions relative to reference atoms: (reference = -12371328.023897)

Kinetic:       -230.245853
Potential:     +102.894934
External:        +0.000000
XC:             -54.157125
Entropy (-ST):   -1.884106
Local:           -6.955429
--------------------------
Free energy:   -190.347580
Extrapolated:  -189.405527

Showing only first 2 kpts
 Kpt  Band  Eigenvalues  Occupancy
  0   364      0.75745    0.94063
  0   365      0.78517    0.80450
  0   366      0.81325    0.67389
  0   367      0.84995    0.52079

  1   364      0.61974    1.55741
  1   365      0.66392    1.38695
  1   366      0.69382    1.25306
  1   367      0.71309    1.16094


Fermi level: 0.74556

No gap

Forces in eV/Ang:
  0 Pd    0.71572    0.07504    0.08240
  1 Pt   -0.61120   -0.14074    0.53621
  2 Ag   -0.09858   -0.07960   -0.56015
  3 Pd   -0.04847   -0.34786    0.20427
  4 Ag   -0.01200    0.02725   -0.57433
  5 Ag    0.14939    0.16684   -0.50246
  6 Ag    0.04096   -0.00241   -0.47743
  7 Pd    0.23418    0.34564    0.05508
  8 Pd   -0.13018    0.12732    0.18929
  9 Pd   -0.02731    0.10005   -0.00735
 10 Pd    0.01653   -0.02359   -0.11837
 11 Pt   -0.01825   -0.13392    0.15002
 12 Ir    0.70759    0.16557    0.00821
 13 Pt   -0.67661   -0.19172    0.27615
 14 Ag    0.11042   -0.03422    0.09241
 15 Pt   -0.28576    0.02001    0.18445
 16 Pd   -0.07731    0.25672    0.17469
 17 Pd    0.16311    0.01201    0.16465
 18 Ag   -0.00578    0.03243    0.00888
 19 Ag   -0.01090   -0.01095   -0.00206
 20 Pt   -0.06530   -0.05860    0.01163
 21 Ru    0.01493   -0.01268   -0.04256
 22 Pd   -0.03258   -0.00221    0.01007
 23 Pt    0.01158    0.00052   -0.00101
 24 Pt    0.01725   -0.03138    0.01523
 25 Pt    0.03258    0.04177   -0.09750
 26 Ag   -0.03319   -0.04636   -0.01470
 27 Ag   -0.05595   -0.02991   -0.08118
 28 Ag   -0.02770   -0.02809    0.01544
 29 Pt   -0.03168    0.00777   -0.06529
 30 Ag   -0.03222   -0.04077    0.04016
 31 Pd   -0.05074   -0.01221    0.03335
 32 Ru   -0.03777   -0.08504    0.16464
 33 Pd   -0.03773   -0.05472   -0.11777
 34 Pt   -0.10780    0.07645    0.15532
 35 Pd    0.01076    0.00274    0.05193
 36 Pt   -0.33430    0.15370    0.83327
 37 Pt    0.04262   -0.00065    0.00915
 38 Ag    0.14154    0.12622    0.36849
 39 Pt    0.13756    0.05631   -0.04489
 40 Ru   -0.10984    0.02255   -0.00470
 41 Pt   -0.00062   -0.32863    0.58410
 42 Ir    0.03250   -0.11961    0.02994
 43 Pt    0.02239   -0.02702   -0.03856
 44 Ag   -0.00763    0.01002    0.00932
 45 H     0.37600    0.01726   -1.57932

System changes: positions 

Initializing position-dependent things.

Density initialized from wave functions
                                             
                                             
                                             
                                             
                                             
                                             
                               Ag            
                  Ir    Pt                   
             Pt   PRu    HPt    Pd           
                         Pt                  
       Pt    APt    PAg    Ru                
                                             
        Ag     Ag    PPt    Pt     Ag        
                       Pd     Pt             
                Ru                           
           Ag    PAg    PPt    Pd            
                                             
            Ir     Pt    PAg    Pd           
       Pd     Pd     Pt                      
             Pd     Ag     Ag                
        Pd     Pt     Ag                     
                                             
                                             
                                             
                                             
                                             

Positions:
   0 Pd     0.000000    1.637674   10.000000    ( 0.0000,  0.0000,  0.0000)
   1 Pt     2.836535    1.637674   10.000000    ( 0.0000,  0.0000,  0.0000)
   2 Ag     5.673071    1.637674   10.000000    ( 0.0000,  0.0000,  0.0000)
   3 Pd     1.418268    4.094186   10.000000    ( 0.0000,  0.0000,  0.0000)
   4 Ag     4.254803    4.094186   10.000000    ( 0.0000,  0.0000,  0.0000)
   5 Ag     7.091338    4.094186   10.000000    ( 0.0000,  0.0000,  0.0000)
   6 Ag     2.836535    6.550698   10.000000    ( 0.0000,  0.0000,  0.0000)
   7 Pd     5.673071    6.550698   10.000000    ( 0.0000,  0.0000,  0.0000)
   8 Pd     8.509606    6.550698   10.000000    ( 0.0000,  0.0000,  0.0000)
   9 Pd     0.000000    0.000000   12.317643    ( 0.0000,  0.0000,  0.0000)
  10 Pd     2.836535    0.000000   12.317643    ( 0.0000,  0.0000,  0.0000)
  11 Pt     5.673071    0.000000   12.317643    ( 0.0000,  0.0000,  0.0000)
  12 Ir     1.418268    2.456512   12.317643    ( 0.0000,  0.0000,  0.0000)
  13 Pt     4.254803    2.456512   12.317643    ( 0.0000,  0.0000,  0.0000)
  14 Ag     7.091338    2.456512   12.317643    ( 0.0000,  0.0000,  0.0000)
  15 Pt     2.836535    4.913023   12.317643    ( 0.0000,  0.0000,  0.0000)
  16 Pd     5.673071    4.913023   12.317643    ( 0.0000,  0.0000,  0.0000)
  17 Pd     8.509606    4.913023   12.317643    ( 0.0000,  0.0000,  0.0000)
  18 Ag     1.388986    0.762056   14.611468    ( 0.0000,  0.0000,  0.0000)
  19 Ag     4.222638    0.791085   14.654754    ( 0.0000,  0.0000,  0.0000)
  20 Pt     7.072607    0.804730   14.664549    ( 0.0000,  0.0000,  0.0000)
  21 Ru     2.749521    3.307304   14.387486    ( 0.0000,  0.0000,  0.0000)
  22 Pd     5.607242    3.222119   14.639418    ( 0.0000,  0.0000,  0.0000)
  23 Pt     8.525113    3.259742   14.660427    ( 0.0000,  0.0000,  0.0000)
  24 Pt     4.174848    5.656026   14.614269    ( 0.0000,  0.0000,  0.0000)
  25 Pt     7.046463    5.608285   14.669340    ( 0.0000,  0.0000,  0.0000)
  26 Ag     9.879474    5.754638   14.694911    ( 0.0000,  0.0000,  0.0000)
  27 Ag     0.016509    1.615220   16.995016    ( 0.0000,  0.0000,  0.0000)
  28 Ag     2.799970    1.626013   16.881003    ( 0.0000,  0.0000,  0.0000)
  29 Pt     5.671745    1.642115   17.011401    ( 0.0000,  0.0000,  0.0000)
  30 Ag     1.342615    4.093940   17.005808    ( 0.0000,  0.0000,  0.0000)
  31 Pd     4.165466    4.037287   16.813398    ( 0.0000,  0.0000,  0.0000)
  32 Ru     6.951212    4.065283   16.869265    ( 0.0000,  0.0000,  0.0000)
  33 Pd     2.796031    6.568353   17.024697    ( 0.0000,  0.0000,  0.0000)
  34 Pt     5.659954    6.421431   16.913362    ( 0.0000,  0.0000,  0.0000)
  35 Pd     8.433257    6.505347   17.067190    ( 0.0000,  0.0000,  0.0000)
  36 Pt     0.066017   -0.039501   19.285435    ( 0.0000,  0.0000,  0.0000)
  37 Pt     2.805725    0.091534   19.247302    ( 0.0000,  0.0000,  0.0000)
  38 Ag     5.705194    0.008509   19.486453    ( 0.0000,  0.0000,  0.0000)
  39 Pt     1.552824    2.467068   19.402288    ( 0.0000,  0.0000,  0.0000)
  40 Ru     4.235839    2.607966   19.096043    ( 0.0000,  0.0000,  0.0000)
  41 Pt     7.106107    2.489335   19.225890    ( 0.0000,  0.0000,  0.0000)
  42 Ir     3.043924    4.822842   19.141636    ( 0.0000,  0.0000,  0.0000)
  43 Pt     5.709763    4.866215   19.166855    ( 0.0000,  0.0000,  0.0000)
  44 Ag     8.567121    4.895561   19.518794    ( 0.0000,  0.0000,  0.0000)
  45 H      7.135267    0.819926   20.796099    ( 0.0000,  0.0000,  0.0000)

Unit cell:
           periodic     x           y           z      points  spacing
  1. axis:    yes    8.509606    0.000000    0.000000    40     0.1842
  2. axis:    yes    4.254803    7.369535    0.000000    40     0.1842
  3. axis:    no     0.000000    0.000000   29.270571   140     0.2091

  Lengths:   8.509606   8.509606  29.270571
  Angles:   90.000000  90.000000  60.000000

Effective grid spacing dv^(1/3) = 0.2016

     iter     time        total  log10-change:
                         energy  eigst   dens
iter:   1 22:45:57  -189.614348  -4.55
iter:   2 22:47:06  -193.454585  -3.76  -2.57
iter:   3 22:48:14  -189.617249  -4.15  -1.96
iter:   4 22:49:24  -189.481455  -5.16  -2.74
iter:   5 22:50:34  -189.466213c -5.90  -3.36
iter:   6 22:51:44  -189.466562c -6.33  -3.41
iter:   7 22:52:53  -189.466438c -6.52  -3.67
iter:   8 22:54:02  -189.466899c -6.72  -3.76
iter:   9 22:55:12  -189.464813c -7.27  -3.83
iter:  10 22:56:22  -189.466051c -7.54c -3.82
iter:  11 22:57:31  -189.464536c -7.61c -4.10c

Converged after 11 iterations.

Dipole moment: (-5.480429, 6.955764, -0.270084) |e|*Ang

Energy contributions relative to reference atoms: (reference = -12371328.023897)

Kinetic:       -230.052363
Potential:     +102.657116
External:        +0.000000
XC:             -54.212470
Entropy (-ST):   -1.887144
Local:           -6.913246
--------------------------
Free energy:   -190.408108
Extrapolated:  -189.464536

Showing only first 2 kpts
 Kpt  Band  Eigenvalues  Occupancy
  0   364      0.75979    0.94197
  0   365      0.78695    0.80851
  0   366      0.81554    0.67535
  0   367      0.85077    0.52774

  1   364      0.62151    1.56031
  1   365      0.66602    1.38910
  1   366      0.69615    1.25441
  1   367      0.71571    1.16088


Fermi level: 0.74817

No gap

Forces in eV/Ang:
  0 Pd    0.71922    0.06578    0.09221
  1 Pt   -0.62095   -0.16071    0.54325
  2 Ag   -0.09514   -0.08018   -0.56329
  3 Pd   -0.05107   -0.33563    0.19785
  4 Ag   -0.00660    0.03593   -0.57488
  5 Ag    0.14490    0.16986   -0.49116
  6 Ag    0.04223   -0.00462   -0.48012
  7 Pd    0.23555    0.35049    0.06805
  8 Pd   -0.13492    0.12377    0.18861
  9 Pd   -0.00479    0.10030   -0.02918
 10 Pd    0.00170   -0.03956   -0.13772
 11 Pt   -0.02785   -0.14013    0.13199
 12 Ir    0.68611    0.14252   -0.04316
 13 Pt   -0.65617   -0.19636    0.24987
 14 Ag    0.11068   -0.02268    0.08247
 15 Pt   -0.28336    0.04054    0.14497
 16 Pd   -0.05921    0.26495    0.15724
 17 Pd    0.14332    0.01866    0.14371
 18 Ag   -0.00422    0.01811    0.00712
 19 Ag   -0.01891   -0.01955    0.00067
 20 Pt   -0.04878   -0.04469    0.00302
 21 Ru    0.02333   -0.01967   -0.01516
 22 Pd   -0.01965   -0.00005   -0.00543
 23 Pt   -0.00828   -0.00320   -0.00685
 24 Pt    0.02922   -0.01877    0.00574
 25 Pt    0.02457    0.04091   -0.10150
 26 Ag   -0.04228   -0.03496   -0.00774
 27 Ag   -0.04524   -0.03359   -0.04664
 28 Ag   -0.04230   -0.02633   -0.01004
 29 Pt   -0.02761    0.00625   -0.05389
 30 Ag   -0.03505   -0.03508    0.03442
 31 Pd   -0.05470   -0.00694    0.00744
 32 Ru   -0.02775   -0.07064    0.15250
 33 Pd   -0.03003   -0.05677   -0.08559
 34 Pt   -0.10762    0.07649    0.13527
 35 Pd    0.02265   -0.00937    0.04556
 36 Pt   -0.31003    0.15855    0.70668
 37 Pt    0.03076   -0.01848   -0.02751
 38 Ag    0.09686    0.08812    0.31229
 39 Pt    0.10098    0.05619   -0.10196
 40 Ru   -0.09193    0.00098   -0.04727
 41 Pt    0.01228   -0.29399    0.48244
 42 Ir    0.01543   -0.08724   -0.03854
 43 Pt    0.04328   -0.02349   -0.06853
 44 Ag   -0.01099    0.00893   -0.01774
 45 H     0.41578    0.02433   -1.57411

System changes: positions 

Initializing position-dependent things.

Density initialized from wave functions
                                            
                                            
                                            
                                            
                                            
                                            
                 Ir     Pt     Ag           
            Pt           H                  
                  PRu    PPt   Pd           
       Pt    APt     Ag                     
                    Pd    Ru                
        Ag     Ag   PtPt    Pt     Ag       
                                            
                Ru     Pd     Pt            
           Ag     Ag     Pt                 
                 Pt     Pd     Pd           
            Ir     Pt     Ag                
                  Ag     Pd     Pd          
       Pd    PPd    APt    Ag               
        Pd     Pt     Ag                    
                                            
                                            
                                            
                                            
                                            

Positions:
   0 Pd     0.000000    1.637674   10.000000    ( 0.0000,  0.0000,  0.0000)
   1 Pt     2.836535    1.637674   10.000000    ( 0.0000,  0.0000,  0.0000)
   2 Ag     5.673071    1.637674   10.000000    ( 0.0000,  0.0000,  0.0000)
   3 Pd     1.418268    4.094186   10.000000    ( 0.0000,  0.0000,  0.0000)
   4 Ag     4.254803    4.094186   10.000000    ( 0.0000,  0.0000,  0.0000)
   5 Ag     7.091338    4.094186   10.000000    ( 0.0000,  0.0000,  0.0000)
   6 Ag     2.836535    6.550698   10.000000    ( 0.0000,  0.0000,  0.0000)
   7 Pd     5.673071    6.550698   10.000000    ( 0.0000,  0.0000,  0.0000)
   8 Pd     8.509606    6.550698   10.000000    ( 0.0000,  0.0000,  0.0000)
   9 Pd     0.000000    0.000000   12.317643    ( 0.0000,  0.0000,  0.0000)
  10 Pd     2.836535    0.000000   12.317643    ( 0.0000,  0.0000,  0.0000)
  11 Pt     5.673071    0.000000   12.317643    ( 0.0000,  0.0000,  0.0000)
  12 Ir     1.418268    2.456512   12.317643    ( 0.0000,  0.0000,  0.0000)
  13 Pt     4.254803    2.456512   12.317643    ( 0.0000,  0.0000,  0.0000)
  14 Ag     7.091338    2.456512   12.317643    ( 0.0000,  0.0000,  0.0000)
  15 Pt     2.836535    4.913023   12.317643    ( 0.0000,  0.0000,  0.0000)
  16 Pd     5.673071    4.913023   12.317643    ( 0.0000,  0.0000,  0.0000)
  17 Pd     8.509606    4.913023   12.317643    ( 0.0000,  0.0000,  0.0000)
  18 Ag     1.388436    0.764580   14.612379    ( 0.0000,  0.0000,  0.0000)
  19 Ag     4.220481    0.788862   14.654779    ( 0.0000,  0.0000,  0.0000)
  20 Pt     7.066268    0.798947   14.665099    ( 0.0000,  0.0000,  0.0000)
  21 Ru     2.752212    3.305033   14.385052    ( 0.0000,  0.0000,  0.0000)
  22 Pd     5.604557    3.222067   14.639073    ( 0.0000,  0.0000,  0.0000)
  23 Pt     8.524509    3.259426   14.659707    ( 0.0000,  0.0000,  0.0000)
  24 Pt     4.178190    5.653457   14.615172    ( 0.0000,  0.0000,  0.0000)
  25 Pt     7.049649    5.613331   14.656949    ( 0.0000,  0.0000,  0.0000)
  26 Ag     9.874467    5.750104   14.693815    ( 0.0000,  0.0000,  0.0000)
  27 Ag     0.010727    1.611168   16.988564    ( 0.0000,  0.0000,  0.0000)
  28 Ag     2.795076    1.622740   16.880299    ( 0.0000,  0.0000,  0.0000)
  29 Pt     5.668266    1.642915   17.004541    ( 0.0000,  0.0000,  0.0000)
  30 Ag     1.338366    4.089510   17.010157    ( 0.0000,  0.0000,  0.0000)
  31 Pd     4.158826    4.036325   16.814853    ( 0.0000,  0.0000,  0.0000)
  32 Ru     6.947593    4.056302   16.888259    ( 0.0000,  0.0000,  0.0000)
  33 Pd     2.792181    6.561419   17.013508    ( 0.0000,  0.0000,  0.0000)
  34 Pt     5.646724    6.430830   16.930404    ( 0.0000,  0.0000,  0.0000)
  35 Pd     8.435792    6.504448   17.072921    ( 0.0000,  0.0000,  0.0000)
  36 Pt     0.027410   -0.020118   19.374920    ( 0.0000,  0.0000,  0.0000)
  37 Pt     2.809752    0.089634   19.244685    ( 0.0000,  0.0000,  0.0000)
  38 Ag     5.718029    0.020132   19.526004    ( 0.0000,  0.0000,  0.0000)
  39 Pt     1.565997    2.473976   19.390947    ( 0.0000,  0.0000,  0.0000)
  40 Ru     4.224168    2.608536   19.091121    ( 0.0000,  0.0000,  0.0000)
  41 Pt     7.107347    2.452483   19.287297    ( 0.0000,  0.0000,  0.0000)
  42 Ir     3.046177    4.811446   19.138327    ( 0.0000,  0.0000,  0.0000)
  43 Pt     5.714646    4.863255   19.159058    ( 0.0000,  0.0000,  0.0000)
  44 Ag     8.565841    4.896681   19.517178    ( 0.0000,  0.0000,  0.0000)
  45 H      7.185535    0.822769   20.602540    ( 0.0000,  0.0000,  0.0000)

Unit cell:
           periodic     x           y           z      points  spacing
  1. axis:    yes    8.509606    0.000000    0.000000    40     0.1842
  2. axis:    yes    4.254803    7.369535    0.000000    40     0.1842
  3. axis:    no     0.000000    0.000000   29.270571   140     0.2091

  Lengths:   8.509606   8.509606  29.270571
  Angles:   90.000000  90.000000  60.000000

Effective grid spacing dv^(1/3) = 0.2016

     iter     time        total  log10-change:
                         energy  eigst   dens
iter:   1 22:59:03  -201.501755  -2.89
iter:   2 23:00:12  -301.868734  -2.03  -1.72
iter:   3 23:01:21  -200.406122  -2.37  -1.28
iter:   4 23:02:30  -191.417270  -3.26  -1.78
iter:   5 23:03:40  -190.244106  -3.97  -2.20
iter:   6 23:04:49  -190.135952  -4.72  -2.59
iter:   7 23:05:59  -190.013509c -4.70  -2.64
iter:   8 23:07:09  -189.970055c -4.59  -2.73
iter:   9 23:08:20  -190.012430c -5.00  -2.64
iter:  10 23:09:30  -189.882103c -5.03  -2.69
iter:  11 23:10:40  -189.868604c -5.55  -3.05
iter:  12 23:11:51  -189.869145c -5.96  -3.17
iter:  13 23:13:02  -189.865604c -5.85  -3.19
iter:  14 23:14:12  -189.864984c -6.01  -3.28
iter:  15 23:15:22  -189.865574c -6.20  -3.42
iter:  16 23:16:33  -189.865418c -6.72  -3.59
iter:  17 23:17:43  -189.868179c -6.48  -3.66
iter:  18 23:18:53  -189.863404c -6.52  -3.56
iter:  19 23:20:03  -189.867142c -6.97  -3.67
iter:  20 23:21:13  -189.864825c -7.19  -3.79
iter:  21 23:22:22  -189.864333c -7.73c -4.10c

Converged after 21 iterations.

Dipole moment: (-4.710966, 5.631749, -0.252563) |e|*Ang

Energy contributions relative to reference atoms: (reference = -12371328.023897)

Kinetic:       -232.195194
Potential:     +104.524142
External:        +0.000000
XC:             -54.347788
Entropy (-ST):   -1.883613
Local:           -6.903687
--------------------------
Free energy:   -190.806139
Extrapolated:  -189.864333

Showing only first 2 kpts
 Kpt  Band  Eigenvalues  Occupancy
  0   364      0.76829    0.95684
  0   365      0.79502    0.82499
  0   366      0.82183    0.69876
  0   367      0.84961    0.57825

  1   364      0.62995    1.57066
  1   365      0.66749    1.43073
  1   366      0.70513    1.26605
  1   367      0.72882    1.15295


Fermi level: 0.75965

No gap

Forces in eV/Ang:
  0 Pd    0.72948    0.06458    0.10241
  1 Pt   -0.62554   -0.16714    0.56262
  2 Ag   -0.09947   -0.08514   -0.55208
  3 Pd   -0.05622   -0.33865    0.21686
  4 Ag   -0.01088    0.03371   -0.56289
  5 Ag    0.15214    0.17307   -0.48399
  6 Ag    0.04097   -0.00354   -0.46812
  7 Pd    0.23932    0.36025    0.07604
  8 Pd   -0.13640    0.12721    0.19805
  9 Pd   -0.00916    0.09843   -0.01319
 10 Pd    0.00021   -0.03691   -0.12947
 11 Pt   -0.02709   -0.14362    0.13853
 12 Ir    0.68378    0.14447   -0.03840
 13 Pt   -0.64975   -0.19997    0.24941
 14 Ag    0.10983   -0.03067    0.09892
 15 Pt   -0.28172    0.04533    0.15601
 16 Pd   -0.07102    0.25839    0.15493
 17 Pd    0.14894    0.01187    0.13092
 18 Ag   -0.02732   -0.01472    0.00631
 19 Ag   -0.01598   -0.01380    0.00872
 20 Pt   -0.01000   -0.01598   -0.03210
 21 Ru    0.00564   -0.00394    0.01191
 22 Pd    0.01828    0.01480    0.04316
 23 Pt   -0.02681   -0.00874    0.01720
 24 Pt    0.01933    0.00724    0.01763
 25 Pt   -0.05922   -0.03775    0.14426
 26 Ag   -0.00855   -0.04161   -0.00232
 27 Ag   -0.11118   -0.07194    0.20220
 28 Ag   -0.02906   -0.03881   -0.03059
 29 Pt    0.02356    0.03296    0.10765
 30 Ag   -0.05650   -0.02833   -0.02263
 31 Pd   -0.00716   -0.00059   -0.05471
 32 Ru   -0.06209    0.09038   -0.05963
 33 Pd    0.03318   -0.00079    0.10219
 34 Pt   -0.00566   -0.01880    0.03721
 35 Pd   -0.03864   -0.00219    0.00252
 36 Pt   -0.05028    0.04906    0.36679
 37 Pt   -0.09961    0.00848    0.03084
 38 Ag   -0.34342   -0.16687    0.01021
 39 Pt   -0.03100   -0.03762    0.02957
 40 Ru    0.10214   -0.10916    0.02034
 41 Pt   -0.03711   -0.00070    0.21996
 42 Ir   -0.00150    0.14800    0.05947
 43 Pt    0.00984   -0.08970    0.03214
 44 Ag   -0.00904   -0.03630    0.00649
 45 H     0.68969    0.07856   -1.10747

System changes: positions 

Initializing position-dependent things.

Density initialized from wave functions
                                            
                                            
                                            
                                            
                                            
                                            
                 Ir     Pt     Ag           
            Pt           HPt                
                  PRuAg  Pt    Pd           
       Pt    APt          Ru                
                    Pd                      
        Ag     Ag    PPt    Pt     Ag       
                                            
                Ru     Pd     Pt            
           Ag     Ag     Pt                 
                 Pt     Pd     Pd           
            Ir     Pt     Ag                
       Pd     Pd  Ag Pt  Pd     Pd          
             Pd     Ag     Ag               
        Pd     Pt     Ag                    
                                            
                                            
                                            
                                            
                                            

Positions:
   0 Pd     0.000000    1.637674   10.000000    ( 0.0000,  0.0000,  0.0000)
   1 Pt     2.836535    1.637674   10.000000    ( 0.0000,  0.0000,  0.0000)
   2 Ag     5.673071    1.637674   10.000000    ( 0.0000,  0.0000,  0.0000)
   3 Pd     1.418268    4.094186   10.000000    ( 0.0000,  0.0000,  0.0000)
   4 Ag     4.254803    4.094186   10.000000    ( 0.0000,  0.0000,  0.0000)
   5 Ag     7.091338    4.094186   10.000000    ( 0.0000,  0.0000,  0.0000)
   6 Ag     2.836535    6.550698   10.000000    ( 0.0000,  0.0000,  0.0000)
   7 Pd     5.673071    6.550698   10.000000    ( 0.0000,  0.0000,  0.0000)
   8 Pd     8.509606    6.550698   10.000000    ( 0.0000,  0.0000,  0.0000)
   9 Pd     0.000000    0.000000   12.317643    ( 0.0000,  0.0000,  0.0000)
  10 Pd     2.836535    0.000000   12.317643    ( 0.0000,  0.0000,  0.0000)
  11 Pt     5.673071    0.000000   12.317643    ( 0.0000,  0.0000,  0.0000)
  12 Ir     1.418268    2.456512   12.317643    ( 0.0000,  0.0000,  0.0000)
  13 Pt     4.254803    2.456512   12.317643    ( 0.0000,  0.0000,  0.0000)
  14 Ag     7.091338    2.456512   12.317643    ( 0.0000,  0.0000,  0.0000)
  15 Pt     2.836535    4.913023   12.317643    ( 0.0000,  0.0000,  0.0000)
  16 Pd     5.673071    4.913023   12.317643    ( 0.0000,  0.0000,  0.0000)
  17 Pd     8.509606    4.913023   12.317643    ( 0.0000,  0.0000,  0.0000)
  18 Ag     1.387362    0.766578   14.613319    ( 0.0000,  0.0000,  0.0000)
  19 Ag     4.218340    0.786715   14.654964    ( 0.0000,  0.0000,  0.0000)
  20 Pt     7.060417    0.793474   14.664967    ( 0.0000,  0.0000,  0.0000)
  21 Ru     2.754592    3.303041   14.382957    ( 0.0000,  0.0000,  0.0000)
  22 Pd     5.602507    3.222319   14.639830    ( 0.0000,  0.0000,  0.0000)
  23 Pt     8.523588    3.258999   14.659500    ( 0.0000,  0.0000,  0.0000)
  24 Pt     4.181394    5.651274   14.616413    ( 0.0000,  0.0000,  0.0000)
  25 Pt     7.051218    5.616907   14.649320    ( 0.0000,  0.0000,  0.0000)
  26 Ag     9.870026    5.745188   14.692755    ( 0.0000,  0.0000,  0.0000)
  27 Ag     0.003253    1.606156   16.986980    ( 0.0000,  0.0000,  0.0000)
  28 Ag     2.790343    1.619062   16.879261    ( 0.0000,  0.0000,  0.0000)
  29 Pt     5.665719    1.644324   17.000790    ( 0.0000,  0.0000,  0.0000)
  30 Ag     1.333505    4.085018   17.013494    ( 0.0000,  0.0000,  0.0000)
  31 Pd     4.152954    4.035432   16.815173    ( 0.0000,  0.0000,  0.0000)
  32 Ru     6.943046    4.050319   16.903556    ( 0.0000,  0.0000,  0.0000)
  33 Pd     2.789483    6.555410   17.005707    ( 0.0000,  0.0000,  0.0000)
  34 Pt     5.635137    6.438575   16.946141    ( 0.0000,  0.0000,  0.0000)
  35 Pd     8.437063    6.503728   17.077998    ( 0.0000,  0.0000,  0.0000)
  36 Pt    -0.007332   -0.002317   19.461394    ( 0.0000,  0.0000,  0.0000)
  37 Pt     2.811224    0.088325   19.243394    ( 0.0000,  0.0000,  0.0000)
  38 Ag     5.722225    0.026983   19.560988    ( 0.0000,  0.0000,  0.0000)
  39 Pt     1.577072    2.479161   19.382248    ( 0.0000,  0.0000,  0.0000)
  40 Ru     4.216074    2.606893   19.087660    ( 0.0000,  0.0000,  0.0000)
  41 Pt     7.107519    2.420228   19.346091    ( 0.0000,  0.0000,  0.0000)
  42 Ir     3.048246    4.804441   19.137325    ( 0.0000,  0.0000,  0.0000)
  43 Pt     5.718906    4.858747   19.153248    ( 0.0000,  0.0000,  0.0000)
  44 Ag     8.564567    4.896888   19.516152    ( 0.0000,  0.0000,  0.0000)
  45 H      7.243448    0.826845   20.411152    ( 0.0000,  0.0000,  0.0000)

Unit cell:
           periodic     x           y           z      points  spacing
  1. axis:    yes    8.509606    0.000000    0.000000    40     0.1842
  2. axis:    yes    4.254803    7.369535    0.000000    40     0.1842
  3. axis:    no     0.000000    0.000000   29.270571   140     0.2091

  Lengths:   8.509606   8.509606  29.270571
  Angles:   90.000000  90.000000  60.000000

Effective grid spacing dv^(1/3) = 0.2016

     iter     time        total  log10-change:
                         energy  eigst   dens
iter:   1 23:23:56  -195.716103  -2.98
iter:   2 23:25:07  -250.921366  -2.40  -1.86
iter:   3 23:26:17  -195.827824  -2.66  -1.42
iter:   4 23:27:27  -190.770338  -3.49  -1.90
iter:   5 23:28:36  -190.190336  -4.18  -2.34
iter:   6 23:29:45  -190.157436  -4.92  -2.71
iter:   7 23:30:55  -190.108185c -5.02  -2.78
iter:   8 23:32:05  -190.048647c -4.68  -2.78
iter:   9 23:33:15  -190.064537c -5.26  -2.80
iter:  10 23:34:25  -190.006845c -5.31  -2.88
iter:  11 23:35:36  -190.001694c -5.69  -3.21
iter:  12 23:36:45  -190.004113c -5.94  -3.12
iter:  13 23:37:53  -190.000260c -5.80  -3.40
iter:  14 23:39:02  -189.999112c -6.40  -3.51
iter:  15 23:40:10  -189.999473c -6.49  -3.58
iter:  16 23:41:18  -190.002600c -6.67  -3.50
iter:  17 23:42:26  -189.998210c -6.64  -3.56
iter:  18 23:43:35  -190.002535c -6.69  -3.72
iter:  19 23:44:43  -189.998873c -7.14  -3.67
iter:  20 23:45:51  -189.998906c -7.13  -4.03c
iter:  21 23:47:00  -189.999831c -7.58c -4.07c

Converged after 21 iterations.

Dipole moment: (-3.868282, 4.550248, -0.244713) |e|*Ang

Energy contributions relative to reference atoms: (reference = -12371328.023897)

Kinetic:       -230.319603
Potential:     +103.170524
External:        +0.000000
XC:             -54.997611
Entropy (-ST):   -1.877147
Local:           -6.914569
--------------------------
Free energy:   -190.938405
Extrapolated:  -189.999831

Showing only first 2 kpts
 Kpt  Band  Eigenvalues  Occupancy
  0   364      0.76755    0.98512
  0   365      0.79316    0.85801
  0   366      0.82151    0.72278
  0   367      0.84200    0.63112

  1   364      0.63415    1.57309
  1   365      0.66307    1.46801
  1   366      0.70687    1.28074
  1   367      0.73391    1.15214


Fermi level: 0.76457

No gap

Forces in eV/Ang:
  0 Pd    0.72410    0.06395    0.10218
  1 Pt   -0.61934   -0.16831    0.56736
  2 Ag   -0.09937   -0.08369   -0.55566
  3 Pd   -0.06012   -0.33443    0.22162
  4 Ag   -0.00761    0.03431   -0.56503
  5 Ag    0.15110    0.17108   -0.49074
  6 Ag    0.04091   -0.00372   -0.47153
  7 Pd    0.23604    0.35690    0.07447
  8 Pd   -0.13254    0.12790    0.19558
  9 Pd   -0.01122    0.09644    0.00233
 10 Pd   -0.00365   -0.03396   -0.11091
 11 Pt   -0.02600   -0.14656    0.14111
 12 Ir    0.68142    0.14502   -0.02711
 13 Pt   -0.64292   -0.19929    0.25175
 14 Ag    0.10733   -0.03421    0.11320
 15 Pt   -0.27742    0.04719    0.16487
 16 Pd   -0.08023    0.25008    0.15358
 17 Pd    0.14944    0.00258    0.12520
 18 Ag   -0.04652   -0.04076    0.00911
 19 Ag   -0.01416   -0.00701    0.01746
 20 Pt    0.02746    0.01160   -0.04766
 21 Ru   -0.00563    0.00478    0.03659
 22 Pd    0.04095    0.01703    0.06538
 23 Pt   -0.04070   -0.02267    0.03199
 24 Pt    0.00426    0.03165    0.02684
 25 Pt   -0.11932   -0.09204    0.30190
 26 Ag    0.01970   -0.04089    0.00971
 27 Ag   -0.15132   -0.08246    0.36157
 28 Ag   -0.01531   -0.04707   -0.05308
 29 Pt    0.04737    0.02901    0.22776
 30 Ag   -0.07255   -0.00560   -0.06064
 31 Pd    0.02738    0.01208   -0.09568
 32 Ru   -0.07219    0.20739   -0.22877
 33 Pd    0.05409    0.03763    0.24339
 34 Pt    0.08026   -0.10442   -0.07286
 35 Pd   -0.06699   -0.00264   -0.01901
 36 Pt    0.63113   -0.40580   -0.31458
 37 Pt   -0.14259   -0.00411    0.09642
 38 Ag   -0.87300   -0.47082   -0.25766
 39 Pt   -0.14827   -0.07629    0.14904
 40 Ru    0.25837   -0.18818    0.07884
 41 Pt   -0.12560    0.61856   -0.20574
 42 Ir   -0.04172    0.32365    0.14489
 43 Pt    0.01142   -0.14338    0.13535
 44 Ag   -0.00408   -0.05618    0.04031
 45 H     0.59318    0.19704   -0.09863

System changes: positions 

Initializing position-dependent things.

Density initialized from wave functions
                                            
                                            
                                            
                                            
                                            
                                            
                 Ir     Pt     Ag           
            Pt           HPt                
                  PRuAg  Pt    Pd           
       Pt    APt          Ru                
                    Pd                      
        Ag     Ag    PPt    Pt     Ag       
                                            
                Ru     Pd     Pt            
           Ag     Ag     Pt                 
                 Pt     Pd     Pd           
            Ir     Pt     Ag                
       Pd     Pd  Ag Pt  Pd     Pd          
             Pd     Ag     Ag               
        Pd     Pt     Ag                    
                                            
                                            
                                            
                                            
                                            

Positions:
   0 Pd     0.000000    1.637674   10.000000    ( 0.0000,  0.0000,  0.0000)
   1 Pt     2.836535    1.637674   10.000000    ( 0.0000,  0.0000,  0.0000)
   2 Ag     5.673071    1.637674   10.000000    ( 0.0000,  0.0000,  0.0000)
   3 Pd     1.418268    4.094186   10.000000    ( 0.0000,  0.0000,  0.0000)
   4 Ag     4.254803    4.094186   10.000000    ( 0.0000,  0.0000,  0.0000)
   5 Ag     7.091338    4.094186   10.000000    ( 0.0000,  0.0000,  0.0000)
   6 Ag     2.836535    6.550698   10.000000    ( 0.0000,  0.0000,  0.0000)
   7 Pd     5.673071    6.550698   10.000000    ( 0.0000,  0.0000,  0.0000)
   8 Pd     8.509606    6.550698   10.000000    ( 0.0000,  0.0000,  0.0000)
   9 Pd     0.000000    0.000000   12.317643    ( 0.0000,  0.0000,  0.0000)
  10 Pd     2.836535    0.000000   12.317643    ( 0.0000,  0.0000,  0.0000)
  11 Pt     5.673071    0.000000   12.317643    ( 0.0000,  0.0000,  0.0000)
  12 Ir     1.418268    2.456512   12.317643    ( 0.0000,  0.0000,  0.0000)
  13 Pt     4.254803    2.456512   12.317643    ( 0.0000,  0.0000,  0.0000)
  14 Ag     7.091338    2.456512   12.317643    ( 0.0000,  0.0000,  0.0000)
  15 Pt     2.836535    4.913023   12.317643    ( 0.0000,  0.0000,  0.0000)
  16 Pd     5.673071    4.913023   12.317643    ( 0.0000,  0.0000,  0.0000)
  17 Pd     8.509606    4.913023   12.317643    ( 0.0000,  0.0000,  0.0000)
  18 Ag     1.386909    0.765925   14.613325    ( 0.0000,  0.0000,  0.0000)
  19 Ag     4.218487    0.786953   14.655136    ( 0.0000,  0.0000,  0.0000)
  20 Pt     7.061362    0.794195   14.664442    ( 0.0000,  0.0000,  0.0000)
  21 Ru     2.754166    3.303399   14.383477    ( 0.0000,  0.0000,  0.0000)
  22 Pd     5.603186    3.222493   14.640670    ( 0.0000,  0.0000,  0.0000)
  23 Pt     8.523335    3.258805   14.659967    ( 0.0000,  0.0000,  0.0000)
  24 Pt     4.180972    5.651846   14.616659    ( 0.0000,  0.0000,  0.0000)
  25 Pt     7.049594    5.615321   14.654071    ( 0.0000,  0.0000,  0.0000)
  26 Ag     9.870883    5.745205   14.692952    ( 0.0000,  0.0000,  0.0000)
  27 Ag     0.002218    1.605763   16.991453    ( 0.0000,  0.0000,  0.0000)
  28 Ag     2.790839    1.618920   16.878915    ( 0.0000,  0.0000,  0.0000)
  29 Pt     5.666609    1.644542   17.004007    ( 0.0000,  0.0000,  0.0000)
  30 Ag     1.333227    4.085450   17.012362    ( 0.0000,  0.0000,  0.0000)
  31 Pd     4.154052    4.035649   16.814120    ( 0.0000,  0.0000,  0.0000)
  32 Ru     6.942629    4.053542   16.898908    ( 0.0000,  0.0000,  0.0000)
  33 Pd     2.790461    6.556641   17.009475    ( 0.0000,  0.0000,  0.0000)
  34 Pt     5.637564    6.436328   16.943455    ( 0.0000,  0.0000,  0.0000)
  35 Pd     8.435973    6.503875   17.077165    ( 0.0000,  0.0000,  0.0000)
  36 Pt     0.004205   -0.009259   19.448022    ( 0.0000,  0.0000,  0.0000)
  37 Pt     2.809302    0.088591   19.244988    ( 0.0000,  0.0000,  0.0000)
  38 Ag     5.711354    0.020653   19.553872    ( 0.0000,  0.0000,  0.0000)
  39 Pt     1.574126    2.477541   19.385559    ( 0.0000,  0.0000,  0.0000)
  40 Ru     4.220154    2.604906   19.089360    ( 0.0000,  0.0000,  0.0000)
  41 Pt     7.105895    2.431308   19.337153    ( 0.0000,  0.0000,  0.0000)
  42 Ir     3.047615    4.809107   19.139716    ( 0.0000,  0.0000,  0.0000)
  43 Pt     5.718348    4.857505   19.155834    ( 0.0000,  0.0000,  0.0000)
  44 Ag     8.564695    4.896159   19.516955    ( 0.0000,  0.0000,  0.0000)
  45 H      7.243626    0.828665   20.433053    ( 0.0000,  0.0000,  0.0000)

Unit cell:
           periodic     x           y           z      points  spacing
  1. axis:    yes    8.509606    0.000000    0.000000    40     0.1842
  2. axis:    yes    4.254803    7.369535    0.000000    40     0.1842
  3. axis:    no     0.000000    0.000000   29.270571   140     0.2091

  Lengths:   8.509606   8.509606  29.270571
  Angles:   90.000000  90.000000  60.000000

Effective grid spacing dv^(1/3) = 0.2016

     iter     time        total  log10-change:
                         energy  eigst   dens
iter:   1 23:48:33  -190.734376  -4.09
iter:   2 23:49:43  -207.182277  -3.14  -2.28
iter:   3 23:50:55  -190.770774  -3.54  -1.65
iter:   4 23:52:07  -190.126114  -4.60  -2.36
iter:   5 23:53:18  -190.063762  -5.44  -2.88
iter:   6 23:54:29  -190.040257c -5.53  -3.16
iter:   7 23:55:40  -190.049250c -5.98  -3.29
iter:   8 23:56:50  -190.037642c -5.76  -3.36
iter:   9 23:58:00  -190.037951c -6.49  -3.79
iter:  10 23:59:09  -190.037807c -6.87  -3.79
iter:  11 00:00:19  -190.037362c -7.14  -3.91
iter:  12 00:01:27  -190.037117c -7.43c -4.02c

Converged after 12 iterations.

Dipole moment: (-4.092672, 5.090944, -0.241618) |e|*Ang

Energy contributions relative to reference atoms: (reference = -12371328.023897)

Kinetic:       -231.642614
Potential:     +104.228385
External:        +0.000000
XC:             -54.766689
Entropy (-ST):   -1.879735
Local:           -6.916332
--------------------------
Free energy:   -190.976985
Extrapolated:  -190.037117

Showing only first 2 kpts
 Kpt  Band  Eigenvalues  Occupancy
  0   364      0.76769    0.98022
  0   365      0.79311    0.85417
  0   366      0.82206    0.71635
  0   367      0.84351    0.62099

  1   364      0.63245    1.57595
  1   365      0.66419    1.46031
  1   366      0.70636    1.27923
  1   367      0.73265    1.15414


Fermi level: 0.76373

No gap

Forces in eV/Ang:
  0 Pd    0.72500    0.06181    0.09973
  1 Pt   -0.61983   -0.16716    0.56034
  2 Ag   -0.10013   -0.08277   -0.55382
  3 Pd   -0.05816   -0.33537    0.21523
  4 Ag   -0.00789    0.03400   -0.56366
  5 Ag    0.14915    0.17079   -0.48806
  6 Ag    0.04155   -0.00457   -0.47151
  7 Pd    0.23608    0.35756    0.07698
  8 Pd   -0.13521    0.12716    0.19567
  9 Pd   -0.00967    0.09713   -0.00845
 10 Pd   -0.00213   -0.03297   -0.11874
 11 Pt   -0.02913   -0.14612    0.13927
 12 Ir    0.68370    0.14510   -0.03566
 13 Pt   -0.64740   -0.19985    0.24787
 14 Ag    0.10805   -0.03331    0.10669
 15 Pt   -0.27838    0.04333    0.15806
 16 Pd   -0.07713    0.25405    0.15304
 17 Pd    0.14859    0.00535    0.12647
 18 Ag   -0.03890   -0.02990    0.00643
 19 Ag   -0.01149   -0.00996    0.00968
 20 Pt    0.01500    0.00287   -0.03592
 21 Ru   -0.00183   -0.00236    0.02018
 22 Pd    0.02230   -0.00175    0.03422
 23 Pt   -0.03182   -0.02618    0.01476
 24 Pt   -0.00102    0.02846    0.01233
 25 Pt   -0.07961   -0.06129    0.19218
 26 Ag    0.00885   -0.03045    0.00416
 27 Ag   -0.12239   -0.06683    0.29756
 28 Ag   -0.01882   -0.03022   -0.03163
 29 Pt    0.02880    0.02012    0.18208
 30 Ag   -0.04989   -0.01115   -0.03167
 31 Pd   -0.00970    0.00176   -0.04200
 32 Ru   -0.06624    0.15629   -0.15864
 33 Pd    0.03032    0.01573    0.18499
 34 Pt    0.04399   -0.07081   -0.03020
 35 Pd   -0.03866    0.00608   -0.00205
 36 Pt    0.27168   -0.19376   -0.10681
 37 Pt   -0.11211   -0.00603    0.08206
 38 Ag   -0.62282   -0.33561   -0.17411
 39 Pt   -0.06840   -0.04117    0.11702
 40 Ru    0.15634   -0.12699    0.06110
 41 Pt   -0.09693    0.30525   -0.06312
 42 Ir   -0.02495    0.21633    0.11443
 43 Pt   -0.00498   -0.11365    0.11078
 44 Ag   -0.00572   -0.04291    0.03489
 45 H     0.63818    0.15166   -0.28576

System changes: positions 

Initializing position-dependent things.

Density initialized from wave functions
                                            
                                            
                                            
                                            
                                            
                                            
                 Ir     Pt     Ag           
            Pt           HPt                
                  PRuAg  Pt    Pd           
       Pt    APt          Ru                
                    Pd                      
        Ag     Ag    PPt    Pt     Ag       
                                            
                Ru     Pd     Pt            
           Ag     Ag     Pt                 
                 Pt     Pd     Pd           
            Ir     Pt     Ag                
       Pd     Pd  Ag Pt  Pd     Pd          
             Pd     Ag     Ag               
        Pd     Pt     Ag                    
                                            
                                            
                                            
                                            
                                            

Positions:
   0 Pd     0.000000    1.637674   10.000000    ( 0.0000,  0.0000,  0.0000)
   1 Pt     2.836535    1.637674   10.000000    ( 0.0000,  0.0000,  0.0000)
   2 Ag     5.673071    1.637674   10.000000    ( 0.0000,  0.0000,  0.0000)
   3 Pd     1.418268    4.094186   10.000000    ( 0.0000,  0.0000,  0.0000)
   4 Ag     4.254803    4.094186   10.000000    ( 0.0000,  0.0000,  0.0000)
   5 Ag     7.091338    4.094186   10.000000    ( 0.0000,  0.0000,  0.0000)
   6 Ag     2.836535    6.550698   10.000000    ( 0.0000,  0.0000,  0.0000)
   7 Pd     5.673071    6.550698   10.000000    ( 0.0000,  0.0000,  0.0000)
   8 Pd     8.509606    6.550698   10.000000    ( 0.0000,  0.0000,  0.0000)
   9 Pd     0.000000    0.000000   12.317643    ( 0.0000,  0.0000,  0.0000)
  10 Pd     2.836535    0.000000   12.317643    ( 0.0000,  0.0000,  0.0000)
  11 Pt     5.673071    0.000000   12.317643    ( 0.0000,  0.0000,  0.0000)
  12 Ir     1.418268    2.456512   12.317643    ( 0.0000,  0.0000,  0.0000)
  13 Pt     4.254803    2.456512   12.317643    ( 0.0000,  0.0000,  0.0000)
  14 Ag     7.091338    2.456512   12.317643    ( 0.0000,  0.0000,  0.0000)
  15 Pt     2.836535    4.913023   12.317643    ( 0.0000,  0.0000,  0.0000)
  16 Pd     5.673071    4.913023   12.317643    ( 0.0000,  0.0000,  0.0000)
  17 Pd     8.509606    4.913023   12.317643    ( 0.0000,  0.0000,  0.0000)
  18 Ag     1.384925    0.764917   14.613784    ( 0.0000,  0.0000,  0.0000)
  19 Ag     4.217899    0.786541   14.655655    ( 0.0000,  0.0000,  0.0000)
  20 Pt     7.061328    0.793653   14.662840    ( 0.0000,  0.0000,  0.0000)
  21 Ru     2.754074    3.303368   14.383863    ( 0.0000,  0.0000,  0.0000)
  22 Pd     5.604004    3.222697   14.643087    ( 0.0000,  0.0000,  0.0000)
  23 Pt     8.522115    3.257735   14.661006    ( 0.0000,  0.0000,  0.0000)
  24 Pt     4.181061    5.652684   14.617765    ( 0.0000,  0.0000,  0.0000)
  25 Pt     7.045740    5.612467   14.663712    ( 0.0000,  0.0000,  0.0000)
  26 Ag     9.871224    5.742978   14.692986    ( 0.0000,  0.0000,  0.0000)
  27 Ag    -0.004607    1.602165   17.004755    ( 0.0000,  0.0000,  0.0000)
  28 Ag     2.789925    1.616916   16.877594    ( 0.0000,  0.0000,  0.0000)
  29 Pt     5.667844    1.645723   17.012209    ( 0.0000,  0.0000,  0.0000)
  30 Ag     1.330240    4.084516   17.010928    ( 0.0000,  0.0000,  0.0000)
  31 Pd     4.153759    4.035709   16.811959    ( 0.0000,  0.0000,  0.0000)
  32 Ru     6.938970    4.060414   16.892448    ( 0.0000,  0.0000,  0.0000)
  33 Pd     2.791747    6.557164   17.017190    ( 0.0000,  0.0000,  0.0000)
  34 Pt     5.639004    6.433369   16.943311    ( 0.0000,  0.0000,  0.0000)
  35 Pd     8.433682    6.504180   17.077426    ( 0.0000,  0.0000,  0.0000)
  36 Pt     0.018817   -0.020108   19.450410    ( 0.0000,  0.0000,  0.0000)
  37 Pt     2.804288    0.088576   19.249529    ( 0.0000,  0.0000,  0.0000)
  38 Ag     5.680826    0.004929   19.549298    ( 0.0000,  0.0000,  0.0000)
  39 Pt     1.571597    2.475670   19.391659    ( 0.0000,  0.0000,  0.0000)
  40 Ru     4.227612    2.598581   19.092933    ( 0.0000,  0.0000,  0.0000)
  41 Pt     7.100827    2.446569   19.339565    ( 0.0000,  0.0000,  0.0000)
  42 Ir     3.046767    4.819091   19.146647    ( 0.0000,  0.0000,  0.0000)
  43 Pt     5.718392    4.851477   19.161244    ( 0.0000,  0.0000,  0.0000)
  44 Ag     8.564422    4.894099   19.519078    ( 0.0000,  0.0000,  0.0000)
  45 H      7.275494    0.836440   20.405713    ( 0.0000,  0.0000,  0.0000)

Unit cell:
           periodic     x           y           z      points  spacing
  1. axis:    yes    8.509606    0.000000    0.000000    40     0.1842
  2. axis:    yes    4.254803    7.369535    0.000000    40     0.1842
  3. axis:    no     0.000000    0.000000   29.270571   140     0.2091

  Lengths:   8.509606   8.509606  29.270571
  Angles:   90.000000  90.000000  60.000000

Effective grid spacing dv^(1/3) = 0.2016

     iter     time        total  log10-change:
                         energy  eigst   dens
iter:   1 00:03:02  -190.689863  -3.75
iter:   2 00:04:12  -201.348259  -3.37  -2.37
iter:   3 00:05:22  -190.369606  -3.54  -1.74
iter:   4 00:06:31  -190.137654  -4.86  -2.66
iter:   5 00:07:40  -190.122791c -5.54  -3.11
iter:   6 00:08:49  -190.120749c -5.85  -3.30
iter:   7 00:09:58  -190.120921c -6.20  -3.33
iter:   8 00:11:07  -190.114577c -6.00  -3.42
iter:   9 00:12:17  -190.115277c -6.39  -3.30
iter:  10 00:13:26  -190.114169c -6.60  -3.75
iter:  11 00:14:35  -190.115632c -6.89  -3.84
iter:  12 00:15:46  -190.114148c -7.30  -3.93
iter:  13 00:16:56  -190.115177c -6.85  -3.99
iter:  14 00:18:06  -190.114446c -7.62c -4.16c

Converged after 14 iterations.

Dipole moment: (-4.258846, 6.148041, -0.238551) |e|*Ang

Energy contributions relative to reference atoms: (reference = -12371328.023897)

Kinetic:       -232.540792
Potential:     +104.885476
External:        +0.000000
XC:             -54.627010
Entropy (-ST):   -1.880120
Local:           -6.892061
--------------------------
Free energy:   -191.054506
Extrapolated:  -190.114446

Showing only first 2 kpts
 Kpt  Band  Eigenvalues  Occupancy
  0   364      0.76656    0.98130
  0   365      0.79094    0.86033
  0   366      0.82143    0.71508
  0   367      0.84483    0.61147

  1   364      0.63186    1.57490
  1   365      0.66360    1.45906
  1   366      0.70454    1.28340
  1   367      0.73136    1.15599


Fermi level: 0.76282

No gap

Forces in eV/Ang:
  0 Pd    0.70456    0.06270    0.08583
  1 Pt   -0.60544   -0.15875    0.54105
  2 Ag   -0.09568   -0.07961   -0.57014
  3 Pd   -0.05596   -0.32724    0.20173
  4 Ag   -0.00163    0.03470   -0.58061
  5 Ag    0.14151    0.16592   -0.50351
  6 Ag    0.04141   -0.00220   -0.48718
  7 Pd    0.22831    0.34262    0.05788
  8 Pd   -0.12631    0.12785    0.17838
  9 Pd   -0.01101    0.09484   -0.01588
 10 Pd   -0.00422   -0.04435   -0.10880
 11 Pt   -0.02752   -0.14550    0.13110
 12 Ir    0.67920    0.14932   -0.02738
 13 Pt   -0.63928   -0.19175    0.24392
 14 Ag    0.10630   -0.02724    0.10275
 15 Pt   -0.26996    0.04181    0.15417
 16 Pd   -0.06714    0.25267    0.16536
 17 Pd    0.13076    0.00558    0.14497
 18 Ag   -0.04692   -0.01853    0.01156
 19 Ag    0.01035   -0.01491    0.01213
 20 Pt    0.01248    0.01227    0.01545
 21 Ru   -0.00084    0.00326    0.00516
 22 Pd    0.01347   -0.03280    0.00990
 23 Pt   -0.04136   -0.04575    0.01706
 24 Pt   -0.02188    0.02264   -0.00057
 25 Pt   -0.03792   -0.03679    0.08156
 26 Ag    0.00441   -0.00652    0.01378
 27 Ag   -0.09250   -0.03646    0.24572
 28 Ag   -0.02773    0.00128    0.01320
 29 Pt    0.03260    0.01216    0.12351
 30 Ag   -0.02265   -0.01767    0.02475
 31 Pd   -0.03975   -0.00401    0.05135
 32 Ru   -0.03052    0.08852   -0.08954
 33 Pd    0.01777    0.01995    0.16095
 34 Pt    0.01751   -0.06152    0.00699
 35 Pd   -0.03392   -0.01220   -0.00026
 36 Pt    0.16592   -0.16850   -0.20073
 37 Pt   -0.11428   -0.03802    0.04605
 38 Ag   -0.30647   -0.18068   -0.14839
 39 Pt   -0.00569    0.02621    0.05334
 40 Ru    0.00928    0.02516    0.01211
 41 Pt   -0.07793    0.15151   -0.09112
 42 Ir    0.00690    0.01473    0.00985
 43 Pt   -0.01320   -0.06481    0.05088
 44 Ag   -0.02288   -0.07853    0.01484
 45 H     0.54119    0.14338   -0.31621

System changes: positions 

Initializing position-dependent things.

Density initialized from wave functions
                                             
                                             
                                             
                                             
                                             
                                             
                  Ir    Pt     Ag            
                                             
             Pt   PRu    PHt    Pd           
       Pt     Pt     Ag                      
             Ag     Pd     Ru                
        Ag     Ag     Pt           Ag        
                     Pt     Pt               
                Ru     Pd     Pt             
                                             
           Ag    PAg    PPt    Pd            
                                             
            Ir     Pt     Ag    Pd           
       Pd    PPd    APt    Ag                
                                             
        Pd     Pt     Ag                     
                                             
                                             
                                             
                                             
                                             

Positions:
   0 Pd     0.000000    1.637674   10.000000    ( 0.0000,  0.0000,  0.0000)
   1 Pt     2.836535    1.637674   10.000000    ( 0.0000,  0.0000,  0.0000)
   2 Ag     5.673071    1.637674   10.000000    ( 0.0000,  0.0000,  0.0000)
   3 Pd     1.418268    4.094186   10.000000    ( 0.0000,  0.0000,  0.0000)
   4 Ag     4.254803    4.094186   10.000000    ( 0.0000,  0.0000,  0.0000)
   5 Ag     7.091338    4.094186   10.000000    ( 0.0000,  0.0000,  0.0000)
   6 Ag     2.836535    6.550698   10.000000    ( 0.0000,  0.0000,  0.0000)
   7 Pd     5.673071    6.550698   10.000000    ( 0.0000,  0.0000,  0.0000)
   8 Pd     8.509606    6.550698   10.000000    ( 0.0000,  0.0000,  0.0000)
   9 Pd     0.000000    0.000000   12.317643    ( 0.0000,  0.0000,  0.0000)
  10 Pd     2.836535    0.000000   12.317643    ( 0.0000,  0.0000,  0.0000)
  11 Pt     5.673071    0.000000   12.317643    ( 0.0000,  0.0000,  0.0000)
  12 Ir     1.418268    2.456512   12.317643    ( 0.0000,  0.0000,  0.0000)
  13 Pt     4.254803    2.456512   12.317643    ( 0.0000,  0.0000,  0.0000)
  14 Ag     7.091338    2.456512   12.317643    ( 0.0000,  0.0000,  0.0000)
  15 Pt     2.836535    4.913023   12.317643    ( 0.0000,  0.0000,  0.0000)
  16 Pd     5.673071    4.913023   12.317643    ( 0.0000,  0.0000,  0.0000)
  17 Pd     8.509606    4.913023   12.317643    ( 0.0000,  0.0000,  0.0000)
  18 Ag     1.379744    0.763040   14.615156    ( 0.0000,  0.0000,  0.0000)
  19 Ag     4.217244    0.785197   14.657024    ( 0.0000,  0.0000,  0.0000)
  20 Pt     7.060841    0.792447   14.661080    ( 0.0000,  0.0000,  0.0000)
  21 Ru     2.754050    3.303389   14.384108    ( 0.0000,  0.0000,  0.0000)
  22 Pd     5.605515    3.221908   14.647905    ( 0.0000,  0.0000,  0.0000)
  23 Pt     8.518678    3.254298   14.663576    ( 0.0000,  0.0000,  0.0000)
  24 Pt     4.180613    5.654375   14.619945    ( 0.0000,  0.0000,  0.0000)
  25 Pt     7.038247    5.606808   14.681915    ( 0.0000,  0.0000,  0.0000)
  26 Ag     9.871585    5.738341   14.693423    ( 0.0000,  0.0000,  0.0000)
  27 Ag    -0.020245    1.594449   17.034699    ( 0.0000,  0.0000,  0.0000)
  28 Ag     2.787044    1.613181   16.876155    ( 0.0000,  0.0000,  0.0000)
  29 Pt     5.670836    1.648309   17.029395    ( 0.0000,  0.0000,  0.0000)
  30 Ag     1.323879    4.081746   17.009995    ( 0.0000,  0.0000,  0.0000)
  31 Pd     4.151437    4.035570   16.810596    ( 0.0000,  0.0000,  0.0000)
  32 Ru     6.931375    4.073878   16.880577    ( 0.0000,  0.0000,  0.0000)
  33 Pd     2.794176    6.558239   17.034433    ( 0.0000,  0.0000,  0.0000)
  34 Pt     5.640710    6.427059   16.945368    ( 0.0000,  0.0000,  0.0000)
  35 Pd     8.428462    6.504100   17.078420    ( 0.0000,  0.0000,  0.0000)
  36 Pt     0.047752   -0.044244   19.456926    ( 0.0000,  0.0000,  0.0000)
  37 Pt     2.792173    0.087090   19.258857    ( 0.0000,  0.0000,  0.0000)
  38 Ag     5.620369   -0.026309   19.541209    ( 0.0000,  0.0000,  0.0000)
  39 Pt     1.568676    2.474264   19.403133    ( 0.0000,  0.0000,  0.0000)
  40 Ru     4.239067    2.589491   19.099243    ( 0.0000,  0.0000,  0.0000)
  41 Pt     7.089403    2.475257   19.347373    ( 0.0000,  0.0000,  0.0000)
  42 Ir     3.046118    4.834480   19.158847    ( 0.0000,  0.0000,  0.0000)
  43 Pt     5.718445    4.838698   19.171436    ( 0.0000,  0.0000,  0.0000)
  44 Ag     8.562972    4.887668   19.523263    ( 0.0000,  0.0000,  0.0000)
  45 H      7.351832    0.855133   20.327589    ( 0.0000,  0.0000,  0.0000)

Unit cell:
           periodic     x           y           z      points  spacing
  1. axis:    yes    8.509606    0.000000    0.000000    40     0.1842
  2. axis:    yes    4.254803    7.369535    0.000000    40     0.1842
  3. axis:    no     0.000000    0.000000   29.270571   140     0.2091

  Lengths:   8.509606   8.509606  29.270571
  Angles:   90.000000  90.000000  60.000000

Effective grid spacing dv^(1/3) = 0.2016

     iter     time        total  log10-change:
                         energy  eigst   dens
iter:   1 00:19:39  -191.721147  -3.21
iter:   2 00:20:49  -216.574449  -2.93  -2.14
iter:   3 00:21:59  -191.034253  -3.16  -1.57
iter:   4 00:23:09  -190.276586  -4.30  -2.37
iter:   5 00:24:19  -190.221657  -5.01  -2.80
iter:   6 00:25:30  -190.221928c -5.36  -3.01
iter:   7 00:26:40  -190.210698c -5.72  -2.98
iter:   8 00:27:51  -190.203861c -5.35  -3.14
iter:   9 00:29:01  -190.198818c -6.01  -3.04
iter:  10 00:30:12  -190.199075c -6.19  -3.43
iter:  11 00:31:22  -190.194838c -6.41  -3.49
iter:  12 00:32:32  -190.195327c -6.39  -3.57
iter:  13 00:33:42  -190.196214c -6.44  -3.71
iter:  14 00:34:53  -190.195741c -6.96  -3.88
iter:  15 00:36:03  -190.195437c -7.15  -3.93
iter:  16 00:37:13  -190.197757c -7.24  -3.87
iter:  17 00:38:22  -190.195227c -7.31  -3.88
iter:  18 00:39:33  -190.195899c -7.70c -4.12c

Converged after 18 iterations.

Dipole moment: (-4.696317, 8.397822, -0.238940) |e|*Ang

Energy contributions relative to reference atoms: (reference = -12371328.023897)

Kinetic:       -231.996446
Potential:     +104.313887
External:        +0.000000
XC:             -54.686015
Entropy (-ST):   -1.877293
Local:           -6.888679
--------------------------
Free energy:   -191.134546
Extrapolated:  -190.195899

Showing only first 2 kpts
 Kpt  Band  Eigenvalues  Occupancy
  0   364      0.76653    0.98911
  0   365      0.79009    0.87202
  0   366      0.82311    0.71442
  0   367      0.84994    0.59640

  1   364      0.63537    1.56825
  1   365      0.66561    1.45717
  1   366      0.70382    1.29376
  1   367      0.73146    1.16300


Fermi level: 0.76436

No gap

Forces in eV/Ang:
  0 Pd    0.71120    0.06338    0.09151
  1 Pt   -0.61281   -0.15931    0.54862
  2 Ag   -0.09628   -0.08236   -0.56364
  3 Pd   -0.05829   -0.33148    0.21327
  4 Ag   -0.00541    0.03399   -0.57371
  5 Ag    0.14817    0.16827   -0.49876
  6 Ag    0.04091   -0.00153   -0.48037
  7 Pd    0.23243    0.34997    0.06688
  8 Pd   -0.12874    0.12792    0.18789
  9 Pd   -0.00873    0.09242   -0.01661
 10 Pd   -0.00940   -0.04870   -0.08370
 11 Pt   -0.03139   -0.15084    0.14069
 12 Ir    0.68433    0.15107   -0.01265
 13 Pt   -0.64172   -0.18898    0.26578
 14 Ag    0.10386   -0.02449    0.10949
 15 Pt   -0.26498    0.03575    0.16311
 16 Pd   -0.06282    0.25644    0.19740
 17 Pd    0.11888    0.00818    0.17071
 18 Ag   -0.03728    0.00544    0.04756
 19 Ag    0.01999   -0.01604    0.02795
 20 Pt    0.00934    0.01016    0.08789
 21 Ru   -0.00294   -0.01199    0.00889
 22 Pd   -0.03014   -0.07646   -0.02549
 23 Pt   -0.03293   -0.07228    0.04422
 24 Pt   -0.04984    0.00703   -0.00312
 25 Pt    0.02916    0.02690   -0.09110
 26 Ag   -0.00396    0.02629    0.04269
 27 Ag    0.01226    0.01923    0.12760
 28 Ag   -0.04478    0.02714    0.06672
 29 Pt   -0.02169   -0.01162    0.03777
 30 Ag    0.01196   -0.02722    0.07677
 31 Pd   -0.08750   -0.01977    0.12097
 32 Ru    0.03149   -0.02267    0.01358
 33 Pd   -0.03155    0.00127    0.10368
 34 Pt   -0.01495   -0.01073    0.03299
 35 Pd   -0.03563   -0.02364   -0.01099
 36 Pt    0.05719   -0.18386   -0.32389
 37 Pt   -0.07552   -0.05836    0.02027
 38 Ag    0.14930    0.06904   -0.07903
 39 Pt    0.07154    0.07360    0.02746
 40 Ru   -0.17058    0.15614   -0.00553
 41 Pt   -0.05872   -0.10178   -0.05953
 42 Ir    0.01312   -0.21218   -0.05479
 43 Pt   -0.02836    0.03247    0.01562
 44 Ag   -0.05247   -0.12186    0.02532
 45 H     0.25696    0.18320   -0.10903

System changes: positions 

Initializing position-dependent things.

Density initialized from wave functions
                                             
                                             
                                             
                                             
                                             
                                             
                  Ir    Pt     Ag            
                                             
             Pt   PRu    PHt    Pd           
       Pt     Pt     Ag                      
             Ag     Pd     Ru                
        Ag     Ag     Pt           Ag        
                     Pt     Pt               
                Ru     Pd     Pt             
                                             
           Ag    PAg    PPt    Pd            
                                             
            Ir     Pt     Ag    Pd           
       Pd    PPd    APt    Ag                
                                             
        Pd     Pt     Ag                     
                                             
                                             
                                             
                                             
                                             

Positions:
   0 Pd     0.000000    1.637674   10.000000    ( 0.0000,  0.0000,  0.0000)
   1 Pt     2.836535    1.637674   10.000000    ( 0.0000,  0.0000,  0.0000)
   2 Ag     5.673071    1.637674   10.000000    ( 0.0000,  0.0000,  0.0000)
   3 Pd     1.418268    4.094186   10.000000    ( 0.0000,  0.0000,  0.0000)
   4 Ag     4.254803    4.094186   10.000000    ( 0.0000,  0.0000,  0.0000)
   5 Ag     7.091338    4.094186   10.000000    ( 0.0000,  0.0000,  0.0000)
   6 Ag     2.836535    6.550698   10.000000    ( 0.0000,  0.0000,  0.0000)
   7 Pd     5.673071    6.550698   10.000000    ( 0.0000,  0.0000,  0.0000)
   8 Pd     8.509606    6.550698   10.000000    ( 0.0000,  0.0000,  0.0000)
   9 Pd     0.000000    0.000000   12.317643    ( 0.0000,  0.0000,  0.0000)
  10 Pd     2.836535    0.000000   12.317643    ( 0.0000,  0.0000,  0.0000)
  11 Pt     5.673071    0.000000   12.317643    ( 0.0000,  0.0000,  0.0000)
  12 Ir     1.418268    2.456512   12.317643    ( 0.0000,  0.0000,  0.0000)
  13 Pt     4.254803    2.456512   12.317643    ( 0.0000,  0.0000,  0.0000)
  14 Ag     7.091338    2.456512   12.317643    ( 0.0000,  0.0000,  0.0000)
  15 Pt     2.836535    4.913023   12.317643    ( 0.0000,  0.0000,  0.0000)
  16 Pd     5.673071    4.913023   12.317643    ( 0.0000,  0.0000,  0.0000)
  17 Pd     8.509606    4.913023   12.317643    ( 0.0000,  0.0000,  0.0000)
  18 Ag     1.378070    0.762741   14.616232    ( 0.0000,  0.0000,  0.0000)
  19 Ag     4.217400    0.784692   14.657768    ( 0.0000,  0.0000,  0.0000)
  20 Pt     7.060877    0.792317   14.662060    ( 0.0000,  0.0000,  0.0000)
  21 Ru     2.753967    3.303198   14.384300    ( 0.0000,  0.0000,  0.0000)
  22 Pd     5.605325    3.220562   14.648600    ( 0.0000,  0.0000,  0.0000)
  23 Pt     8.517492    3.252448   14.664873    ( 0.0000,  0.0000,  0.0000)
  24 Pt     4.179717    5.654827   14.620415    ( 0.0000,  0.0000,  0.0000)
  25 Pt     7.037067    5.606007   14.684541    ( 0.0000,  0.0000,  0.0000)
  26 Ag     9.871639    5.737727   14.694192    ( 0.0000,  0.0000,  0.0000)
  27 Ag    -0.023373    1.593102   17.043098    ( 0.0000,  0.0000,  0.0000)
  28 Ag     2.785767    1.612761   16.876898    ( 0.0000,  0.0000,  0.0000)
  29 Pt     5.671074    1.648677   17.033734    ( 0.0000,  0.0000,  0.0000)
  30 Ag     1.322686    4.080731   17.010917    ( 0.0000,  0.0000,  0.0000)
  31 Pd     4.149621    4.035221   16.812094    ( 0.0000,  0.0000,  0.0000)
  32 Ru     6.930217    4.076462   16.878137    ( 0.0000,  0.0000,  0.0000)
  33 Pd     2.794179    6.558493   17.039752    ( 0.0000,  0.0000,  0.0000)
  34 Pt     5.640922    6.425530   16.946242    ( 0.0000,  0.0000,  0.0000)
  35 Pd     8.426723    6.503763   17.078431    ( 0.0000,  0.0000,  0.0000)
  36 Pt     0.055212   -0.052559   19.453197    ( 0.0000,  0.0000,  0.0000)
  37 Pt     2.788432    0.085947   19.261321    ( 0.0000,  0.0000,  0.0000)
  38 Ag     5.609473   -0.032017   19.538206    ( 0.0000,  0.0000,  0.0000)
  39 Pt     1.569116    2.474981   19.406311    ( 0.0000,  0.0000,  0.0000)
  40 Ru     4.239020    2.589808   19.100714    ( 0.0000,  0.0000,  0.0000)
  41 Pt     7.085962    2.480056   19.348172    ( 0.0000,  0.0000,  0.0000)
  42 Ir     3.046138    4.834668   19.160936    ( 0.0000,  0.0000,  0.0000)
  43 Pt     5.717962    4.836454   19.174065    ( 0.0000,  0.0000,  0.0000)
  44 Ag     8.561852    4.884394   19.524682    ( 0.0000,  0.0000,  0.0000)
  45 H      7.371908    0.862093   20.310070    ( 0.0000,  0.0000,  0.0000)

Unit cell:
           periodic     x           y           z      points  spacing
  1. axis:    yes    8.509606    0.000000    0.000000    40     0.1842
  2. axis:    yes    4.254803    7.369535    0.000000    40     0.1842
  3. axis:    no     0.000000    0.000000   29.270571   140     0.2091

  Lengths:   8.509606   8.509606  29.270571
  Angles:   90.000000  90.000000  60.000000

Effective grid spacing dv^(1/3) = 0.2016

     iter     time        total  log10-change:
                         energy  eigst   dens
iter:   1 00:41:06  -190.232558  -4.39
iter:   2 00:42:16  -190.349058  -4.91  -3.05
iter:   3 00:43:27  -190.294102c -5.04  -2.61
iter:   4 00:44:37  -190.206266c -5.68  -2.82
iter:   5 00:45:47  -190.210900c -6.60  -3.56
iter:   6 00:46:57  -190.207495c -6.85  -3.55
iter:   7 00:48:06  -190.207552c -7.12  -3.72
iter:   8 00:49:16  -190.207489c -7.18  -3.91
iter:   9 00:50:25  -190.207333c -7.27  -3.93
iter:  10 00:51:35  -190.206302c -7.81c -4.19c

Converged after 10 iterations.

Dipole moment: (-4.937397, 9.003531, -0.235736) |e|*Ang

Energy contributions relative to reference atoms: (reference = -12371328.023897)

Kinetic:       -232.744496
Potential:     +105.048409
External:        +0.000000
XC:             -54.686324
Entropy (-ST):   -1.877497
Local:           -6.885143
--------------------------
Free energy:   -191.145050
Extrapolated:  -190.206302

Showing only first 2 kpts
 Kpt  Band  Eigenvalues  Occupancy
  0   364      0.76605    0.99281
  0   365      0.78969    0.87528
  0   366      0.82390    0.71195
  0   367      0.84987    0.59779

  1   364      0.63599    1.56702
  1   365      0.66659    1.45431
  1   366      0.70388    1.29469
  1   367      0.73076    1.16766


Fermi level: 0.76462

No gap

Forces in eV/Ang:
  0 Pd    0.71233    0.06262    0.08791
  1 Pt   -0.61410   -0.16154    0.54315
  2 Ag   -0.09709   -0.08057   -0.56530
  3 Pd   -0.05812   -0.33133    0.20767
  4 Ag   -0.00416    0.03444   -0.57469
  5 Ag    0.14646    0.16865   -0.49659
  6 Ag    0.04186   -0.00297   -0.48223
  7 Pd    0.23295    0.35034    0.06821
  8 Pd   -0.13013    0.12769    0.18762
  9 Pd   -0.00596    0.09084   -0.01069
 10 Pd   -0.00830   -0.05131   -0.07193
 11 Pt   -0.03752   -0.15412    0.15498
 12 Ir    0.68050    0.14803   -0.00549
 13 Pt   -0.63702   -0.19636    0.27208
 14 Ag    0.10255   -0.02371    0.11329
 15 Pt   -0.26903    0.04178    0.16615
 16 Pd   -0.05880    0.26007    0.19877
 17 Pd    0.11834    0.01247    0.17674
 18 Ag   -0.01867    0.01038    0.04966
 19 Ag    0.01073   -0.01569    0.02532
 20 Pt   -0.00005    0.00448    0.09312
 21 Ru   -0.01202   -0.02284    0.01725
 22 Pd   -0.03485   -0.06776   -0.03303
 23 Pt   -0.01703   -0.06073    0.04712
 24 Pt   -0.04464    0.00472   -0.00629
 25 Pt    0.04451    0.04759   -0.12733
 26 Ag   -0.00963    0.02967    0.04050
 27 Ag    0.04856    0.03455    0.06087
 28 Ag   -0.04830    0.03203    0.05910
 29 Pt   -0.03786   -0.02681    0.01411
 30 Ag    0.02204   -0.02927    0.06996
 31 Pd   -0.08052   -0.02639    0.07748
 32 Ru    0.03702   -0.06046    0.02008
 33 Pd   -0.05738   -0.00428    0.05433
 34 Pt   -0.03017    0.01773    0.01057
 35 Pd   -0.00723   -0.00727   -0.01938
 36 Pt   -0.05690   -0.12080   -0.29608
 37 Pt   -0.01053   -0.02257    0.00448
 38 Ag    0.21969    0.11420   -0.07577
 39 Pt    0.08105    0.05220    0.00320
 40 Ru   -0.14848    0.10742   -0.00706
 41 Pt   -0.06339   -0.19938   -0.04338
 42 Ir   -0.00691   -0.17712   -0.05175
 43 Pt   -0.04013    0.04343   -0.00072
 44 Ag   -0.03332   -0.09633    0.02890
 45 H     0.22503    0.19576   -0.09381

System changes: positions 

Initializing position-dependent things.

Density initialized from wave functions
                                             
                                             
                                             
                                             
                                             
                                             
                  Ir    Pt     Ag            
                                             
             Pt   PRu    PHt    Pd           
       Pt     Pt     Ag                      
             Ag     Pd     Ru                
        Ag     Ag     Pt           Ag        
                     Pt     Pt               
                Ru     Pd     Pt             
                                             
           Ag    PAg    PPt    Pd            
                                             
            Ir     Pt     Ag    Pd           
       Pd    PPd    APt    Ag                
                                             
        Pd     Pt     Ag                     
                                             
                                             
                                             
                                             
                                             

Positions:
   0 Pd     0.000000    1.637674   10.000000    ( 0.0000,  0.0000,  0.0000)
   1 Pt     2.836535    1.637674   10.000000    ( 0.0000,  0.0000,  0.0000)
   2 Ag     5.673071    1.637674   10.000000    ( 0.0000,  0.0000,  0.0000)
   3 Pd     1.418268    4.094186   10.000000    ( 0.0000,  0.0000,  0.0000)
   4 Ag     4.254803    4.094186   10.000000    ( 0.0000,  0.0000,  0.0000)
   5 Ag     7.091338    4.094186   10.000000    ( 0.0000,  0.0000,  0.0000)
   6 Ag     2.836535    6.550698   10.000000    ( 0.0000,  0.0000,  0.0000)
   7 Pd     5.673071    6.550698   10.000000    ( 0.0000,  0.0000,  0.0000)
   8 Pd     8.509606    6.550698   10.000000    ( 0.0000,  0.0000,  0.0000)
   9 Pd     0.000000    0.000000   12.317643    ( 0.0000,  0.0000,  0.0000)
  10 Pd     2.836535    0.000000   12.317643    ( 0.0000,  0.0000,  0.0000)
  11 Pt     5.673071    0.000000   12.317643    ( 0.0000,  0.0000,  0.0000)
  12 Ir     1.418268    2.456512   12.317643    ( 0.0000,  0.0000,  0.0000)
  13 Pt     4.254803    2.456512   12.317643    ( 0.0000,  0.0000,  0.0000)
[...]
  21 Ru     2.731614    3.290194   14.386921    ( 0.0000,  0.0000,  0.0000)
  22 Pd     5.567290    3.201698   14.640612    ( 0.0000,  0.0000,  0.0000)
  23 Pt     8.499384    3.229020   14.677939    ( 0.0000,  0.0000,  0.0000)
  24 Pt     4.146287    5.636006   14.620211    ( 0.0000,  0.0000,  0.0000)
  25 Pt     7.022464    5.593957   14.653392    ( 0.0000,  0.0000,  0.0000)
  26 Ag     9.842017    5.721701   14.696688    ( 0.0000,  0.0000,  0.0000)
  27 Ag    -0.053305    1.570015   17.034917    ( 0.0000,  0.0000,  0.0000)
  28 Ag     2.744356    1.578356   16.903154    ( 0.0000,  0.0000,  0.0000)
  29 Pt     5.630864    1.607326   17.012285    ( 0.0000,  0.0000,  0.0000)
  30 Ag     1.287775    4.046239   17.048522    ( 0.0000,  0.0000,  0.0000)
  31 Pd     4.108075    3.994250   16.822849    ( 0.0000,  0.0000,  0.0000)
  32 Ru     6.908390    4.046336   16.844999    ( 0.0000,  0.0000,  0.0000)
  33 Pd     2.757214    6.517186   17.023012    ( 0.0000,  0.0000,  0.0000)
  34 Pt     5.610691    6.394235   16.902993    ( 0.0000,  0.0000,  0.0000)
  35 Pd     8.386223    6.458938   17.065904    ( 0.0000,  0.0000,  0.0000)
  36 Pt     0.063046   -0.131056   19.338924    ( 0.0000,  0.0000,  0.0000)
  37 Pt     2.800245    0.019267   19.269186    ( 0.0000,  0.0000,  0.0000)
  38 Ag     5.686859   -0.079488   19.485323    ( 0.0000,  0.0000,  0.0000)
  39 Pt     1.584222    2.428678   19.430973    ( 0.0000,  0.0000,  0.0000)
  40 Ru     4.220359    2.538491   19.108668    ( 0.0000,  0.0000,  0.0000)
  41 Pt     7.028990    2.444172   19.295172    ( 0.0000,  0.0000,  0.0000)
  42 Ir     3.017562    4.754802   19.166409    ( 0.0000,  0.0000,  0.0000)
  43 Pt     5.683642    4.819205   19.133564    ( 0.0000,  0.0000,  0.0000)
  44 Ag     8.536577    4.839157   19.562315    ( 0.0000,  0.0000,  0.0000)
  45 H      7.886496    1.198571   20.244976    ( 0.0000,  0.0000,  0.0000)

Unit cell:
           periodic     x           y           z      points  spacing
  1. axis:    yes    8.509606    0.000000    0.000000    40     0.1842
  2. axis:    yes    4.254803    7.369535    0.000000    40     0.1842
  3. axis:    no     0.000000    0.000000   29.270571   140     0.2091

  Lengths:   8.509606   8.509606  29.270571
  Angles:   90.000000  90.000000  60.000000

Effective grid spacing dv^(1/3) = 0.2016

     iter     time        total  log10-change:
                         energy  eigst   dens
iter:   1 05:49:53  -193.289539  -3.43
iter:   2 05:51:04  -238.090335  -2.63  -2.00
iter:   3 05:52:15  -192.498667  -2.89  -1.46
iter:   4 05:53:26  -190.612268  -4.05  -2.13
iter:   5 05:54:37  -190.387378  -4.71  -2.54
iter:   6 05:55:47  -190.347873c -5.33  -2.88
iter:   7 05:56:51  -190.337974c -5.63  -3.17
iter:   8 05:57:49  -190.340248c -5.66  -3.30
iter:   9 05:58:48  -190.330015c -6.04  -3.00
iter:  10 05:59:47  -190.328444c -6.13  -3.47
iter:  11 06:00:46  -190.327666c -6.59  -3.62
iter:  12 06:01:44  -190.327731c -6.43  -3.59
iter:  13 06:02:43  -190.326982c -6.83  -3.77
iter:  14 06:03:42  -190.329172c -6.61  -3.90
iter:  15 06:04:40  -190.326002c -7.17  -3.96
iter:  16 06:05:39  -190.327713c -7.36  -3.80
iter:  17 06:06:38  -190.327665c -7.78c -4.11c

Converged after 17 iterations.

Dipole moment: (-7.115141, 14.797489, -0.226538) |e|*Ang

Energy contributions relative to reference atoms: (reference = -12371328.023897)

Kinetic:       -224.564306
Potential:      +97.975173
External:        +0.000000
XC:             -55.896557
Entropy (-ST):   -1.863336
Local:           -6.910306
--------------------------
Free energy:   -191.259333
Extrapolated:  -190.327665

Showing only first 2 kpts
 Kpt  Band  Eigenvalues  Occupancy
  0   364      0.76702    1.01598
  0   365      0.79343    0.88441
  0   366      0.82910    0.71378
  0   367      0.85863    0.58463

  1   364      0.64457    1.55684
  1   365      0.66594    1.47875
  1   366      0.70934    1.29532
  1   367      0.73802    1.15960


Fermi level: 0.77021

No gap

Forces in eV/Ang:
  0 Pd    0.69736    0.06396    0.08656
  1 Pt   -0.59366   -0.15355    0.54120
  2 Ag   -0.09577   -0.07890   -0.56947
  3 Pd   -0.05128   -0.32725    0.21238
  4 Ag   -0.00607    0.03278   -0.57923
  5 Ag    0.14414    0.16343   -0.50190
  6 Ag    0.04233   -0.00287   -0.48583
  7 Pd    0.22889    0.34177    0.06129
  8 Pd   -0.11886    0.13670    0.18322
  9 Pd   -0.03537    0.06857   -0.02230
 10 Pd   -0.03567   -0.04635   -0.08828
 11 Pt   -0.06182   -0.16231    0.17385
 12 Ir    0.64240    0.12056   -0.01076
 13 Pt   -0.69360   -0.21448    0.25353
 14 Ag    0.09312   -0.02494    0.12275
 15 Pt   -0.29958   -0.00267    0.18749
 16 Pd   -0.11079    0.24089    0.14848
 17 Pd    0.12029   -0.02515    0.15123
 18 Ag    0.00169   -0.01629    0.01909
 19 Ag    0.00206   -0.00335    0.00508
 20 Pt    0.01098   -0.01740    0.04426
 21 Ru   -0.01121   -0.00229   -0.03147
 22 Pd    0.03749    0.00762    0.02354
 23 Pt   -0.02200    0.01879    0.01533
 24 Pt    0.01818   -0.00159    0.02204
 25 Pt   -0.02843   -0.02903    0.00339
 26 Ag    0.02306   -0.01952    0.02947
 27 Ag    0.02084   -0.00574   -0.00241
 28 Ag    0.00603   -0.02422   -0.04032
 29 Pt   -0.02855   -0.01499    0.01404
 30 Ag   -0.02211    0.00232   -0.06561
 31 Pd    0.03697   -0.00312   -0.06704
 32 Ru   -0.03220   -0.00382   -0.00793
 33 Pd   -0.02135   -0.01307    0.04012
 34 Pt    0.00031   -0.05873   -0.02003
 35 Pd    0.03009    0.00137    0.01752
 36 Pt    0.09398    0.01393   -0.02397
 37 Pt    0.05947    0.00620    0.01064
 38 Ag   -0.13808   -0.01600   -0.05218
 39 Pt   -0.08109   -0.02692    0.07283
 40 Ru    0.04703   -0.01928   -0.01020
 41 Pt    0.07522    0.04448    0.00528
 42 Ir   -0.04629    0.07304    0.01567
 43 Pt    0.05504   -0.04274    0.06615
 44 Ag    0.01272   -0.02165   -0.01681
 45 H     0.00732    0.00418    0.05237

System changes: positions 

Initializing position-dependent things.

Density initialized from wave functions
                                             
                                             
                                             
                                             
                                             
                                             
                  Ir    Pt     Ag            
                           H                 
             Pt   PRu    PPt    Pd           
       Pt     Pt     Ag                      
             Ag     Pd     Ru                
        Ag     Ag     Pt           Ag        
                     Pt     Pt               
                Ru     Pd     Pt             
                                             
           Ag     Ag    PPt    Pd            
                                             
            Ir     Pt     Ag     Pd          
       Pd     Pd    APt    Ag                
                                             
        Pd     Pt     Ag                     
                                             
                                             
                                             
                                             
                                             

Positions:
   0 Pd     0.000000    1.637674   10.000000    ( 0.0000,  0.0000,  0.0000)
   1 Pt     2.836535    1.637674   10.000000    ( 0.0000,  0.0000,  0.0000)
   2 Ag     5.673071    1.637674   10.000000    ( 0.0000,  0.0000,  0.0000)
   3 Pd     1.418268    4.094186   10.000000    ( 0.0000,  0.0000,  0.0000)
   4 Ag     4.254803    4.094186   10.000000    ( 0.0000,  0.0000,  0.0000)
   5 Ag     7.091338    4.094186   10.000000    ( 0.0000,  0.0000,  0.0000)
   6 Ag     2.836535    6.550698   10.000000    ( 0.0000,  0.0000,  0.0000)
   7 Pd     5.673071    6.550698   10.000000    ( 0.0000,  0.0000,  0.0000)
   8 Pd     8.509606    6.550698   10.000000    ( 0.0000,  0.0000,  0.0000)
   9 Pd     0.000000    0.000000   12.317643    ( 0.0000,  0.0000,  0.0000)
  10 Pd     2.836535    0.000000   12.317643    ( 0.0000,  0.0000,  0.0000)
  11 Pt     5.673071    0.000000   12.317643    ( 0.0000,  0.0000,  0.0000)
  12 Ir     1.418268    2.456512   12.317643    ( 0.0000,  0.0000,  0.0000)
  13 Pt     4.254803    2.456512   12.317643    ( 0.0000,  0.0000,  0.0000)
  14 Ag     7.091338    2.456512   12.317643    ( 0.0000,  0.0000,  0.0000)
  15 Pt     2.836535    4.913023   12.317643    ( 0.0000,  0.0000,  0.0000)
  16 Pd     5.673071    4.913023   12.317643    ( 0.0000,  0.0000,  0.0000)
  17 Pd     8.509606    4.913023   12.317643    ( 0.0000,  0.0000,  0.0000)
  18 Ag     1.361163    0.756501   14.621040    ( 0.0000,  0.0000,  0.0000)
  19 Ag     4.198188    0.773838   14.663010    ( 0.0000,  0.0000,  0.0000)
  20 Pt     7.044676    0.782862   14.667388    ( 0.0000,  0.0000,  0.0000)
  21 Ru     2.738409    3.294124   14.384520    ( 0.0000,  0.0000,  0.0000)
  22 Pd     5.581589    3.206327   14.646698    ( 0.0000,  0.0000,  0.0000)
  23 Pt     8.503270    3.235760   14.677618    ( 0.0000,  0.0000,  0.0000)
  24 Pt     4.157812    5.642890   14.623873    ( 0.0000,  0.0000,  0.0000)
  25 Pt     7.024706    5.596785   14.663829    ( 0.0000,  0.0000,  0.0000)
  26 Ag     9.854919    5.726224   14.701488    ( 0.0000,  0.0000,  0.0000)
  27 Ag    -0.039561    1.579160   17.045062    ( 0.0000,  0.0000,  0.0000)
  28 Ag     2.756526    1.588129   16.892263    ( 0.0000,  0.0000,  0.0000)
  29 Pt     5.640789    1.621999   17.024226    ( 0.0000,  0.0000,  0.0000)
  30 Ag     1.296278    4.056804   17.031291    ( 0.0000,  0.0000,  0.0000)
  31 Pd     4.124506    4.006411   16.813251    ( 0.0000,  0.0000,  0.0000)
  32 Ru     6.914495    4.057307   16.855907    ( 0.0000,  0.0000,  0.0000)
  33 Pd     2.767288    6.529096   17.037244    ( 0.0000,  0.0000,  0.0000)
  34 Pt     5.623460    6.400314   16.916459    ( 0.0000,  0.0000,  0.0000)
  35 Pd     8.399769    6.473559   17.069357    ( 0.0000,  0.0000,  0.0000)
  36 Pt     0.065399   -0.114402   19.360329    ( 0.0000,  0.0000,  0.0000)
  37 Pt     2.795327    0.041450   19.265869    ( 0.0000,  0.0000,  0.0000)
  38 Ag     5.658165   -0.058211   19.496328    ( 0.0000,  0.0000,  0.0000)
  39 Pt     1.576914    2.446354   19.425962    ( 0.0000,  0.0000,  0.0000)
  40 Ru     4.227030    2.558669   19.103045    ( 0.0000,  0.0000,  0.0000)
  41 Pt     7.046319    2.453509   19.308306    ( 0.0000,  0.0000,  0.0000)
  42 Ir     3.024079    4.787421   19.163772    ( 0.0000,  0.0000,  0.0000)
  43 Pt     5.701600    4.823002   19.155989    ( 0.0000,  0.0000,  0.0000)
  44 Ag     8.541688    4.844068   19.547888    ( 0.0000,  0.0000,  0.0000)
  45 H      7.721001    1.090515   20.275558    ( 0.0000,  0.0000,  0.0000)

Unit cell:
           periodic     x           y           z      points  spacing
  1. axis:    yes    8.509606    0.000000    0.000000    40     0.1842
  2. axis:    yes    4.254803    7.369535    0.000000    40     0.1842
  3. axis:    no     0.000000    0.000000   29.270571   140     0.2091

  Lengths:   8.509606   8.509606  29.270571
  Angles:   90.000000  90.000000  60.000000

Effective grid spacing dv^(1/3) = 0.2016

     iter     time        total  log10-change:
                         energy  eigst   dens
iter:   1 06:07:56  -191.233612  -3.03
iter:   2 06:08:55  -208.039623  -3.11  -2.23
iter:   3 06:09:53  -190.872522  -3.36  -1.66
iter:   4 06:10:52  -190.414398  -4.53  -2.42
iter:   5 06:11:51  -190.345973  -5.11  -2.74
iter:   6 06:12:50  -190.348266c -5.45  -2.98
iter:   7 06:13:49  -190.338553c -5.59  -3.01
iter:   8 06:14:48  -190.331085c -5.41  -3.07
iter:   9 06:15:47  -190.324612c -5.77  -2.99
iter:  10 06:16:46  -190.325972c -6.08  -3.41
iter:  11 06:17:45  -190.318782c -6.13  -3.42
iter:  12 06:18:44  -190.321603c -6.47  -3.50
iter:  13 06:19:42  -190.321006c -6.65  -3.77
iter:  14 06:20:41  -190.321084c -6.64  -3.80
iter:  15 06:21:42  -190.320795c -7.18  -3.95
iter:  16 06:22:41  -190.322632c -7.23  -4.02c
iter:  17 06:23:40  -190.319818c -7.34  -3.86
iter:  18 06:24:39  -190.321603c -7.41c -3.97
iter:  19 06:25:38  -190.320675c -7.78c -4.13c

Converged after 19 iterations.

Dipole moment: (-6.488801, 12.981602, -0.229262) |e|*Ang

Energy contributions relative to reference atoms: (reference = -12371328.023897)

Kinetic:       -227.172728
Potential:     +100.267556
External:        +0.000000
XC:             -55.568468
Entropy (-ST):   -1.868276
Local:           -6.912897
--------------------------
Free energy:   -191.254813
Extrapolated:  -190.320675

Showing only first 2 kpts
 Kpt  Band  Eigenvalues  Occupancy
  0   364      0.76764    1.00923
  0   365      0.79237    0.88605
  0   366      0.82906    0.71062
  0   367      0.85913    0.57957

  1   364      0.64426    1.55539
  1   365      0.66883    1.46467
  1   366      0.70900    1.29354
  1   367      0.73719    1.16011


Fermi level: 0.76948

No gap

Forces in eV/Ang:
  0 Pd    0.71326    0.06285    0.09147
  1 Pt   -0.61090   -0.16721    0.54671
  2 Ag   -0.09775   -0.08087   -0.56164
  3 Pd   -0.05756   -0.33183    0.21716
  4 Ag   -0.00561    0.03448   -0.57012
  5 Ag    0.14824    0.16777   -0.49475
  6 Ag    0.04182   -0.00390   -0.47625
  7 Pd    0.23578    0.35414    0.06952
  8 Pd   -0.12775    0.13465    0.19031
  9 Pd   -0.02497    0.07784   -0.00767
 10 Pd   -0.03070   -0.04263   -0.08229
 11 Pt   -0.04739   -0.15967    0.17756
 12 Ir    0.65052    0.12667   -0.01376
 13 Pt   -0.66749   -0.20980    0.26482
 14 Ag    0.09703   -0.03013    0.13129
 15 Pt   -0.28574    0.02193    0.17869
 16 Pd   -0.10063    0.24514    0.16538
 17 Pd    0.12689   -0.01549    0.16178
 18 Ag    0.00191   -0.00001    0.00245
 19 Ag    0.00414   -0.01289    0.00028
 20 Pt   -0.00361   -0.00994    0.04328
 21 Ru   -0.00491   -0.01622    0.01283
 22 Pd    0.00605   -0.02987   -0.03097
 23 Pt   -0.01345   -0.01020    0.01080
 24 Pt   -0.01055   -0.00116   -0.01558
 25 Pt    0.03259    0.01143   -0.03565
 26 Ag   -0.00950    0.00266    0.01013
 27 Ag    0.00702    0.00074   -0.02634
 28 Ag   -0.00525    0.01809    0.02872
 29 Pt   -0.00210   -0.01421   -0.00338
 30 Ag    0.03553   -0.01236    0.01942
 31 Pd   -0.05233   -0.01138    0.05826
 32 Ru    0.00608   -0.02714    0.02281
 33 Pd   -0.02241    0.00426    0.02564
 34 Pt   -0.00556   -0.01762    0.03632
 35 Pd   -0.01036   -0.01939    0.00655
 36 Pt   -0.02288   -0.03535   -0.01106
 37 Pt    0.03584    0.00075   -0.02038
 38 Ag    0.02988    0.01549   -0.01748
 39 Pt    0.07428    0.00675   -0.03628
 40 Ru   -0.04191    0.03559    0.01190
 41 Pt   -0.01613   -0.06430    0.06379
 42 Ir    0.03179   -0.04916   -0.02911
 43 Pt   -0.03036   -0.00570   -0.01363
 44 Ag    0.01077    0.02949   -0.01572
 45 H     0.01401    0.03520    0.02758

Timing:                                      incl.     excl.
-------------------------------------------------------------------
Density initialized from wave functions:    93.443    93.442   0.3% |
 Symmetrize density:                         0.001     0.001   0.0% |
Forces:                                    414.681   414.681   1.4% ||
Hamiltonian:                                46.791     0.277   0.0% |
 Atomic:                                     2.211     0.265   0.0% |
  XC Correction:                             1.946     1.946   0.0% |
 Calculate atomic Hamiltonians:             28.914    28.914   0.1% |
 Communicate:                                7.011     7.011   0.0% |
 Initialize Hamiltonian:                     0.000     0.000   0.0% |
 Poisson:                                    0.161     0.161   0.0% |
 XC 3D grid:                                 8.216     8.216   0.0% |
LCAO initialization:                       138.419     2.418   0.0% |
 LCAO eigensolver:                          15.573     0.001   0.0% |
  Blacs Orbital Layouts:                     0.326     0.000   0.0% |
   General diagonalize:                      0.322     0.322   0.0% |
   Redistribute coefs:                       0.002     0.002   0.0% |
   Send coefs to domains:                    0.001     0.001   0.0% |
  Calculate projections:                     0.003     0.003   0.0% |
  Distribute overlap matrix:                14.453     0.000   0.0% |
   Scalapack redistribute:                   0.013     0.013   0.0% |
   blocked summation:                       14.440    14.440   0.0% |
  Potential matrix:                          0.750     0.750   0.0% |
  SparseAtomicCorrection:                    0.004     0.004   0.0% |
  Sum over cells:                            0.036     0.036   0.0% |
 LCAO to grid:                             117.114   117.114   0.4% |
 Set positions (LCAO WFS):                   3.314     0.005   0.0% |
  Basic WFS set positions:                   0.002     0.002   0.0% |
  Basis functions set positions:             0.000     0.000   0.0% |
  P tci:                                     0.000     0.000   0.0% |
  ST tci:                                    0.284     0.284   0.0% |
  Scalapack redistribute:                    0.008     0.008   0.0% |
  blocked summation:                         2.910     2.910   0.0% |
  mktci:                                     0.104     0.104   0.0% |
PWDescriptor:                                0.647     0.647   0.0% |
Redistribute:                                0.027     0.027   0.0% |
SCF-cycle:                               29836.188  1768.754   5.8% |-|
 Davidson:                               25878.176  5849.710  19.1% |-------|
  Apply H:                                2669.389  2617.420   8.5% |--|
   HMM T:                                   51.968    51.968   0.2% |
  Subspace diag:                          3102.438     0.078   0.0% |
   calc_h_matrix:                         2092.512   575.999   1.9% ||
    Apply H:                              1516.513  1485.013   4.8% |-|
     HMM T:                                 31.500    31.500   0.1% |
   diagonalize:                            100.439   100.439   0.3% |
   rotate_psi:                             909.409   909.409   3.0% ||
  calc. matrices:                         9978.140  5966.752  19.5% |-------|
   Apply H:                               4011.388  3931.899  12.8% |----|
    HMM T:                                  79.489    79.489   0.3% |
  diagonalize:                            1451.045  1451.045   4.7% |-|
  rotate_psi:                             2827.454  2827.454   9.2% |---|
 Density:                                 1357.065     0.018   0.0% |
  Atomic density matrices:                   8.167     8.167   0.0% |
  Mix:                                     474.844   474.844   1.5% ||
  Multipole moments:                         0.669     0.669   0.0% |
  Pseudo density:                          873.367   873.349   2.8% ||
   Symmetrize density:                       0.018     0.018   0.0% |
 Hamiltonian:                              722.383     3.898   0.0% |
  Atomic:                                   30.141     1.720   0.0% |
   XC Correction:                           28.421    28.421   0.1% |
  Calculate atomic Hamiltonians:           418.330   418.330   1.4% ||
  Communicate:                             130.595   130.595   0.4% |
  Poisson:                                   2.220     2.220   0.0% |
  XC 3D grid:                              137.198   137.198   0.4% |
 Orthonormalize:                           109.810     0.008   0.0% |
  calc_s_matrix:                            17.770    17.770   0.1% |
  inverse-cholesky:                          5.213     5.213   0.0% |
  projections:                              56.813    56.813   0.2% |
  rotate_psi_s:                             30.005    30.005   0.1% |
Set symmetry:                                0.002     0.002   0.0% |
Other:                                     129.649   129.649   0.4% |
-------------------------------------------------------------------
Total:                                             30659.847 100.0%

Memory usage: 855.24 MiB
Date: Fri Jun 14 06:25:50 2024
